/*--------------------------------*- C++ -*----------------------------------*\
| =========                 |                                                 |
| \\      /  F ield         | OpenFOAM: The Open Source CFD Toolbox           |
|  \\    /   O peration     | Version:  2506                                  |
|   \\  /    A nd           | Website:  www.openfoam.com                      |
|    \\/     M anipulation  |                                                 |
\*---------------------------------------------------------------------------*/
FoamFile
{
    version     2.0;
    format      ascii;
    arch        "LSB;label=32;scalar=64";
    class       surfaceScalarField;
    location    "400";
    object      phi;
}
// * * * * * * * * * * * * * * * * * * * * * * * * * * * * * * * * * * * * * //

dimensions      [0 3 -1 0 0 0 0];

oriented        oriented;

internalField   nonuniform List<scalar> 
95456
(
1.24378e-06
7.09401e-09
4.69478e-09
-1.25556e-06
3.59433e-08
1.2695e-06
-6.62447e-09
-1.29882e-06
-1.29868e-06
1.2953e-06
1.67437e-09
1.70404e-09
2.50038e-08
1.25592e-06
1.34309e-08
-1.29436e-06
1.26199e-06
1.27341e-06
-1.29163e-06
1.30119e-06
-3.25565e-09
1.28394e-06
1.44724e-08
1.28646e-06
1.33256e-06
5.11756e-08
-7.30281e-09
-1.37643e-06
2.4518e-08
4.99296e-09
1.48035e-06
-1.50986e-06
-1.38164e-06
-4.6696e-09
-5.94006e-08
1.44571e-06
-6.89676e-09
3.28763e-08
1.47437e-06
-1.50034e-06
1.38154e-06
1.42749e-06
-1.47646e-06
1.44011e-06
-3.40535e-08
1.38597e-06
3.46245e-08
1.44443e-06
1.33593e-06
-1.29394e-06
-2.49301e-08
-1.70598e-08
-3.23965e-08
-1.29406e-06
-3.77643e-08
1.36422e-06
-1.23752e-06
-4.52279e-08
-4.12639e-08
1.32402e-06
-8.18508e-08
-1.25323e-06
-2.48142e-08
1.35989e-06
1.29018e-06
1.3256e-06
-1.27984e-06
1.31806e-06
-6.0272e-08
1.27067e-06
-2.69285e-08
1.35121e-06
1.32987e-06
3.37971e-08
3.99012e-09
-1.36765e-06
1.30668e-08
-3.62409e-09
1.45919e-06
-1.46863e-06
-1.36874e-06
-5.03101e-08
-3.34635e-09
1.4224e-06
2.97001e-08
4.99247e-08
1.44647e-06
-1.52609e-06
1.37726e-06
1.3775e-06
-1.42488e-06
1.39389e-06
-3.56717e-09
1.38886e-06
1.83432e-08
1.41401e-06
1.34107e-06
1.29671e-06
-1.36829e-06
-1.30872e-06
1.28762e-06
1.3164e-06
1.30231e-06
1.31021e-06
-1.3566e-06
-1.32537e-06
1.36331e-06
1.39309e-06
-1.43103e-06
2.92361e-08
-2.35396e-09
1.31419e-06
6.97805e-09
3.52178e-08
-1.36294e-06
1.34451e-06
1.37828e-06
-3.03867e-08
-2.74646e-08
1.42366e-06
-1.32418e-06
1.37444e-06
-5.49383e-08
-1.83912e-08
1.33298e-06
-2.697e-08
1.34335e-06
1.34911e-06
1.35051e-06
1.34741e-06
-1.66831e-08
1.37374e-06
1.56363e-08
1.29252e-06
8.2453e-09
1.3208e-06
2.32088e-08
2.19385e-08
1.36753e-06
-1.35795e-06
1.29936e-06
8.28503e-09
-1.33499e-06
1.3433e-06
7.32509e-09
1.33032e-06
-1.34869e-06
1.33404e-06
1.33156e-06
-1.35507e-06
1.4012e-06
1.36353e-06
1.42766e-06
-1.33805e-06
1.41843e-06
4.13902e-08
1.03245e-08
2.03616e-08
4.60209e-08
1.42991e-06
2.27108e-08
-2.47334e-08
1.47614e-06
-1.47412e-06
-1.33494e-06
-7.35524e-08
-4.59487e-08
1.45444e-06
1.35529e-06
3.75053e-08
-2.02381e-08
-1.37256e-06
-1.75119e-08
-7.68104e-09
1.49186e-06
-1.46667e-06
-6.47879e-08
-1.43693e-06
1.52443e-06
-1.38894e-06
-1.07926e-08
3.01552e-08
-1.4846e-06
-3.48736e-09
-7.31942e-08
-1.23037e-06
-5.19016e-08
1.35546e-06
-1.19113e-06
-7.20109e-08
-4.71128e-08
1.31025e-06
1.33448e-06
-1.24557e-06
-4.0016e-08
-4.88863e-08
-6.01308e-08
-1.23613e-06
-5.21842e-08
1.34844e-06
-1.3216e-07
-1.29987e-06
1.35883e-06
-1.27099e-06
-5.23015e-08
-1.17366e-07
-1.24264e-06
-5.38775e-08
6.75352e-09
1.28999e-06
-9.52539e-09
-1.28722e-06
-1.27233e-06
1.29161e-06
-7.10569e-09
-1.21804e-08
1.24658e-06
1.50239e-09
3.75956e-09
-1.25185e-06
3.42401e-08
1.25192e-06
3.14413e-09
-1.28931e-06
1.41741e-08
-1.29926e-06
1.29184e-06
-1.26429e-06
6.13653e-09
2.41849e-08
-1.2892e-06
6.47565e-09
-1.68933e-08
7.83231e-09
1.48142e-06
-1.47236e-06
-1.3255e-06
-3.64685e-08
-5.85802e-08
1.42055e-06
1.29404e-06
4.60175e-08
1.4291e-08
-1.35436e-06
9.80582e-08
-5.31215e-08
1.50767e-06
-1.5526e-06
-4.53152e-08
-1.46417e-06
1.49259e-06
-1.38509e-06
1.42676e-08
1.05043e-07
-1.47115e-06
1.40008e-08
-1.36513e-06
-1.41816e-07
1.4334e-06
1.37077e-06
-3.09093e-09
-1.33017e-06
-8.96841e-08
-1.42399e-06
1.50599e-06
5.4646e-08
-1.15672e-07
-1.33179e-06
1.39281e-06
-1.33928e-06
7.18573e-08
-9.77171e-08
2.80052e-08
-1.30482e-06
1.43132e-06
-1.3665e-06
-1.34162e-06
-3.05619e-08
-3.33632e-08
-1.31844e-06
6.30731e-08
-1.27957e-06
-2.90763e-08
1.29836e-06
-1.30637e-06
4.9188e-09
-8.42103e-08
-1.35513e-06
-1.36021e-06
-2.4804e-08
-3.19692e-08
-1.32194e-06
2.2271e-08
5.94843e-10
-1.35304e-06
3.75758e-09
-1.41991e-06
-1.33779e-06
-3.047e-08
1.33453e-06
6.94908e-08
-1.358e-06
1.35135e-06
1.91154e-08
-1.34819e-06
-1.13938e-08
1.33491e-06
1.87253e-08
-1.57888e-08
1.30285e-06
1.85605e-08
-1.31853e-06
-3.03748e-08
2.27036e-08
-1.06646e-08
-2.31329e-08
1.29918e-06
1.29844e-06
-5.83476e-11
-2.01516e-08
4.81753e-08
1.31839e-06
-1.36657e-06
1.4159e-06
-6.13768e-08
-1.35452e-06
-1.72423e-08
1.26402e-08
1.32729e-06
-1.32269e-06
-1.41993e-06
1.66694e-08
1.40326e-06
-1.31573e-06
1.3639e-06
1.54092e-06
-1.44076e-06
-1.42673e-06
1.37071e-06
9.69462e-08
-1.27553e-09
1.33341e-06
-1.33213e-06
1.34381e-06
5.34117e-08
-1.39722e-06
-1.55685e-08
1.3162e-06
3.45923e-08
-1.33523e-06
-1.34616e-06
1.33718e-06
8.98152e-09
-1.32895e-06
1.32768e-06
1.37183e-06
-1.35698e-06
-1.30884e-06
1.29035e-06
4.74274e-08
1.69091e-08
-1.4161e-08
1.27253e-06
-1.27527e-06
1.26959e-06
-1.28293e-08
1.39699e-08
-1.27073e-06
-5.23015e-09
1.24395e-06
4.35051e-09
-1.24307e-06
-1.27384e-06
-3.10034e-09
1.2662e-06
1.07433e-08
-1.26146e-06
1.29256e-06
-1.4185e-08
1.26781e-06
-1.25969e-06
-1.25165e-06
1.27037e-06
1.09342e-08
-6.54766e-08
-1.38619e-06
1.45167e-06
9.79226e-07
-8.97059e-07
-8.21635e-08
5.38206e-08
-1.32942e-06
1.28e-06
-4.40552e-09
-1.293e-06
1.30629e-06
-1.32857e-08
-1.35623e-06
1.29075e-06
1.1494e-06
-1.5264e-06
-1.25784e-06
1.25558e-06
-5.46211e-08
1.27242e-06
-1.33379e-06
-3.172e-08
-1.29533e-06
1.33969e-06
-1.34421e-06
1.36088e-06
1.68147e-07
-1.34872e-06
1.18058e-06
1.42579e-06
1.15633e-06
-1.3097e-06
1.49102e-06
1.32447e-06
1.47128e-06
1.35098e-06
-1.35137e-06
-1.31621e-06
1.30468e-06
1.29093e-06
1.33545e-06
-1.31018e-06
-1.30088e-06
1.31567e-06
-1.31013e-06
3.57369e-08
5.55091e-09
9.8782e-09
2.63669e-08
-1.3217e-06
1.32718e-06
1.30452e-06
-1.26833e-06
1.30351e-06
-1.4172e-06
1.39188e-06
1.51321e-06
-1.22969e-06
-1.3671e-06
-1.27133e-06
1.30901e-06
5.47461e-10
5.00103e-09
1.29897e-06
5.46261e-08
-4.14403e-08
-1.32066e-06
3.31714e-08
-1.29336e-06
1.89252e-08
-2.55128e-09
7.75383e-08
1.28832e-06
3.42918e-08
1.32305e-06
-1.30407e-06
-1.29097e-06
1.31143e-06
1.79102e-08
-1.15387e-06
2.49922e-06
-1.34535e-06
2.27435e-08
-1.01306e-06
2.15985e-06
-1.16954e-06
2.32013e-06
-1.09839e-06
-1.22174e-06
-1.2361e-06
-1.10019e-06
2.3363e-06
-2.46083e-06
-1.09151e-06
2.39847e-06
-1.11248e-06
-1.3256e-06
-2.32761e-06
-1.11996e-06
-9.55105e-07
4.09237e-08
1.98577e-06
-1.07159e-06
5.2263e-08
1.94584e-06
-9.49542e-07
-1.04856e-06
1.96008e-06
4.42474e-08
-9.51397e-07
-1.05293e-06
-1.06059e-06
4.21011e-08
1.98648e-06
-9.67995e-07
-2.01269e-06
-9.11091e-07
1.96868e-06
-9.01789e-07
-1.05864e-06
-2.01338e-06
4.17051e-08
-9.55098e-07
-1.05158e-06
2.20992e-06
-1.15833e-06
3.95717e-08
2.02604e-06
-9.86052e-07
-1.07956e-06
2.13579e-06
-1.03001e-06
-1.10578e-06
-1.10796e-06
2.13936e-06
-1.03139e-06
-2.26653e-06
-1.03711e-06
2.25207e-06
-1.03482e-06
-1.19214e-06
-2.14508e-06
-1.0441e-06
-1.10423e-06
-1.18279e-06
2.28702e-06
2.60129e-08
-1.10798e-06
2.0963e-06
-1.01433e-06
2.23931e-06
-1.14522e-06
-1.09408e-06
-1.21145e-06
2.37217e-06
-1.16073e-06
-2.30994e-06
-1.05555e-06
2.26127e-06
-1.09446e-06
-1.18946e-06
-2.267e-06
-1.12215e-06
-9.59358e-07
-2.14662e-06
2.09292e-06
2.33228e-06
-2.35616e-06
-1.07451e-06
-2.33039e-06
-1.04129e-06
2.2715e-06
9.97604e-07
-2.08349e-06
-9.6594e-07
2.05182e-06
2.28304e-08
1.09128e-06
-2.07347e-06
1.23514e-06
2.77467e-08
2.06114e-06
-1.0675e-06
-9.63214e-07
-1.14249e-06
-1.08721e-06
-9.54174e-07
2.07688e-06
-9.47091e-07
-1.08554e-06
-3.18102e-08
-1.06998e-06
-1.25437e-06
-9.924e-07
-2.04428e-06
-2.03791e-06
-9.9227e-07
-1.08382e-06
-9.53297e-07
1.15228e-06
-2.22678e-06
-2.22408e-06
2.46842e-08
-2.09861e-06
1.02576e-06
-2.17098e-06
2.21601e-06
-1.06373e-06
-1.07557e-06
2.24034e-06
-2.2783e-06
-1.08685e-06
1.05587e-06
-1.08749e-06
-2.05404e-06
-9.98737e-07
2.07053e-06
-9.91575e-07
1.19347e-06
-2.82504e-08
-2.89558e-08
1.08898e-06
-9.94019e-07
-1.18896e-06
2.29547e-06
-1.10651e-06
-1.13429e-06
-1.22744e-06
2.36173e-06
2.27665e-06
-1.18321e-06
-1.09344e-06
2.64782e-08
-1.10178e-06
2.09599e-06
-1.02069e-06
-1.17594e-06
-2.28475e-06
2.27173e-06
-2.31024e-06
-1.17566e-06
-1.0826e-06
-1.20925e-06
-1.28538e-06
-1.14199e-06
2.42738e-06
-1.14126e-06
2.46967e-06
-1.32841e-06
2.35669e-06
-1.105e-06
-1.25169e-06
2.32475e-08
-9.94571e-07
2.1254e-06
-1.15408e-06
-1.23536e-06
-2.45634e-06
2.40631e-06
-2.37662e-06
-1.29331e-06
-1.13978e-06
-1.31324e-06
-1.17328e-06
2.24509e-06
-1.0718e-06
-1.06184e-06
2.26881e-06
-1.20697e-06
2.18374e-06
-1.03954e-06
-1.1442e-06
3.36487e-08
2.03184e-06
-9.81514e-07
-1.08397e-06
-1.15833e-06
-2.30469e-06
2.28973e-06
-2.22017e-06
-1.17665e-06
-1.09438e-06
-1.21309e-06
-1.0556e-06
4.05274e-08
1.97803e-06
-9.62955e-07
-9.55855e-07
3.96479e-08
1.98369e-06
-1.06748e-06
1.96092e-06
4.31154e-08
-9.53195e-07
-1.05084e-06
5.13257e-08
1.94207e-06
-9.47892e-07
-1.04551e-06
-1.00936e-06
-2.01567e-06
1.96943e-06
-2.00939e-06
4.41773e-08
-1.00776e-06
-9.56586e-07
-1.05623e-06
-2.35501e-06
-1.2032e-06
2.33077e-06
2.2937e-06
-1.19192e-06
-2.28498e-06
-1.0609e-06
-2.09065e-06
2.04977e-06
1.09822e-06
-1.06902e-06
-2.10234e-06
2.07314e-06
-1.10957e-06
-2.96625e-08
-1.21578e-06
-2.51196e-08
-9.91342e-07
2.0599e-06
-2.07736e-06
-2.3452e-06
2.74475e-08
-2.09104e-06
1.20357e-06
-2.30857e-06
1.09801e-06
-2.28993e-06
-1.24898e-06
-2.312e-06
-2.36131e-06
-1.21399e-06
-2.37173e-06
-3.47003e-08
-1.16181e-06
-1.08848e-06
-1.05466e-06
-9.9546e-07
-9.94158e-07
-1.06853e-06
2.07619e-06
-1.04848e-06
-9.84595e-07
2.04321e-06
-1.09138e-06
-9.8653e-07
-1.08881e-06
2.03879e-06
-1.05398e-06
-1.20665e-06
2.07179e-06
-1.08844e-06
-2.04485e-06
-1.11472e-06
1.22432e-06
-1.26408e-06
-2.85508e-08
1.11163e-06
9.8926e-07
-3.57802e-08
-1.09137e-06
-1.16398e-06
2.56183e-06
-1.39786e-06
2.59816e-08
-1.02133e-06
2.16585e-06
-1.17051e-06
-1.27334e-06
-1.14737e-06
2.42071e-06
2.29768e-06
-1.08555e-06
-1.21213e-06
1.22253e-06
-1.07126e-06
-1.31525e-06
-1.07129e-06
2.31981e-06
1.22642e-06
-1.11822e-06
-9.65607e-07
3.92009e-08
2.00523e-06
-1.07883e-06
5.06595e-08
1.9498e-06
-9.50788e-07
-1.04967e-06
-1.06049e-06
4.10599e-08
1.98784e-06
-9.68406e-07
1.96668e-06
4.28565e-08
-9.60753e-07
-1.04878e-06
1.01168e-06
-9.15704e-07
-1.06158e-06
-9.10402e-07
1.97274e-06
1.01262e-06
3.835e-08
-9.58272e-07
-1.1177e-06
-1.22961e-06
2.34731e-06
3.47616e-08
-1.10305e-06
2.09844e-06
-1.03015e-06
-1.19765e-06
2.31989e-06
-1.12225e-06
2.20944e-06
-1.15874e-06
-1.0507e-06
1.13321e-06
-1.06682e-06
-1.18409e-06
-1.04403e-06
2.212e-06
1.14263e-06
-1.09905e-06
-1.09275e-06
2.29111e-06
-1.19836e-06
1.80483e-08
2.04197e-06
-9.77952e-07
-1.08206e-06
-1.15936e-06
2.21589e-06
-1.05653e-06
2.17635e-06
-1.0212e-06
-1.15515e-06
1.19149e-06
-1.05291e-06
-1.23134e-06
-1.09042e-06
2.29996e-06
1.12344e-06
-1.12634e-06
-9.79979e-07
1.08251e-06
-1.12386e-06
-1.23699e-06
1.21432e-06
-1.1247e-06
1.21455e-06
-1.07801e-06
-1.22209e-06
9.8558e-07
1.05502e-06
-9.58678e-07
-1.08193e-06
9.10696e-09
-2.06774e-06
1.07866e-06
-2.3461e-06
2.06814e-08
-1.10284e-06
-1.11087e-06
-9.63409e-07
2.08512e-06
2.05776e-06
-9.59879e-07
-1.06143e-06
-9.63083e-07
2.06557e-06
-2.09758e-08
-1.08458e-06
2.31988e-06
-9.9808e-07
1.11333e-06
1.09803e-06
-1.01099e-06
2.10334e-06
-9.74386e-07
-2.3304e-06
1.2057e-06
1.2131e-06
2.23209e-08
1.06097e-06
1.07869e-06
1.13721e-06
-1.21983e-06
-1.11058e-06
-1.1176e-06
-1.20469e-06
1.1728e-06
-1.10849e-06
1.07246e-06
-1.094e-06
1.08998e-06
-9.88888e-07
-1.06698e-06
-9.99151e-07
-2.27161e-06
-2.09707e-08
-2.63504e-08
-2.06234e-06
-9.98716e-07
-1.20617e-06
2.58008e-06
-1.37391e-06
3.59805e-08
-1.0255e-06
2.17917e-06
-1.18965e-06
-1.24905e-06
-1.13534e-06
2.3844e-06
2.3179e-06
-1.11119e-06
-1.20672e-06
1.23196e-06
-1.10724e-06
-1.33088e-06
-1.06776e-06
2.3357e-06
1.21066e-06
-1.10616e-06
-9.64374e-07
4.71659e-08
1.99504e-06
-1.07783e-06
5.29583e-08
1.94421e-06
-9.49779e-07
-1.04739e-06
-1.05144e-06
4.53252e-08
1.96957e-06
-9.63453e-07
1.95872e-06
4.62692e-08
-9.55912e-07
-1.04908e-06
1.00584e-06
-9.10774e-07
-1.05944e-06
-9.05231e-07
1.96403e-06
1.00404e-06
4.39141e-08
-9.52639e-07
-1.10025e-06
-1.20095e-06
2.30119e-06
3.72984e-08
-1.08784e-06
2.04822e-06
-9.97675e-07
-1.20968e-06
2.33751e-06
-1.12783e-06
2.22117e-06
-1.14879e-06
-1.07238e-06
1.13953e-06
-1.06836e-06
-1.17142e-06
-1.04418e-06
2.22101e-06
1.15281e-06
-1.10106e-06
-1.09138e-06
2.28005e-06
-1.18867e-06
2.24709e-08
2.00882e-06
-9.6832e-07
-1.06297e-06
-1.12981e-06
2.18934e-06
-1.05953e-06
2.1688e-06
-1.03034e-06
-1.13846e-06
1.17308e-06
-1.06261e-06
-1.20185e-06
-1.04402e-06
2.23957e-06
1.10619e-06
-1.06764e-06
-9.68505e-07
1.07251e-06
-1.1295e-06
-1.22935e-06
1.19256e-06
-1.09855e-06
1.20954e-06
-1.09032e-06
-1.23041e-06
9.74521e-07
1.03298e-06
-9.41859e-07
-1.06565e-06
1.74613e-08
-2.04254e-06
1.05658e-06
-2.31805e-06
2.39077e-08
-1.09193e-06
-1.0846e-06
-9.49341e-07
2.06901e-06
2.03652e-06
-9.57264e-07
-1.05373e-06
-9.63726e-07
2.06278e-06
-2.85653e-08
-1.06192e-06
2.28304e-06
-9.90393e-07
1.09763e-06
1.09004e-06
-1.00814e-06
2.0772e-06
-9.71835e-07
-2.27744e-06
1.1789e-06
1.18973e-06
2.39051e-08
1.04306e-06
1.06701e-06
1.12234e-06
-1.18605e-06
-1.0914e-06
-1.08092e-06
-1.18255e-06
1.15816e-06
-1.08397e-06
1.04256e-06
-1.06902e-06
1.08474e-06
-9.98946e-07
-1.05319e-06
-9.98378e-07
-2.2303e-06
-2.50815e-08
-2.95787e-08
-2.05011e-06
-9.94948e-07
1.07862e-06
-2.30354e-06
1.22493e-06
-2.9147e-08
1.08035e-06
-2.28341e-06
1.23221e-06
1.19735e-06
1.09097e-06
-2.28832e-06
-2.23321e-06
1.0707e-06
1.16251e-06
-1.21957e-06
1.05392e-06
1.24426e-06
1.06948e-06
-2.31819e-06
-1.17929e-06
1.08755e-06
9.92407e-07
-2.97602e-08
-2.08481e-06
1.12216e-06
-3.44102e-08
-2.00819e-06
9.65462e-07
1.07714e-06
1.09444e-06
-3.09998e-08
-2.05471e-06
9.91269e-07
-2.04729e-06
-3.49001e-08
9.8099e-07
1.1012e-06
-1.06807e-06
9.52474e-07
1.108e-06
9.42462e-07
-2.04494e-06
-1.06026e-06
-3.45495e-08
9.76641e-07
1.06215e-06
1.14049e-06
-2.20264e-06
-3.58044e-08
1.15513e-06
-2.16366e-06
1.04433e-06
1.07662e-06
-2.07161e-06
9.94989e-07
-2.06783e-06
1.0821e-06
9.85727e-07
-1.13031e-06
1.02603e-06
1.16643e-06
9.99306e-07
-2.16542e-06
-1.0418e-06
1.03413e-06
1.04993e-06
-2.18743e-06
1.1375e-06
-2.02795e-08
-2.17288e-06
1.04305e-06
1.15011e-06
1.10136e-06
-2.09655e-06
9.9519e-07
-2.11692e-06
1.0106e-06
1.10632e-06
-1.1593e-06
1.02685e-06
1.18237e-06
1.01805e-06
-2.19762e-06
-1.09007e-06
1.02934e-06
1.03751e-06
-1.16599e-06
1.20882e-06
1.21248e-06
-1.17907e-06
1.05755e-06
-1.19599e-06
1.05214e-06
1.21455e-06
-1.05293e-06
-1.14273e-06
1.01215e-06
1.18352e-06
-3.00536e-08
2.21762e-06
-1.15006e-06
2.26997e-06
-2.74259e-08
1.19211e-06
1.04656e-06
1.01246e-06
-2.2082e-06
-2.19596e-06
1.01833e-06
1.13502e-06
1.02636e-06
-2.19237e-06
3.71215e-08
1.05161e-06
-2.26779e-06
1.0501e-06
-1.1877e-06
-1.18042e-06
1.06017e-06
-2.21075e-06
1.01477e-06
2.18878e-06
-1.13123e-06
-1.13529e-06
-2.30663e-08
-1.13766e-06
-1.02906e-06
-1.06748e-06
1.13992e-06
1.04887e-06
1.05118e-06
1.16951e-06
-1.1497e-06
1.06086e-06
-1.01979e-06
1.03441e-06
-1.16424e-06
1.0449e-06
1.12982e-06
1.05166e-06
2.19822e-06
2.9071e-08
2.87319e-08
2.17367e-06
1.03816e-06
1.04672e-06
-2.22624e-06
1.17953e-06
-3.53159e-08
1.0771e-06
-2.25609e-06
1.21431e-06
1.17968e-06
1.08099e-06
-2.26067e-06
-2.17607e-06
1.04832e-06
1.12776e-06
-1.16885e-06
1.02473e-06
1.19083e-06
1.04561e-06
-2.24978e-06
-1.15134e-06
1.07395e-06
1.01152e-06
-3.99788e-08
-2.10671e-06
1.13517e-06
-4.63113e-08
-1.99794e-06
9.64517e-07
1.07974e-06
1.11422e-06
-4.45881e-08
-2.07532e-06
1.00569e-06
-2.077e-06
-4.33233e-08
1.00335e-06
1.11698e-06
-1.08102e-06
9.65217e-07
1.12732e-06
9.51229e-07
-2.07856e-06
-1.06937e-06
-4.24187e-08
9.96083e-07
1.1036e-06
1.1979e-06
-2.3015e-06
-4.44629e-08
1.15949e-06
-2.15942e-06
1.0444e-06
1.1602e-06
-2.22417e-06
1.06397e-06
-2.18791e-06
1.16057e-06
1.02733e-06
-1.15391e-06
1.05149e-06
1.20601e-06
1.04001e-06
-2.23838e-06
-1.13641e-06
1.06379e-06
1.04357e-06
-2.16833e-06
1.12476e-06
-2.91467e-08
-2.16191e-06
1.0405e-06
1.15055e-06
1.15833e-06
-2.19393e-06
1.0356e-06
-2.15176e-06
1.02226e-06
1.1295e-06
-1.14836e-06
1.02459e-06
1.16735e-06
1.04079e-06
-2.2183e-06
-1.12717e-06
1.07195e-06
1.0302e-06
-1.15007e-06
1.19697e-06
1.19651e-06
-1.17385e-06
1.05833e-06
-1.16978e-06
1.04037e-06
1.17773e-06
-1.05023e-06
-1.13291e-06
1.00651e-06
1.17662e-06
-3.26732e-08
2.2004e-06
-1.13752e-06
2.23779e-06
-3.05665e-08
1.18074e-06
1.03744e-06
1.00998e-06
-2.20003e-06
-2.18668e-06
1.01045e-06
1.13161e-06
1.00719e-06
-2.18339e-06
3.9498e-08
1.06406e-06
-2.2774e-06
1.05143e-06
-1.17897e-06
-1.17767e-06
1.06065e-06
-2.20013e-06
1.01459e-06
2.21904e-06
-1.16072e-06
-1.12796e-06
-2.85439e-08
-1.12685e-06
-1.05263e-06
-1.14129e-06
1.15093e-06
1.06811e-06
1.06041e-06
1.18643e-06
-1.17095e-06
1.10124e-06
-1.06238e-06
1.08166e-06
-1.16633e-06
1.04993e-06
1.12381e-06
1.04288e-06
2.26919e-06
3.80609e-08
3.58656e-08
2.17646e-06
1.04599e-06
-3.13774e-08
-1.98994e-06
9.52355e-07
1.06896e-06
9.93371e-07
-3.09148e-08
-2.08595e-06
1.1235e-06
-2.03859e-06
-3.31713e-08
9.7726e-07
1.0945e-06
1.08599e-06
-3.2467e-08
-2.03836e-06
9.84836e-07
1.06947e-06
9.38341e-07
-2.03919e-06
9.49427e-07
1.11342e-06
1.05545e-06
9.68877e-07
-3.37072e-08
-1.87006e-08
1.08517e-06
-2.30572e-06
1.23925e-06
1.1708e-06
-2.4723e-06
1.3015e-06
-2.37184e-06
1.14225e-06
1.22959e-06
1.25234e-06
1.13857e-06
-2.39091e-06
1.28363e-06
1.12505e-06
-2.42738e-06
1.12992e-06
1.32451e-06
1.24192e-06
1.13548e-06
-2.26545e-08
-2.14518e-06
1.02316e-06
1.14468e-06
1.11052e-06
-2.31125e-06
1.20074e-06
-2.22386e-06
1.05237e-06
1.17148e-06
1.17236e-06
-2.21715e-06
1.04479e-06
1.21952e-06
1.06394e-06
-2.30611e-06
1.07712e-06
1.25292e-06
1.14674e-06
1.08956e-06
-4.2602e-08
1.13004e-06
-2.12059e-06
1.03315e-06
1.11159e-06
1.22006e-06
-2.33165e-06
-2.18284e-06
1.16058e-06
1.02226e-06
1.1555e-06
-2.16552e-06
1.01002e-06
1.19525e-06
1.04228e-06
-2.28013e-06
1.0647e-06
1.24215e-06
1.11815e-06
1.07963e-06
1.00525e-06
1.16217e-06
-2.19834e-06
-2.15486e-06
1.12464e-06
9.97044e-07
1.10251e-06
9.82086e-07
-2.11706e-06
4.20784e-08
1.22742e-06
1.08549e-06
-2.35498e-06
1.03401e-06
-1.17149e-06
1.14273e-06
-1.15455e-06
1.03865e-06
-2.16806e-06
9.86604e-07
1.0361e-06
1.21124e-06
1.2702e-06
1.09578e-06
-1.26416e-06
1.12044e-06
1.28597e-06
-1.04366e-06
1.00009e-06
1.16822e-06
-2.79425e-08
2.20677e-06
2.37774e-06
-2.43727e-08
1.18748e-06
1.0892e-06
-1.14026e-06
1.12031e-06
1.01699e-06
1.0945e-06
1.01762e-06
1.1091e-06
1.19645e-06
-1.06817e-06
1.14163e-06
1.08713e-06
-2.11594e-06
-3.24455e-08
1.00813e-06
-3.48295e-08
-2.31642e-06
1.2158e-06
-2.47893e-08
-1.07553e-06
2.29224e-06
-1.19081e-06
-1.23601e-06
-1.09489e-06
-1.09574e-06
-1.1965e-06
1.09203e-06
-2.30259e-06
1.21057e-06
-7.29174e-09
1.07587e-06
-2.32958e-06
1.261e-06
-2.29364e-06
1.09262e-06
1.20101e-06
1.19388e-06
1.10247e-06
-2.29635e-06
2.4112e-06
1.0715e-06
-2.39067e-06
1.11982e-06
1.28409e-06
2.26538e-06
1.09156e-06
9.95288e-07
-3.17298e-08
-2.09963e-06
1.13607e-06
-3.92455e-08
-1.9923e-06
9.56016e-07
1.07553e-06
-2.07091e-06
-2.47039e-08
9.85232e-07
1.11038e-06
1.11462e-06
-3.37578e-08
-2.06258e-06
9.81715e-07
2.09881e-06
9.66026e-07
-2.06954e-06
9.44405e-07
1.11515e-06
2.11004e-06
-2.93888e-08
9.83535e-07
1.0585e-06
-2.21731e-06
1.15881e-06
-2.17749e-08
-2.18875e-06
1.03758e-06
1.17295e-06
-2.23106e-06
1.01929e-06
1.21177e-06
1.17546e-06
-2.20766e-06
1.0322e-06
2.31044e-06
1.04697e-06
-2.29891e-06
1.06425e-06
1.22441e-06
2.22243e-06
1.05562e-06
1.11156e-06
1.21428e-06
-2.32584e-06
-2.77243e-08
1.16162e-06
-2.15751e-06
1.02362e-06
-2.19357e-06
1.16141e-06
1.03216e-06
1.1514e-06
-2.20704e-06
1.05564e-06
2.35187e-06
1.05394e-06
-2.29426e-06
1.0648e-06
1.25935e-06
2.20535e-06
1.07658e-06
1.02842e-06
2.3165e-06
-2.26904e-06
-2.30063e-06
2.33279e-06
1.06046e-06
2.3509e-06
1.07356e-06
-2.32198e-06
-1.04064e-06
2.21828e-06
1.00225e-06
-2.17989e-06
-3.57675e-08
-1.18616e-06
2.25035e-06
-1.24484e-06
-4.20408e-08
-2.18476e-06
1.06402e-06
1.0372e-06
1.24756e-06
1.17625e-06
1.00827e-06
-2.24736e-06
1.02199e-06
1.20066e-06
2.5007e-08
1.06621e-06
1.24158e-06
1.04292e-06
2.24464e-06
2.18978e-06
1.06414e-06
1.2055e-06
1.00656e-06
-1.173e-06
2.23345e-06
2.28784e-06
-3.97137e-08
2.20359e-06
-1.05372e-06
2.21513e-06
-2.2445e-06
1.0715e-06
1.10736e-06
-2.327e-06
2.34479e-06
1.08235e-06
-1.06753e-06
1.075e-06
2.17689e-06
1.03496e-06
-2.20473e-06
1.03797e-06
-1.24723e-06
3.06691e-08
3.00335e-08
-1.1675e-06
1.03943e-06
1.01929e-06
-2.1575e-06
1.13821e-06
-2.70599e-08
1.07833e-06
-2.29091e-06
1.23964e-06
-2.147e-06
1.00788e-06
1.13912e-06
1.13529e-06
1.01337e-06
-2.14866e-06
2.23081e-06
9.97383e-07
-2.2089e-06
1.01666e-06
1.18708e-06
2.13268e-06
1.00234e-06
1.00851e-06
-3.83457e-08
-2.11381e-06
1.14365e-06
-4.16265e-08
-2.00259e-06
9.69535e-07
1.07468e-06
-2.08029e-06
-3.6755e-08
1.00121e-06
1.11583e-06
1.1132e-06
-3.70089e-08
-2.07493e-06
9.98737e-07
2.13443e-06
9.66411e-07
-2.09233e-06
9.61478e-07
1.13132e-06
2.11646e-06
-3.68518e-08
9.97654e-07
9.6269e-07
-2.05871e-06
1.09602e-06
-2.72774e-08
-2.13497e-06
1.02083e-06
1.14142e-06
-2.03984e-06
9.50186e-07
1.08965e-06
1.09511e-06
-2.05111e-06
9.56e-07
2.11356e-06
9.53563e-07
-2.10443e-06
9.6947e-07
1.11681e-06
2.04867e-06
9.78307e-07
1.01967e-06
1.13194e-06
-2.15161e-06
-2.58984e-08
1.12625e-06
-2.11161e-06
1.01126e-06
-2.05298e-06
1.09479e-06
9.58191e-07
1.10273e-06
-2.08987e-06
9.8714e-07
2.14501e-06
9.78102e-07
-2.10345e-06
9.75895e-07
1.14322e-06
2.08083e-06
1.00375e-06
1.01805e-06
2.31223e-06
-2.25195e-06
-2.1264e-06
2.15592e-06
9.78359e-07
2.17499e-06
9.92236e-07
-2.15386e-06
-1.0346e-06
2.18989e-06
9.88214e-07
-2.14351e-06
-3.64117e-08
-1.15903e-06
2.21349e-06
-1.16047e-06
-3.64881e-08
-2.15714e-06
9.78032e-07
1.03848e-06
1.23541e-06
1.15504e-06
9.97845e-07
-2.22213e-06
1.00829e-06
1.17709e-06
2.97108e-08
9.68318e-07
1.15789e-06
1.04672e-06
2.20524e-06
2.16491e-06
1.05104e-06
1.18391e-06
9.93821e-07
-1.10585e-06
2.08421e-06
2.12418e-06
-2.81948e-08
2.14266e-06
-9.67605e-07
2.06239e-06
-2.09371e-06
9.87865e-07
1.0085e-06
-2.12352e-06
2.14378e-06
9.93817e-07
-9.80917e-07
9.92195e-07
2.12313e-06
1.01738e-06
-2.15109e-06
1.02441e-06
-1.13959e-06
2.89764e-08
2.32692e-08
-1.1283e-06
1.0181e-06
-3.74901e-08
-1.98199e-06
9.50015e-07
1.06946e-06
9.88721e-07
-3.79028e-08
-2.09443e-06
1.14362e-06
1.09232e-06
-3.40103e-08
-2.02119e-06
9.62888e-07
-2.04126e-06
-3.0986e-08
9.73682e-07
1.09856e-06
-2.08241e-06
9.34323e-07
1.11059e-06
9.52059e-07
-2.04575e-06
-2.07616e-06
9.69225e-07
-3.17813e-08
-2.47636e-08
1.06753e-06
-2.31126e-06
1.2685e-06
1.09864e-06
-2.29471e-06
1.19607e-06
1.27964e-06
1.14031e-06
-2.41995e-06
-2.36763e-06
1.11644e-06
1.25119e-06
-2.37825e-06
1.10598e-06
1.24751e-06
1.09019e-06
-2.3698e-06
-2.36983e-06
1.10818e-06
-2.55032e-08
1.18642e-06
-2.19541e-06
1.0345e-06
1.08013e-06
1.18372e-06
-2.26386e-06
1.10427e-06
-2.03364e-06
9.29368e-07
-2.11802e-06
1.16457e-06
9.53443e-07
-2.30998e-06
1.03185e-06
1.25262e-06
9.82036e-07
-2.21188e-06
-2.08631e-06
1.00014e-06
-1.92709e-08
-2.19766e-06
1.04625e-06
1.17068e-06
1.05542e-06
-2.23898e-06
1.18355e-06
1.21084e-06
-2.23922e-06
1.02838e-06
-2.25894e-06
1.06299e-06
1.19596e-06
-2.29491e-06
1.06889e-06
1.20675e-06
1.0621e-06
-2.30159e-06
-2.27293e-06
1.08288e-06
1.00369e-06
-2.28081e-06
1.23923e-06
1.1653e-06
-2.21755e-06
1.01824e-06
-2.22132e-06
1.01436e-06
1.17598e-06
3.21091e-08
-2.38238e-06
1.07439e-06
1.27588e-06
1.0354e-06
2.22297e-06
-2.25469e-06
2.16892e-06
1.0624e-06
1.19268e-06
1.01e-06
1.02947e-06
-2.24276e-06
-2.34346e-06
1.07753e-06
2.38342e-06
1.07445e-06
-2.31757e-06
-1.04691e-06
1.01019e-06
-2.18083e-06
-3.30036e-08
-1.19222e-06
-1.26829e-06
-3.658e-08
-2.20255e-06
1.07855e-06
2.20789e-06
-2.22891e-06
1.03926e-06
-2.22058e-06
1.03728e-06
1.08716e-06
-2.25175e-06
-1.07222e-06
-2.2159e-06
1.04891e-06
1.18359e-06
-1.78487e-08
1.04215e-06
-2.70021e-08
1.24143e-06
-2.3315e-06
-3.22985e-08
-1.05132e-06
-1.17423e-06
2.25818e-06
2.31777e-06
-1.09745e-06
-1.06505e-06
2.23928e-06
-1.18905e-06
1.17966e-06
9.39482e-09
1.2077e-06
-1.22511e-06
1.74043e-08
6.96018e-09
-1.24412e-06
1.23716e-06
-2.20814e-08
-1.25623e-06
1.25345e-06
2.48554e-08
-1.19483e-06
1.73338e-08
-1.15571e-08
1.28728e-08
-1.37822e-06
1.37347e-06
-1.35838e-06
-1.28587e-06
1.26177e-06
2.41008e-08
1.336e-06
2.48543e-08
-1.36085e-06
2.10948e-08
1.27881e-06
-1.2999e-06
-1.86385e-08
1.23038e-06
2.0718e-08
-1.23246e-06
-1.33208e-06
2.51187e-08
2.10902e-08
3.92625e-09
-1.38431e-06
1.39079e-06
-1.35928e-06
-1.27779e-06
2.51931e-09
1.27527e-06
1.3002e-06
7.09866e-09
-1.3073e-06
1.41667e-08
1.29306e-06
-1.30723e-06
-2.01161e-08
1.65515e-08
1.23828e-06
-1.23472e-06
-1.28789e-06
7.15092e-09
2.94652e-09
1.23067e-08
-1.34224e-06
1.32927e-06
-1.31577e-06
-1.18356e-06
-1.24514e-08
1.18413e-06
1.18776e-08
1.17206e-06
-8.74937e-09
7.56091e-09
-1.17088e-06
7.06142e-09
-1.05143e-08
1.18539e-06
-1.18193e-06
-2.88969e-09
1.16083e-06
2.80261e-09
-1.16074e-06
-1.1873e-06
-1.70185e-09
5.4474e-09
-2.04418e-09
-1.31935e-08
-1.1714e-06
1.16681e-06
-1.16638e-06
1.46579e-08
-1.25172e-06
1.19546e-08
-4.64985e-09
-1.24735e-06
7.88486e-09
-1.27043e-06
-4.6258e-09
1.8828e-08
1.24431e-06
-1.26401e-06
-1.03732e-09
2.07334e-08
1.38966e-06
2.20962e-08
-1.3971e-06
2.66305e-08
1.24388e-06
2.2523e-08
8.40247e-11
1.00512e-08
-2.93546e-08
-4.26843e-09
1.26814e-06
1.06695e-08
-1.25225e-06
4.89486e-09
-1.37338e-06
-1.36672e-08
-1.19502e-08
-1.26591e-06
-9.72468e-09
1.29251e-08
-1.32046e-06
1.31542e-06
-1.2546e-06
1.23752e-06
1.23057e-06
-1.24035e-06
3.44533e-09
-1.23733e-06
1.22337e-06
1.81235e-08
-1.2513e-06
1.2461e-06
-1.23639e-06
1.90155e-08
-1.26687e-06
-1.31305e-06
3.02055e-09
-1.2238e-06
-2.32184e-08
-1.2214e-06
1.3557e-06
-1.33793e-06
1.46378e-08
-1.32474e-06
-1.24921e-06
2.12366e-08
-1.25119e-06
-3.99389e-09
1.16821e-06
2.35874e-09
-1.16658e-06
1.18794e-06
-1.35167e-08
1.04245e-08
-1.18485e-06
9.05303e-09
-1.33191e-08
1.19724e-06
-1.19298e-06
-1.19309e-06
-1.16733e-08
1.19405e-06
1.07139e-08
-1.18933e-06
1.17397e-06
1.13713e-08
1.18583e-06
-1.18722e-06
-1.21205e-06
1.19292e-06
-1.71665e-08
-1.97982e-08
1.23272e-06
2.54438e-08
-1.23837e-06
1.31449e-06
8.86774e-09
-1.32335e-06
1.54632e-08
1.29007e-06
-1.30553e-06
-1.30097e-06
1.28926e-06
1.17146e-08
-1.33791e-06
1.28365e-06
3.44629e-08
1.30163e-06
-1.32505e-06
-1.31709e-06
1.29977e-06
-2.06678e-08
1.96473e-08
1.25091e-06
-1.24989e-06
1.32571e-06
-7.50829e-09
-1.3182e-06
5.82368e-08
1.27357e-06
-1.33181e-06
-1.3498e-06
3.12443e-08
1.31855e-06
-1.41669e-06
1.36507e-06
3.09452e-08
1.26523e-06
-1.35621e-06
-1.32347e-06
1.33875e-06
1.57468e-09
-1.24323e-06
1.22745e-06
1.42158e-08
1.177e-06
-1.15602e-06
-2.09749e-08
3.32681e-09
-1.31329e-06
1.30997e-06
-1.26649e-06
1.25996e-06
6.53214e-09
-1.2605e-06
1.29155e-06
-2.94739e-08
1.26163e-06
-1.34513e-06
-1.26495e-06
1.29e-06
1.2107e-06
-1.25303e-06
2.88162e-08
2.64187e-08
-1.2467e-06
1.20696e-06
-1.24619e-06
1.21024e-06
2.42742e-08
1.03877e-08
-1.29778e-06
1.26163e-06
2.57656e-08
1.23611e-06
1.24095e-06
-1.26637e-06
1.24537e-06
1.23561e-06
1.57279e-08
1.23479e-06
1.22143e-06
-1.24173e-06
-1.29551e-06
1.28699e-06
1.32158e-06
1.29851e-06
-1.33002e-06
-1.23259e-06
1.23e-06
-1.24411e-06
-2.09163e-08
-2.40217e-08
-1.66605e-08
-1.0013e-08
-1.24659e-06
1.29491e-06
1.23938e-06
-1.26713e-06
1.23471e-06
-1.26942e-06
1.23643e-06
1.35457e-06
-1.24897e-06
-1.34186e-06
-1.30862e-06
1.33719e-06
1.61614e-08
-9.12066e-09
1.23234e-06
-1.84662e-08
9.01665e-09
-1.36e-06
-1.74861e-08
-1.27738e-06
3.80179e-08
1.291e-06
1.34881e-06
-1.33535e-06
-1.28857e-06
1.25055e-06
-1.18858e-06
1.19549e-06
-6.91411e-09
7.47527e-10
-1.22739e-06
1.22664e-06
-1.41769e-08
-1.2676e-06
1.26615e-06
1.56297e-08
1.20355e-06
-1.19916e-06
-4.38769e-09
1.84731e-08
-1.20705e-06
-1.34861e-06
1.36783e-06
2.01827e-08
-2.36813e-08
-1.3426e-06
-1.27239e-06
-1.25409e-08
1.28493e-06
1.14725e-07
1.28404e-06
-1.39877e-06
-3.58057e-08
1.71806e-08
1.24039e-06
-1.22176e-06
1.29596e-06
5.58952e-09
-1.30155e-06
1.49334e-08
-1.28732e-06
-1.36642e-06
1.49608e-06
9.44491e-09
-8.01057e-10
-1.39278e-06
-1.19876e-06
-1.12315e-08
1.20239e-06
7.59975e-09
6.22946e-09
-7.92648e-09
1.18547e-06
-1.18377e-06
-3.86776e-09
1.16932e-06
1.51173e-09
-1.16697e-06
1.19358e-06
-1.38392e-08
7.3826e-09
-1.18713e-06
8.54305e-10
-1.18646e-06
-1.31554e-08
-1.17372e-06
1.1808e-06
1.90701e-09
5.21643e-09
-1.17568e-06
-1.25942e-06
1.24336e-06
1.60571e-08
8.08646e-09
1.28522e-06
-1.2933e-06
-3.43424e-08
1.25482e-06
2.12357e-08
-1.24172e-06
1.32422e-06
3.37721e-08
-1.35799e-06
1.65867e-08
-1.276e-06
-1.35428e-06
1.37895e-06
1.44833e-08
3.37351e-08
-1.37414e-06
-1.25901e-06
3.16175e-08
-1.62451e-08
3.83773e-10
-1.25174e-06
3.03887e-08
-1.22955e-06
1.24723e-06
2.44518e-08
-1.27168e-06
-8.43426e-09
-1.25523e-06
4.65661e-09
-1.36728e-06
-8.00193e-09
-1.34489e-06
-1.34071e-06
1.35979e-06
1.38026e-06
-1.35022e-06
-4.89007e-09
-1.21993e-06
1.242e-06
-1.05742e-08
-1.21061e-06
1.22157e-06
-1.35321e-06
1.71549e-08
2.62499e-08
-1.25517e-06
1.26175e-06
-1.23381e-06
-1.27247e-06
-1.95026e-09
2.26764e-08
2.13307e-08
-7.51537e-09
-2.76728e-09
1.63048e-08
1.23937e-06
-1.15601e-09
1.66125e-08
-2.42007e-08
-1.26979e-06
2.15198e-08
-1.34776e-06
-2.84238e-08
-1.99367e-09
-1.22379e-06
1.20895e-06
-1.22395e-06
2.63491e-08
-1.36027e-06
-4.64931e-09
-1.2232e-06
-1.22591e-06
-1.10369e-08
-1.89507e-08
-1.2495e-06
-1.2421e-06
4.59455e-09
5.48779e-09
1.28298e-06
-1.25999e-06
-4.77178e-08
1.41622e-08
1.29354e-06
2.29539e-08
-3.34822e-08
1.2858e-06
1.21685e-06
2.99857e-08
-8.55014e-09
1.25086e-06