/*--------------------------------*- C++ -*----------------------------------*\
| =========                 |                                                 |
| \\      /  F ield         | OpenFOAM: The Open Source CFD Toolbox           |
|  \\    /   O peration     | Version:  2506                                  |
|   \\  /    A nd           | Website:  www.openfoam.com                      |
|    \\/     M anipulation  |                                                 |
\*---------------------------------------------------------------------------*/
FoamFile
{
    version     2.0;
    format      ascii;
    arch        "LSB;label=32;scalar=64";
    class       volVectorField;
    location    "400";
    object      U;
}
// * * * * * * * * * * * * * * * * * * * * * * * * * * * * * * * * * * * * * //

dimensions      [0 1 -1 0 0 0 0];

internalField   nonuniform List<vector> 
50112
(
(0.00305657 -0.00244945 1.0064)
(0.012929 -0.00226758 1.02947)
(0.00239274 -0.00206926 1.04001)
(0.00867182 -0.0112579 1.02473)
(0.00948287 -0.0065999 1.01272)
(0.011454 -0.00277422 1.03387)
(0.00937145 -0.00995847 1.02919)
(0.00773962 -0.00487126 1.03523)
(0.0161917 -0.00173391 1.07734)
(0.00980758 -0.00346833 1.20652)
(-0.00316784 0.0218388 1.11358)
(0.0128693 0.00129431 1.18988)
(0.0284157 -0.0123113 1.11442)
(0.00841604 -0.0022082 1.14278)
(0.0192473 -0.00353011 1.13004)
(-0.0013986 0.0135521 1.14123)
(-0.00427705 0.0115677 1.05015)
(-0.0180712 0.0196513 1.05671)
(-0.0188169 0.0183241 1.02504)
(-0.0117932 0.0308066 1.03957)
(-0.0100017 0.0191068 1.05533)
(-0.0154431 0.0258358 1.04919)
(-0.0157985 0.0289123 1.03899)
(-0.0191241 0.0281451 1.03969)
(0.00246232 -0.0160932 1.07335)
(0.00480611 -0.000533096 1.17423)
(-0.00765434 0.0177419 1.12086)
(0.0184079 -0.0145166 1.19711)
(0.00971054 -0.0101383 1.0961)
(0.00398358 -0.00283038 1.12091)
(0.0126788 -0.0136763 1.12026)
(-0.00552807 0.00705264 1.11238)
(0.0207302 -0.00651419 1.05024)
(0.00447846 0.00217009 1.04617)
(0.0171156 -0.016306 1.04156)
(0.0154879 -0.00903119 1.0919)
(0.0140172 -0.00487951 1.06607)
(0.00574496 0.00250322 1.0497)
(0.0102573 -0.00283367 1.07278)
(0.0136211 -0.00368498 1.06691)
(0.0153466 0.000264362 1.08006)
(0.00411917 0.00649438 1.12778)
(-0.0107461 0.0230901 1.08852)
(9.6566e-05 0.00964688 1.05302)
(0.0143974 0.000268344 1.07976)
(0.0015245 0.00996853 1.08929)
(0.00718713 0.00460353 1.07819)
(0.0063436 0.00707389 1.08565)
(0.00217311 0.00415467 1.04996)
(0.0133793 -0.00960097 1.06143)
(0.0108159 -0.000518676 1.11595)
(0.00120568 0.015967 1.08498)
(0.00401146 0.00545568 1.07218)
(0.00892839 -0.00413992 1.06742)
(-0.000395891 0.0015837 1.07832)
(0.00336094 0.00290085 1.08605)
(0.000755002 0.00963656 1.05298)
(-0.0169416 0.0403044 1.06275)
(0.00302772 0.0087296 1.11648)
(-0.0137302 0.019138 1.0871)
(-0.0110945 0.0217144 1.05323)
(-0.00865605 0.0098282 1.075)
(-0.005063 0.0147988 1.08703)
(-0.0133128 0.0204823 1.11451)
(0.00757787 -0.00625503 1.19366)
(0.0205624 0.0297486 1.11054)
(0.00444978 -0.0152413 1.08926)
(0.0166931 0.00704699 1.1869)
(0.0136919 -0.00241076 1.19351)
(0.0144767 0.0318618 1.12132)
(-0.0060397 -0.0236274 1.16944)
(0.00694939 -0.00665656 1.1003)
(0.0181242 0.0309192 1.02951)
(0.0295476 0.0257752 0.997869)
(0.0218346 0.024047 1.03453)
(0.0271598 0.0282147 1.03431)
(0.0285127 0.0301573 1.03238)
(0.0293471 0.0298874 1.02235)
(0.0274059 0.0320521 1.04509)
(0.0248207 0.0210381 1.02681)
(0.00318444 -0.00479124 1.02713)
(0.00338059 0.00501522 1.02821)
(-0.000181137 -0.0029446 1.00646)
(-0.0145751 -0.00760835 1.02136)
(-0.0108794 -0.0018482 1.03823)
(-0.00279076 0.00261921 1.01965)
(-0.00931906 -0.00461308 1.02764)
(-0.00266811 -0.00505161 1.00855)
(-0.000510963 0.0110164 1.18104)
(0.00642342 0.0169605 1.07874)
(-0.014736 -0.00333624 1.06537)
(-0.0240497 0.0219397 1.22034)
(0.000320631 0.00165258 1.15714)
(0.00202491 0.0346919 1.09344)
(-0.040864 -0.0119812 1.14229)
(-0.0238165 -0.0149731 1.06879)
(0.0282936 0.0296133 1.09594)
(-0.000643297 -0.00737926 1.09133)
(0.0154971 0.0105276 1.15779)
(0.025831 0.0197907 1.08292)
(0.0262572 0.0203216 1.10386)
(0.0088282 0.0131421 1.10268)
(0.0312496 0.0285345 1.08984)
(0.0211679 0.0317866 1.10214)
(0.0309525 0.0381197 1.06149)
(0.0204393 0.0362408 1.05248)
(0.0167154 0.0147468 1.03219)
(0.00304357 0.00759189 1.05281)
(0.0130522 0.0274391 1.05808)
(0.0214327 0.0357327 1.05643)
(0.0131392 0.00850041 1.06153)
(0.0106484 0.0139435 1.05677)
(0.00733359 -0.0103621 1.08495)
(-0.00223356 -0.00443383 1.13709)
(0.0196047 0.00106165 1.0909)
(-0.0205356 -0.0174495 1.06048)
(0.00620947 0.000176038 1.07739)
(0.00274315 0.00200163 1.07906)
(-0.00595404 -0.00872705 1.07857)
(0.000370883 0.00550173 1.08197)
(0.00279866 0.000561351 1.04346)
(-0.0150194 -0.00861539 1.02639)
(0.00578486 0.00124025 1.0497)
(0.00604722 0.00516448 1.03094)
(-0.00532289 0.00884366 1.04601)
(-0.00629083 0.00268796 1.04365)
(0.00211309 0.00726523 1.05354)
(0.00267898 0.0114018 1.05104)
(-0.0306916 -0.0446472 1.04628)
(0.0581686 0.011785 1.10197)
(4.52472e-05 -0.00148951 1.06706)
(-0.00642395 -0.0687348 1.0752)
(0.00727035 -0.0184203 0.957464)
(-0.00288522 -0.0241641 1.15146)
(-0.0195154 -0.0562141 1.10361)
(-0.0251602 -0.057095 1.193)
(0.0165038 -0.0135223 1.05929)
(-0.0151975 -0.0452981 1.06736)
(-0.00981499 -0.0244941 1.05307)
(-0.0142079 0.0203921 1.1274)
(-0.000946672 -0.0111571 1.07408)
(-0.00825698 -0.0369862 1.06906)
(-0.00430215 0.00322063 1.07293)
(-0.0316045 -0.00517198 1.05647)
(-0.00285905 -0.0177691 1.01322)
(0.000509842 -0.015091 1.01663)
(-0.0015799 -0.00249752 1.00192)
(-0.000437428 -0.0120135 1.01428)
(0.002844 -0.0179188 1.01985)
(0.00124848 -0.0139882 1.00754)
(-0.00134925 -0.0166019 1.01265)
(0.00290089 -0.0116911 1.00087)
(0.0524956 -0.0987083 1.04427)
(-0.0700155 0.313431 0.696602)
(-0.0131009 0.0108793 1.06377)
(2.15535e-05 -0.00462315 1.04594)
(0.203786 -0.110427 0.927017)
(0.0379143 -0.00773439 1.12098)
(-0.0161586 -0.0138683 1.02109)
(-0.026074 0.167815 1.02734)
(0.0189488 0.00899921 1.07458)
(-0.00645726 -0.0153009 1.06392)
(0.0725657 -0.0486346 0.965544)
(-0.000226241 0.039203 1.09402)
(0.00545017 0.0197672 1.06212)
(-0.00694224 -0.102129 1.17256)
(0.110391 0.161799 1.03486)
(0.0288536 -0.0217294 1.13553)
(-0.00502099 -0.0131411 1.07634)
(-0.0100761 0.0200628 1.10728)
(-0.00352124 -0.0251849 1.03927)
(-0.00477435 -0.0291711 1.02538)
(-0.0322961 0.00613757 1.07281)
(-0.0232954 -0.00374909 1.02245)
(-0.00971932 -0.0159941 1.04482)
(-0.00484412 -0.0189107 1.03849)
(-0.00955154 -0.0203537 1.03385)
(-0.00413416 -0.0546581 1.08622)
(0.0450725 0.0877813 1.06859)
(-0.0173795 -0.0121125 1.05543)
(-0.0014346 0.00301195 1.05092)
(-0.00152083 -0.0226547 1.18387)
(0.00321745 -0.0166921 1.09695)
(0.0426845 -0.155485 1.26472)
(-0.00982705 -0.0176467 1.01641)
(-0.0175965 0.00422806 1.01612)
(-0.101321 0.0115337 0.981985)
(-0.011468 -0.0170264 1.04219)
(-0.0142198 -0.0187193 1.04764)
(-0.0175536 -0.0111265 1.04103)
(-0.00829144 -0.0170917 1.04037)
(-0.00403274 -0.000918883 1.04671)
(0.0510513 -0.110221 1.22581)
(0.0295141 -0.0469364 1.06524)
(0.0267409 -0.124535 1.09534)
(0.026101 -0.0882334 1.14543)
(0.05208 -0.0363094 1.18411)
(0.0585357 -0.0578765 1.24144)
(0.0730045 -0.132115 1.10917)
(0.021527 -0.0563094 1.15338)
(0.0123905 -0.0117016 1.00808)
(0.00247202 -0.00404641 1.00128)
(-0.000998373 -0.0125084 1.00157)
(-0.000243519 -0.0188248 1.01029)
(0.00597949 -0.00491693 1.0066)
(0.013279 -0.0036957 1.00907)
(0.000617001 -0.0183361 1.0066)
(0.00102225 -0.00920935 1.00298)
(0.005404 -0.081189 1.0479)
(0.00012982 -0.0117837 1.03777)
(-0.00646952 -0.0995251 1.01527)
(0.0196388 -0.0747353 1.01904)
(0.00642513 -0.0641895 1.10267)
(0.0111975 -0.0424888 1.12596)
(0.0183666 -0.0860341 1.0235)
(0.00216894 -0.0542683 1.07304)
(0.000539893 -0.0917565 1.11583)
(0.00342896 -0.0346924 1.04739)
(0.0265306 -0.0805807 1.07696)
(0.0105111 -0.10933 1.13746)
(-0.015168 -0.0615168 1.12514)
(-0.0102827 -0.0663119 1.14095)
(0.0456406 -0.059709 1.08886)
(-0.0116093 -0.0562042 1.13786)
(0.0136923 -0.0178044 1.05518)
(0.0243832 -0.0693465 1.15047)
(0.0124491 -0.0346764 1.13261)
(0.000621937 -0.0236682 1.03799)
(0.00342196 -0.0364187 1.02968)
(0.0182978 -0.0756842 1.14826)
(0.00117345 -0.0358094 1.03163)
(0.0170277 -0.0508005 1.16733)
(0.0350588 -0.0318305 1.07653)
(0.00252169 -0.022139 1.03393)
(0.0035739 -0.0242789 1.03086)
(0.0357327 -0.0482876 1.16392)
(0.000750732 -0.0282567 1.02647)
(-0.00173846 -0.0250342 1.03279)
(0.00141411 -0.0334213 1.0342)
(0.00012416 -0.0249672 1.03273)
(0.0205761 -0.0968194 1.05473)
(0.0531453 -0.096033 1.06438)
(0.00510339 -0.041376 1.04203)
(0.0299883 -0.0547604 1.03671)
(0.0292323 -0.102098 1.06319)
(0.00411802 -0.0513095 1.10836)
(0.00144214 -0.0672363 1.10953)
(0.00349272 -0.0644113 1.10209)
(0.0229369 -0.0714582 1.11202)
(0.00693335 -0.0507378 1.09835)
(-0.00104045 -0.0315425 1.03539)
(-0.00328774 -0.0234596 1.02774)
(0.00940025 -0.0727941 1.11683)
(0.00252183 -0.0645815 1.12178)
(-0.00539993 -0.0242697 1.03185)
(0.000406319 -0.0286938 1.03721)
(-0.0824294 0.00230887 1.11002)
(-0.0916421 0.00290921 1.15158)
(-0.091184 0.00430226 1.08845)
(-0.0427329 0.00061908 1.04397)
(-0.0492188 -0.0126069 1.11913)
(-0.110998 0.0371244 1.10703)
(-0.0409825 -0.00974882 1.12988)
(-0.0652601 -0.00608192 1.1406)
(-0.093428 -0.0253737 1.18439)
(-0.118983 -0.0760961 1.21278)
(-0.0702541 0.00742809 1.13922)
(-0.035915 -0.0326634 1.04838)
(-0.0666369 -0.0536877 1.1954)
(-0.0554838 -0.0147517 1.13983)
(-0.0778853 -0.0596976 1.2106)
(-0.0673119 -0.0692464 1.19557)
(-0.0824963 -0.00198676 1.06763)
(-0.0683059 0.00676622 1.09928)
(-0.0805083 -0.0138961 1.03354)
(-0.0169662 -0.00841154 1.03303)
(-0.0641197 -0.0176513 1.12723)
(-0.0740801 -0.00366676 1.05269)
(-0.0565426 -0.0152078 1.13185)
(-0.0481741 -0.0118797 1.12524)
(-0.0117871 0.000191486 1.00773)
(-0.0152187 -0.00907494 1.00318)
(-0.00855499 0.0041836 1.00279)
(9.18965e-05 -0.00117341 1.00098)
(-0.0133797 -0.00149408 1.00518)
(-0.01394 -0.00218711 1.00202)
(-0.0113475 -0.00255287 1.00687)
(-0.0131112 -0.000644281 1.0035)
(-0.0493508 -0.0157328 1.15131)
(-0.0662319 -0.00278889 1.13375)
(-0.0345043 -0.00856877 1.03595)
(-0.0267505 -0.0169122 1.04272)
(-0.0531443 -0.0166933 1.16787)
(-0.0750192 -0.00393755 1.12651)
(-0.0286415 -0.00672903 1.03039)
(-0.0313337 -0.00600805 1.03126)
(-0.117529 0.0172242 1.11445)
(-0.0246477 -0.0224209 1.04158)
(-0.0634293 -0.0076676 1.10962)
(-0.107756 0.00871693 1.09729)
(-0.0619824 -0.0233764 1.16663)
(-0.0805468 -0.0262708 1.16132)
(-0.0978047 0.00139345 1.0985)
(-0.0691027 -0.0345243 1.16002)
(-0.0329931 -0.00108337 1.11598)
(-0.0348756 -0.00218601 1.03327)
(-0.0348987 -0.0122492 1.04169)
(-0.0298945 -0.00215129 1.02635)
(-0.033441 -0.00657578 1.0305)
(-0.0290803 -0.00624673 1.03017)
(-0.0298263 -0.00969267 1.03217)
(-0.0220636 -0.00326614 1.0324)
(-0.076342 -0.000257651 1.12678)
(-0.0270023 -0.00914297 1.03016)
(-0.0283167 -0.0200829 1.03648)
(-0.049358 -0.0249476 1.16037)
(-0.0755707 -0.0200234 1.12812)
(-0.0214027 -0.0103952 1.02974)
(-0.0616136 -0.0235731 1.16708)
(-0.0137692 -0.00545564 1.04188)
(0.0955944 -0.0885676 1.25703)
(0.0634808 -0.0364192 1.0659)
(0.102569 -0.0390531 1.16573)
(0.107771 -0.0591762 1.12383)
(0.0507004 -0.0686013 1.18601)
(0.0271844 -0.0668946 1.14176)
(0.0993758 -0.0556166 1.09018)
(0.0915713 -0.0474612 1.16012)
(0.0199748 -0.0117227 1.01692)
(0.00427328 -0.000810993 1.00196)
(0.0134126 0.00133691 1.01266)
(0.00937698 -0.00154315 1.00204)
(0.0133296 -0.00431846 1.0088)
(0.00892058 -0.00522604 1.0071)
(0.0131451 -0.000149177 1.01034)
(0.0120493 -0.00132532 1.00904)
(0.09341 -0.0177656 1.13839)
(0.0376142 0.00731897 1.0523)
(0.0904606 -0.0048392 1.13326)
(0.087271 0.00349886 1.08825)
(0.0676371 0.0242922 1.12213)
(0.028874 0.0252013 1.09489)
(0.0822276 -0.000203722 1.06104)
(0.0572454 0.00462826 1.11339)
(0.123916 -0.0350275 1.10581)
(0.0247714 -0.00075284 1.02123)
(0.105342 0.0139679 1.08089)
(0.103818 -0.00814403 1.14522)
(0.132533 -0.0031278 1.11931)
(0.0873102 -0.00406424 1.11389)
(0.0689592 -0.0134197 0.964635)
(0.105822 -0.000746672 1.10813)
(0.0476629 -0.0144985 1.05052)
(0.0964483 -0.00456904 1.15363)
(0.0930276 -0.0486425 1.11542)
(0.0301559 -0.00987225 1.02592)
(0.0416867 -0.0131834 1.04272)
(0.113751 -0.0283064 1.14364)
(0.0373458 -0.0156928 1.03036)
(0.0775301 -0.0277108 1.13058)
(0.0281274 -0.0198816 1.04601)
(0.029562 -0.00830409 1.03595)
(0.029938 -0.00292615 1.03233)
(0.0656161 -0.0138318 1.12881)
(0.0364157 -0.0156029 1.04649)
(0.0409302 -0.00859458 1.03348)
(0.0399033 -0.00838032 1.04531)
(0.0398973 0.00164402 1.04208)
(0.112324 -0.0123102 1.1056)
(0.116719 -0.0399516 1.07327)
(0.0316719 0.00637592 1.04236)
(0.108016 0.018979 1.04006)
(0.110199 -0.00947464 1.12888)
(0.109718 -0.0110271 1.13105)
(0.078105 -1.22734e-05 1.1209)
(0.0773552 -0.00606587 1.13449)
(0.0666525 -0.0153937 1.14297)
(0.0725971 0.0216396 1.09924)
(0.0393662 -0.00289716 1.03178)
(0.0418507 -0.0029101 1.03594)
(0.0790319 0.0137356 1.12252)
(0.0599273 0.00349688 1.11518)
(0.0384077 7.46058e-05 1.03685)
(0.0369522 0.00149304 1.03358)
(-0.0347638 -0.101916 1.26152)
(-0.0375426 -0.0472588 1.08339)
(-0.0371886 -0.0957434 1.15969)
(-0.0247148 -0.0970783 1.13814)
(-0.0310068 -0.0467176 1.22255)
(-0.0458193 -0.0180907 1.16544)
(-0.0264626 -0.0926856 1.10898)
(-0.0332513 -0.0825961 1.13868)
(-0.0111439 -0.00992697 1.01938)
(-0.000465593 -0.000893239 1.0015)
(0.00599102 -0.0098296 1.00474)
(-0.0022407 -0.00550089 1.00291)
(-0.000804508 -0.00666102 1.01229)
(-0.000906403 -0.00522725 1.00757)
(0.00197896 -0.0076614 1.00857)
(-0.000995756 -0.00886324 1.00331)
(-0.0148459 -0.0914822 1.11643)
(0.00674243 -0.0251813 1.03362)
(-0.0160029 -0.0923143 1.14026)
(0.00287484 -0.0797161 1.09051)
(0.0206434 -0.0649803 1.10993)
(0.00681577 -0.034549 1.10536)
(0.0122066 -0.0748091 1.08153)
(-0.0155535 -0.0558442 1.11618)
(-0.0210478 -0.119577 1.09972)
(0.00613051 -0.00717338 1.0141)
(0.00520131 -0.0910204 1.06758)
(-0.00833351 -0.104767 1.12552)
(0.00558177 -0.13362 1.10183)
(-0.0067626 -0.0912849 1.08186)
(-0.00734731 -0.108299 0.945117)
(-0.0151879 -0.090802 1.0584)
(-0.0107953 -0.0323007 1.05795)
(-0.00744769 -0.0778718 1.15094)
(-0.025945 -0.0839283 1.13635)
(-0.00232241 -0.0185314 1.01676)
(-0.0111881 -0.0310635 1.04189)
(-0.0290633 -0.0936162 1.13737)
(-0.00967815 -0.026189 1.02165)
(-0.0203048 -0.0769228 1.12415)
(-0.0139618 -0.0153474 1.05059)
(0.00810579 -0.0228908 1.03147)
(0.0126272 -0.0207889 1.04716)
(-0.0143998 -0.0525697 1.11732)
(-0.00456654 -0.022198 1.036)
(0.00220136 -0.0285574 1.03077)
(-6.58981e-05 -0.0317891 1.04217)
(0.0113487 -0.0312223 1.04353)
(-0.0125791 -0.104802 1.08486)
(-0.0277598 -0.117074 1.07155)
(0.0128641 -0.0198067 1.03741)
(0.0147907 -0.0896942 1.0509)
(-0.0112565 -0.102591 1.10633)
(-0.0171051 -0.101528 1.09284)
(-0.00321062 -0.078006 1.11026)
(-0.00774175 -0.0802685 1.09815)
(-0.0129148 -0.0689138 1.11557)
(0.00585247 -0.0590869 1.07543)
(0.0101436 -0.0282307 1.03492)
(0.00520416 -0.029441 1.03613)
(0.00224496 -0.0752465 1.10389)
(0.00219139 -0.0577212 1.09577)
(0.0116088 -0.0280872 1.04145)
(0.00589621 -0.0279142 1.0314)
(-0.07232 0.0411263 1.16835)
(-0.0475585 0.0539813 1.13731)
(-0.0216017 0.0549397 1.15314)
(-0.0364928 0.0531687 1.09924)
(-0.0631479 0.0528224 1.16206)
(-0.0111243 0.0498293 1.16367)
(-0.0398584 0.0384787 1.13211)
(-0.0156576 0.0506551 1.11862)
(-0.0324508 0.0478541 1.0407)
(-0.0207423 0.0339936 1.01123)
(-0.0186416 0.0434155 1.02838)
(-0.0242226 0.0360968 1.02849)
(-0.0262586 0.0381181 1.03546)
(-0.0239897 0.0308563 1.02819)
(-0.0239008 0.0355002 1.02944)
(-0.0212828 0.0338763 1.02183)
(0.00617765 0.0609216 1.10518)
(0.00567239 0.0394258 1.08873)
(0.0520753 0.0221809 1.0573)
(0.0422097 0.0285129 1.0396)
(-0.00179761 0.0670945 1.10372)
(0.0211766 0.0326102 1.10085)
(0.0255822 0.0207523 1.05503)
(0.0381303 0.0116788 1.04464)
(-0.0145272 0.0553679 1.087)
(-0.0265711 0.0459905 1.08409)
(0.0239753 0.0453796 1.04177)
(-0.00313028 0.0447662 1.05922)
(-0.0278494 0.0828056 1.09425)
(-0.0186112 0.0701308 1.07973)
(-0.00738409 0.046307 1.0535)
(0.00407782 0.0458365 1.05645)
(-0.0336084 0.0539408 1.12685)
(-0.0208562 0.0617421 1.13951)
(-0.0277775 0.0590127 1.1496)
(-0.0397261 0.0355444 1.10558)
(-0.0326253 0.0358882 1.1161)
(-0.0157916 0.0579348 1.12522)
(-0.0291423 0.0414353 1.11299)
(-0.020797 0.061596 1.12566)
(-0.0413499 0.0361852 1.10435)
(-0.0257141 0.0350587 1.10045)
(-0.0134825 0.0367885 1.10407)
(0.0143117 0.0434804 1.13905)
(-0.0359003 0.0335828 1.11097)
(-0.0323558 0.0375418 1.10995)
(-0.0206557 0.0273035 1.11071)
(-0.0139874 0.0281391 1.1092)
(-0.00228482 0.0396184 1.10007)
(-0.0208654 0.0496144 1.08741)
(-0.0214683 0.0432886 1.09096)
(0.0101325 0.0349086 1.05865)
(-0.00421252 0.0647345 1.07521)
(-0.00757793 0.0607167 1.07406)
(-0.0165354 0.0780029 1.09139)
(-0.0155717 0.067115 1.08294)
(0.0108508 0.0513975 1.08243)
(0.0284961 0.031867 1.04734)
(-0.0203687 0.0475432 1.09665)
(-0.00499348 0.046042 1.0957)
(-0.00285025 0.0560777 1.08343)
(0.00380166 0.0555204 1.09984)
(-0.0136521 0.0360326 1.09574)
(-0.0105032 0.0382063 1.09076)
(0.0574606 -0.0373188 1.13016)
(0.0309644 -0.0433916 1.1258)
(0.0157189 -0.0504149 1.13986)
(0.0291157 -0.0446569 1.0721)
(0.0490075 -0.0434132 1.12206)
(0.00138532 -0.0374774 1.13456)
(0.0284928 -0.0352934 1.10917)
(0.00686952 -0.0478171 1.1038)
(0.0253113 -0.0291124 1.06319)
(0.0183226 -0.0153164 1.02066)
(0.0134478 -0.0198621 1.05642)
(0.016882 -0.0194165 1.0544)
(0.0202506 -0.0260368 1.06273)
(0.0178023 -0.0166525 1.05929)
(0.0187642 -0.0221616 1.05733)
(0.0146594 -0.011767 1.05173)
(-0.00831729 -0.0440725 1.16833)
(0.0140193 -0.0317364 1.08954)
(-0.00752302 -0.0491108 1.12143)
(-0.0068884 -0.0361534 1.08838)
(0.00586859 -0.0342718 1.14399)
(0.00496237 -0.0153927 1.13685)
(-0.0193521 -0.0258879 1.11866)
(-0.00492938 -0.0527002 1.10823)
(0.0100452 -0.0524469 1.07854)
(0.0225899 -0.0346963 1.08724)
(0.000454966 -0.0475166 1.09132)
(0.00679227 -0.0418507 1.08015)
(0.0192594 -0.0682962 1.09093)
(0.00973708 -0.0566184 1.09624)
(0.00941695 -0.0420838 1.07406)
(0.00248088 -0.0501744 1.10491)
(0.0219453 -0.0422065 1.12624)
(0.0197018 -0.0544901 1.13236)
(0.0133939 -0.062692 1.12202)
(0.0315659 -0.0309852 1.1029)
(0.0234679 -0.0287132 1.11341)
(0.0094638 -0.0570271 1.10823)
(0.0215274 -0.0347583 1.10855)
(0.014556 -0.0570079 1.11352)
(0.0231175 -0.0258061 1.10845)
(0.0188344 -0.0290171 1.10155)
(0.014953 -0.023898 1.10948)
(-0.00463606 -0.0370857 1.14422)
(0.0243088 -0.0274436 1.10832)
(0.0237483 -0.0306435 1.10927)
(0.0148072 -0.0276574 1.109)
(0.0122443 -0.0283615 1.11065)
(0.00649427 -0.0327302 1.13022)
(0.0178485 -0.0412747 1.08457)
(0.0176271 -0.0345824 1.09143)
(-0.00869073 -0.0333434 1.1078)
(0.00750851 -0.0534367 1.09111)
(0.00795763 -0.0521011 1.0807)
(0.0100519 -0.0617883 1.12032)
(0.0107452 -0.0619021 1.10196)
(-0.00951968 -0.0405428 1.13136)
(0.000741489 -0.0478846 1.11906)
(0.0154386 -0.0310642 1.10165)
(0.0152238 -0.0277651 1.095)
(-0.00147645 -0.0405115 1.1372)
(-0.00283806 -0.0470975 1.13724)
(0.01714 -0.0314295 1.09929)
(0.013078 -0.031341 1.09865)
(0.0353633 0.0268519 0.999294)
(0.036413 0.0328886 1.04821)
(0.0380259 0.0256748 1.02298)
(0.039086 0.0217618 1.02218)
(0.0369382 0.0279209 1.02101)
(0.0346264 0.0287305 1.04034)
(0.0374076 0.0233685 1.01095)
(0.0360007 0.0260131 1.0241)
(0.0476444 0.0402572 1.14942)
(0.0158998 0.037141 1.27417)
(0.0658513 0.0300067 1.16629)
(0.051646 0.0278516 1.21414)
(0.0938384 0.019739 1.17695)
(0.0558447 0.0401971 1.24144)
(0.0636628 0.0192556 1.1607)
(0.0485315 0.0374011 1.19011)
(0.0468805 0.0272717 1.06877)
(0.0585279 0.0155163 1.14929)
(0.0414108 0.00235082 1.11745)
(0.0424456 -0.00913206 1.10538)
(0.0654228 0.0227006 1.14145)
(0.0805851 0.0300185 1.15887)
(0.0418054 0.00596976 1.11426)
(0.0430003 0.0091998 1.11136)
(0.0354872 0.00510976 1.06866)
(0.0517986 0.0214389 1.17686)
(0.0217554 -0.0146047 1.09989)
(0.0136098 -0.00672466 1.11954)
(0.0218647 -0.0119177 1.1715)
(0.0543816 0.0209663 1.17065)
(0.010332 -0.00935721 1.10945)
(0.0169801 -0.00112509 1.12167)
(0.0433344 0.0338332 1.09496)
(0.0361295 0.0254377 1.07841)
(0.0340112 0.019514 1.06298)
(0.0343479 -0.00686078 1.18674)
(0.0329551 0.0380132 1.09546)
(0.0370203 0.0311895 1.08929)
(0.0272183 0.0256107 1.09513)
(0.0317029 0.0133732 1.08054)
(0.0517564 0.0325751 1.1304)
(0.0564735 0.0287181 1.19351)
(0.0741881 0.0283455 1.22009)
(0.0381694 0.036234 1.08891)
(0.0401042 0.0352576 1.10592)
(0.066154 0.0205576 1.17624)
(0.0445146 0.0309699 1.10648)
(0.0706787 0.0173758 1.17252)
(0.0479496 0.0234634 1.06998)
(0.0387766 0.0163732 1.06069)
(0.0457469 0.00902578 1.1449)
(0.0310443 -0.00929112 1.11654)
(0.0368599 0.0185892 1.06697)
(0.0305778 0.0154702 1.06491)
(0.0513479 0.0116919 1.16323)
(0.0485929 0.0211523 1.15096)
(0.0449716 0.0263973 1.07584)
(0.0355448 0.0084955 1.12234)
(0.0341012 0.0199323 1.1618)
(0.0535435 0.0232593 1.14787)
(0.0633182 0.0250065 1.13953)
(0.073129 0.027532 1.15542)
(0.0547239 0.0153166 1.12202)
(0.0585532 0.0190778 1.12925)
(-0.0520121 0.106048 1.16016)
(-0.0355789 0.061802 1.1578)
(-0.0779762 0.025767 1.12668)
(-0.020622 0.00917419 1.1951)
(-0.0968977 0.071331 1.1847)
(-0.160451 0.108052 1.13058)
(0.00747332 -0.0157551 1.12845)
(-0.0807848 0.0140818 1.11732)
(-0.0308718 0.0324958 1.05509)
(-0.0277773 0.0290704 1.00575)
(-0.0447797 0.0307339 1.04135)
(-0.0358264 0.0226722 1.0329)
(-0.0261481 0.0300216 1.04863)
(-0.0233353 0.0311442 1.03715)
(-0.0490996 0.0299424 1.04854)
(-0.0329362 0.0263067 1.03556)
(-0.0640659 0.0468902 1.09168)
(-0.0492758 0.0276182 1.09446)
(-0.0460501 0.0498739 1.1259)
(-0.0513822 0.038969 1.08826)
(-0.0714383 0.0388856 1.1172)
(-0.0734172 0.039788 1.14179)
(-0.0681772 0.0414313 1.08371)
(-0.0769264 0.0378055 1.08701)
(-0.0305055 0.0120713 1.20985)
(-0.0264892 0.018529 1.08273)
(-0.0447774 0.0221042 1.0912)
(-0.00394767 -0.00805165 1.14215)
(-0.0646332 0.0404315 1.16483)
(-0.0804188 0.0556376 1.1363)
(-0.036385 0.00175193 1.07924)
(-0.0619774 0.00504621 1.09349)
(-0.0397371 0.0523029 1.14521)
(-0.0714939 0.0328143 1.13304)
(-0.0581989 0.0377459 1.1691)
(-0.0305647 0.0344996 1.10324)
(-0.0292087 0.0385353 1.11556)
(-0.0502696 0.0567658 1.14911)
(-0.0142049 0.0345895 1.1085)
(-0.0575568 0.0547909 1.1416)
(-0.0571008 0.0534129 1.13882)
(-0.0445957 0.0345975 1.09413)
(-0.0617796 0.0495565 1.10428)
(-0.065024 0.0421686 1.15153)
(-0.0332903 0.0419287 1.11706)
(-0.0404332 0.044524 1.09007)
(-0.0520519 0.0374781 1.13326)
(-0.0369321 0.0427493 1.11095)
(-0.07072 0.0315601 1.08475)
(-0.0419226 0.00620335 1.12454)
(-0.0272343 0.0285395 1.09906)
(-0.0636725 0.0275685 1.06973)
(-0.0575198 0.0317558 1.09372)
(-0.0544402 0.0151503 1.13228)
(-0.0655596 0.0318757 1.13941)
(-0.0438609 0.0535431 1.17992)
(-0.0741014 0.0348503 1.09759)
(-0.0718651 0.0264287 1.09973)
(-0.0375459 0.0274331 1.08607)
(-0.0439956 0.035694 1.09106)
(-0.0636205 0.0390649 1.15162)
(-0.0573404 0.037741 1.16145)
(-0.0307433 0.0242939 1.0903)
(-0.0437595 0.0309314 1.09648)
(0.0418266 -0.0904085 1.09267)
(0.025657 -0.0440976 1.15089)
(0.0697942 -0.044271 1.05586)
(0.0345572 -0.0396309 1.10843)
(0.0702934 -0.0657764 1.10529)
(0.0980733 -0.0838794 1.0647)
(0.0234996 -0.0213319 1.0553)
(0.0722862 -0.0363239 1.04857)
(0.0249123 -0.0254072 1.06893)
(0.0230118 -0.0148298 1.01504)
(0.0292127 -0.0154502 1.05174)
(0.0279951 -0.0168544 1.04774)
(0.0237733 -0.0232874 1.06168)
(0.02309 -0.0226905 1.06027)
(0.0319038 -0.014102 1.0492)
(0.0285145 -0.0215929 1.05038)
(0.0584621 -0.0637806 1.00584)
(0.0424936 -0.0157742 1.06707)
(0.0515007 -0.0448917 0.999768)
(0.0417327 -0.0517303 1.01921)
(0.0719356 -0.0526657 1.02118)
(0.0546655 -0.035221 1.04734)
(0.0620091 -0.0548843 0.989005)
(0.0695243 -0.0568125 1.01497)
(0.0369807 -0.0227938 1.11515)
(0.0360636 -0.0177464 1.05589)
(0.0363883 -0.0389471 1.02401)
(0.0140621 -0.00892169 1.0742)
(0.0651299 -0.0435252 1.06057)
(0.0659011 -0.0521517 1.03905)
(0.0419768 -0.0209311 1.02117)
(0.0557817 -0.0228131 1.028)
(0.0316987 -0.0329863 1.14477)
(0.0661458 -0.0537439 1.05316)
(0.063069 -0.0580519 1.07859)
(0.0320799 -0.0152638 1.08311)
(0.0236562 -0.024731 1.09272)
(0.0445849 -0.0773166 1.05777)
(0.0173564 -0.0175284 1.09214)
(0.0593309 -0.0774371 1.05201)
(0.045931 -0.0305229 1.1434)
(0.0391703 -0.0162014 1.08602)
(0.0401879 -0.0206796 1.10258)
(0.0468549 -0.0648201 1.06266)
(0.0344662 -0.0226958 1.1058)
(0.0334721 -0.016273 1.08533)
(0.0440929 -0.0268077 1.11003)
(0.035276 -0.0245516 1.09669)
(0.0683836 -0.0479098 1.01112)
(0.046559 -0.0214256 1.04282)
(0.0387056 -0.0204693 1.05611)
(0.0554931 -0.0404103 1.00126)
(0.056868 -0.0450561 1.02508)
(0.0562109 -0.0331739 1.04734)
(0.0629135 -0.0410728 1.04532)
(0.0514712 -0.0515606 1.05981)
(0.0671914 -0.0550735 1.02586)
(0.0645398 -0.0360644 1.02124)
(0.0386458 -0.0157926 1.06274)
(0.0397352 -0.0188972 1.07145)
(0.0506353 -0.0416385 1.05696)
(0.0624597 -0.0374517 1.05317)
(0.0379653 -0.016905 1.05513)
(0.0442012 -0.0181195 1.06366)
(0.0302892 0.0347083 0.998897)
(0.0239735 0.0379943 1.04709)
(0.0247822 0.0285731 1.0199)
(0.0339967 0.0329838 1.03094)
(0.0263899 0.015751 1.0383)
(0.0250056 0.033215 1.02873)
(0.0262298 0.0303815 1.02709)
(0.0263036 0.0473603 1.02502)
(0.0624206 0.0282119 1.15673)
(0.0689388 0.00872147 1.18539)
(0.0219152 0.0413252 1.25731)
(0.0388796 0.0822355 1.16366)
(0.0899207 0.113629 1.11476)
(0.0672147 0.0586342 1.20257)
(0.022953 0.0854519 1.14977)
(0.0155752 0.00869151 1.19207)
(0.0221595 0.0178847 1.11148)
(0.0179299 0.0331694 1.17975)
(0.0210644 -0.0152869 1.0654)
(0.0337696 0.0347473 1.08785)
(0.068036 0.105969 1.11464)
(0.0492135 0.0625381 1.13607)
(0.0281124 0.0443073 1.03882)
(0.0208899 -0.0188643 1.04378)
(0.0222674 0.0569128 1.08941)
(0.0557201 0.070637 1.08901)
(0.0474817 0.0509194 1.13133)
(0.0466418 0.056078 1.11239)
(0.0422159 0.0770214 1.12413)
(0.0372538 0.0814154 1.11272)
(0.0441696 0.0790824 1.11821)
(0.0434951 0.0709094 1.10243)
(0.0396396 0.0242347 1.13075)
(0.0198101 0.0483549 1.09521)
(0.0287866 0.0505345 1.08597)
(0.0638032 0.0583232 1.17598)
(0.04058 0.0125678 1.11516)
(0.0332517 0.0296947 1.08458)
(0.0339463 0.0416373 1.13587)
(0.0348043 0.0255144 1.11208)
(0.0443117 0.0254722 1.13383)
(0.0480678 0.0797274 1.15673)
(0.0441529 0.0728102 1.17482)
(0.0179044 0.0316163 1.09869)
(0.0257799 0.0337654 1.12905)
(0.0690782 0.0550666 1.16019)
(0.0282416 0.0151932 1.11374)
(0.0659866 0.0769743 1.15493)
(0.0193077 0.035217 1.09494)
(0.0353541 0.0453375 1.0959)
(0.0422485 0.0796279 1.10937)
(0.0339465 0.0701233 1.09175)
(0.0294876 0.0542617 1.11262)
(0.0238017 0.0340061 1.10189)
(0.0365118 0.0829263 1.15043)
(0.0399994 0.0736932 1.14424)
(0.0294025 0.0189796 1.12066)
(0.0318947 0.0600391 1.07956)
(0.0348061 0.0786981 1.08625)
(0.00273268 0.0444405 1.10373)
(0.0585256 0.0749291 1.15371)
(0.0406417 0.0824781 1.11908)
(0.013118 0.0626711 1.11821)
(0.0286411 0.0657152 1.09)
(0.000680392 0.0102181 1.00925)
(-0.00883596 0.00380154 1.04584)
(-0.0166848 -0.00210853 1.04845)
(-0.0255354 0.00587684 1.06687)
(0.0219221 -0.000320369 1.05889)
(-0.0131992 0.000364542 1.0217)
(-0.0315109 -0.0279158 1.14795)
(-0.0442636 -0.0230668 1.13963)
(-0.0399799 0.000973421 1.06659)
(-0.0840299 -0.0226873 1.08456)
(-0.026438 -0.0167015 1.09478)
(-0.024466 0.00640415 1.0375)
(-0.0399655 -0.0157525 1.07096)
(-0.0807916 -0.00478585 1.05651)
(-0.0202065 -0.0243398 1.12766)
(-0.0739804 -0.00636069 1.1285)
(-0.0132675 -0.00709194 1.08625)
(-0.0233635 -0.0155548 1.10834)
(-0.0206009 0.00364537 1.09818)
(-0.025634 -0.00310548 1.04528)
(-0.00642626 -0.00731042 1.11001)
(-0.0199627 -0.0115675 1.08301)
(-0.0248451 -0.00643924 1.12729)
(-0.0274773 -0.0104814 1.11735)
(-0.011683 0.00389845 1.0145)
(-0.00368767 0.00344126 1.00481)
(-0.0139494 -0.00153388 1.01019)
(-0.00191355 0.00138519 1.00095)
(-0.00579388 0.00271898 1.01073)
(-0.00970774 0.00396123 1.01186)
(-0.00600365 -0.000369216 1.00268)
(-0.00627697 -0.000502683 1.00204)
(-0.00392186 0.00532681 1.05239)
(-0.00133729 -0.0126123 1.08929)
(-0.0152354 0.0084036 1.05966)
(-0.022028 0.00482185 1.05376)
(-0.0407095 -0.0306398 1.13735)
(-0.0490487 -0.0277607 1.14865)
(-0.0152001 0.00651071 1.052)
(-0.023227 0.0027778 1.06644)
(-0.0328645 0.00604337 1.05159)
(-0.0244012 0.00542583 1.04902)
(-0.0204973 -0.0152524 1.05672)
(-0.0279522 -0.0106385 1.03303)
(-0.0599363 -0.0255316 1.14316)
(-0.0684241 -0.0391487 1.15758)
(-0.0255039 -0.00875926 1.06871)
(-0.0155373 0.00320803 1.08274)
(-0.00567347 -0.000307723 1.13485)
(-0.0217051 -0.00321349 1.04999)
(-0.0183214 -0.00459863 1.03299)
(-0.0141392 0.000780614 1.04551)
(-0.0222598 0.0044501 1.06181)
(-0.0249252 -0.00441232 1.04671)
(-0.0200447 0.00382478 1.05125)
(-0.0280784 -0.00420055 1.04485)
(-0.00834851 0.000465391 1.12486)
(-0.0176806 0.00268468 1.03961)
(-0.0295415 0.000387553 1.03497)
(-0.0227143 -0.00256053 1.12768)
(-0.0101364 0.00175813 1.12808)
(-0.0272347 0.00100559 1.05898)
(-0.0260617 0.00994951 1.1324)
(-0.0282565 0.00181261 1.04865)
(0.00193358 0.000745724 1.00177)
(0.0142228 -0.00417618 1.00806)
(0.0169211 -0.00050388 1.01175)
(0.0149566 -0.000300627 1.01126)
(0.00828371 0.00457156 1.00273)
(0.0131418 -0.000203876 1.00571)
(0.015534 -0.000346084 1.01023)
(0.0220188 -0.00957702 1.01785)
(0.0280479 0.000122699 1.03154)
(0.0552054 -0.0284252 1.06558)
(0.0359093 -0.00594303 1.05671)
(0.00710375 0.0105724 1.11498)
(0.0218318 0.0131826 1.09666)
(0.0357081 -0.00973268 1.10499)
(0.0136149 -0.00793983 1.10417)
(0.033864 -0.0119261 1.10225)
(0.0219561 0.000863167 1.05469)
(0.023392 -0.00973016 1.08735)
(0.0532253 0.0253001 1.05609)
(0.0451009 0.012777 1.09486)
(0.0349205 0.00446569 1.19065)
(0.0166932 0.00364594 1.15741)
(0.0363095 0.0124691 1.13748)
(0.0224848 0.0194634 1.01648)
(0.00725896 0.00609911 1.05602)
(-0.077603 0.0147166 0.96651)
(0.0436277 -0.0030841 1.06562)
(0.0374447 -0.011725 1.03343)
(-0.0097831 -0.0218429 1.10118)
(0.00154828 -0.0232013 1.10801)
(0.0162076 -0.00242085 1.09864)
(0.0179996 -0.0342914 1.02871)
(0.0204811 0.0110893 1.03259)
(0.0164067 0.00891436 1.02649)
(0.0145937 0.0111984 1.02951)
(0.00460945 0.0250017 1.07628)