/*--------------------------------*- C++ -*----------------------------------*\
| =========                 |                                                 |
| \\      /  F ield         | OpenFOAM: The Open Source CFD Toolbox           |
|  \\    /   O peration     | Version:  2506                                  |
|   \\  /    A nd           | Website:  www.openfoam.com                      |
|    \\/     M anipulation  |                                                 |
\*---------------------------------------------------------------------------*/
FoamFile
{
    version     2.0;
    format      ascii;
    arch        "LSB;label=32;scalar=64";
    class       volVectorField;
    location    "400";
    object      U;
}
// * * * * * * * * * * * * * * * * * * * * * * * * * * * * * * * * * * * * * //

dimensions      [0 1 -1 0 0 0 0];

internalField   nonuniform List<vector> 
49664
(
(-0.129653 0.0834944 1.90481)
(-0.129964 0.021865 1.88461)
(-0.266342 -0.0381867 1.69465)
(-0.109366 -0.00442886 1.6773)
(-0.141272 0.0496143 1.9556)
(-0.136076 0.0254198 1.9078)
(-0.27546 -0.0336619 1.78706)
(-0.251531 -0.000758072 1.79976)
(-0.116285 -0.00535548 1.82047)
(-0.0716228 -0.0647703 1.69001)
(-0.12814 0.0646774 1.70218)
(-0.16098 0.00562314 1.73178)
(-0.129844 -0.0099147 1.77772)
(-0.142963 0.0111771 1.80883)
(-0.195592 -0.0181923 1.7756)
(-0.202491 -0.0110229 1.75644)
(-0.122339 -0.00288136 1.35533)
(-0.128187 0.0195612 1.40577)
(-0.060903 -0.0159968 1.22213)
(-0.0805961 0.008283 1.20046)
(-0.0917727 -0.00667508 1.31795)
(-0.082923 0.0352368 1.34001)
(-0.0761333 0.00398493 1.2055)
(-0.0379379 0.0023742 1.2048)
(-0.0508977 0.0162024 1.27852)
(-0.0748752 0.0297774 1.31275)
(-0.0793921 -0.00512576 1.18634)
(-0.0628339 0.0557732 1.19351)
(-0.0452201 0.0233966 1.262)
(-0.0378413 0.0320918 1.24287)
(-0.0764272 0.047222 1.2267)
(-0.0671434 0.0318451 1.21082)
(-0.140271 0.0196303 1.86852)
(-0.243866 -0.0404646 1.66651)
(-0.100592 -0.0147694 1.69459)
(-0.124376 0.00154751 1.6972)
(-0.191144 -0.0171286 1.8309)
(-0.256196 -0.031561 1.73936)
(-0.14165 -0.0072331 1.72657)
(-0.125844 -0.0296883 1.65684)
(-0.149126 0.00969701 1.88694)
(-0.148576 0.00071718 1.70921)
(-0.145016 0.0331514 1.66881)
(-0.213107 0.0390169 1.68946)
(-0.234515 -0.0686721 1.78441)
(-0.207739 -0.0208524 1.74031)
(-0.187633 0.0470645 1.68204)
(-0.151233 0.0595115 1.6129)
(-0.166812 -0.0106657 1.41374)
(-0.123654 0.00676935 1.37774)
(-0.147077 -0.0151342 1.47611)
(-0.108198 0.00924222 1.19747)
(-0.158314 0.00323496 1.36364)
(-0.145401 -0.00226159 1.41109)
(-0.119788 0.00244721 1.36328)
(-0.127062 -0.00418683 1.36485)
(-0.142509 0.00647758 1.48302)
(-0.0796602 0.0157454 1.19963)
(-0.130685 -0.00932612 1.42552)
(-0.110619 0.00600348 1.44454)
(-0.126285 0.000905779 1.42004)
(-0.139778 0.0284516 1.364)
(-0.113525 -0.00700769 1.4808)
(-0.127371 0.01387 1.40051)
(-0.522429 -0.159276 2.12363)
(-0.334465 -0.0493571 2.06881)
(-0.351705 0.0884987 1.62039)
(-0.26418 -0.0681801 1.58069)
(-0.423638 -0.0698564 2.03196)
(-0.518915 -0.146499 2.1434)
(-0.521815 -0.0670476 1.86171)
(-0.588058 -0.106287 1.81938)
(-0.208113 0.0529666 1.99679)
(-0.131682 0.103715 1.97993)
(-0.373296 -0.0837483 1.87089)
(-0.000261353 0.00822438 1.60718)
(-0.151224 0.0923005 1.97287)
(-0.174861 0.0374534 1.92917)
(-0.301223 -0.0619506 1.83136)
(-0.330286 -0.0653465 1.80457)
(-0.153825 0.0228706 1.35125)
(-0.0879074 -0.00147962 1.27529)
(-0.0545667 -0.00651681 1.21336)
(-0.0818168 0.0130718 1.19584)
(-0.115461 0.00612741 1.2842)
(-0.139204 0.00845979 1.36533)
(-0.0773778 -0.00080506 1.18884)
(-0.0681279 0.00168208 1.19594)
(-0.126411 -0.00659373 1.26989)
(-0.0478 0.0374232 1.24754)
(-0.0733449 -0.00150642 1.17338)
(-0.0540626 0.0536613 1.18399)
(-0.085916 0.0295504 1.26185)
(-0.11215 0.00731735 1.2975)
(-0.0716404 0.0440925 1.19545)
(-0.0674734 0.0411429 1.19939)
(-0.255655 0.0221632 2.02025)
(-0.339671 0.0626407 1.58389)
(-0.262183 -0.0598592 1.58524)
(-0.113931 -0.0305375 1.62313)
(-0.395375 -0.0628917 1.85065)
(-0.47183 -0.0738337 1.91255)
(-0.216966 -0.0507561 1.56242)
(-0.224359 -0.0125395 1.62843)
(-0.305402 -0.0112355 2.03519)
(-0.224505 -0.0458558 1.64137)
(-0.269823 0.0196649 1.65451)
(-0.409344 0.00941115 1.75987)
(-0.381562 -0.0980317 1.83736)
(-0.437356 -0.109543 1.86562)
(-0.269067 0.0478862 1.58583)
(-0.370956 -0.0604419 1.77843)
(-0.12063 -0.0210691 1.29132)
(-0.165399 0.000968606 1.33677)
(-0.130759 0.0255026 1.34713)
(-0.101647 0.00258437 1.18354)
(-0.155208 -0.010157 1.32802)
(-0.179958 0.0219088 1.35919)
(-0.15692 0.00467042 1.33681)
(-0.176178 0.0202352 1.36993)
(-0.124973 -0.0289216 1.32007)
(-0.095033 0.00631142 1.19044)
(-0.139933 0.0107687 1.35646)
(-0.126113 -0.00234516 1.41808)
(-0.112301 -0.0150493 1.35598)
(-0.152039 0.00723362 1.3521)
(-0.176981 -0.0210111 1.35794)
(-0.141964 0.0116542 1.34426)
(0.129081 -0.0219698 1.81442)
(0.157803 0.0503648 1.86904)
(0.314542 0.0504321 1.64496)
(0.219971 0.027043 1.59983)
(0.0950867 0.0147996 1.82694)
(0.162197 0.0273345 1.83914)
(0.184344 0.0129832 1.79194)
(0.197503 0.0077584 1.76332)
(0.13242 0.114931 1.79163)
(0.0700001 0.17055 1.5874)
(0.229026 0.079628 1.73544)
(0.202216 0.0427378 1.69402)
(0.130888 0.117083 1.76013)
(0.117806 0.105226 1.72561)
(0.240788 0.0586406 1.76828)
(0.271069 0.0832718 1.75178)
(0.214449 -0.0399801 1.38858)
(0.196524 -0.0657352 1.46823)
(0.0533119 -0.152834 1.29552)
(0.160262 -0.0649363 1.22436)
(0.20164 -0.052926 1.3899)
(0.127303 -0.0688558 1.33632)
(0.197236 -0.0927113 1.25749)
(0.0872564 -0.190651 1.28408)
(0.174602 -0.0100206 1.28614)
(0.174311 0.00306541 1.39855)
(0.142528 -0.0488809 1.22027)
(0.125442 -0.050813 1.17417)
(0.157915 -0.0140985 1.32559)
(0.156355 -0.00896568 1.30883)
(0.119296 -0.02702 1.27178)
(0.0828647 -0.0770102 1.27011)
(0.161422 0.0719611 1.85332)
(0.309027 0.060282 1.65605)
(0.171785 0.0411542 1.6383)
(0.160051 0.0395952 1.64764)
(0.220037 0.00980808 1.76261)
(0.243797 0.0135022 1.72785)
(0.184883 0.039522 1.66598)
(0.164192 0.0441411 1.62419)
(0.178996 0.0751709 1.84505)
(0.178502 0.0474896 1.65797)
(0.246397 0.0783648 1.74296)
(0.290296 0.0933052 1.6894)
(0.244552 0.0330534 1.73001)
(0.266266 0.0542597 1.73777)
(0.256787 0.0620905 1.72088)
(0.246862 0.0947881 1.70055)
(0.251215 0.101 1.54327)
(0.165226 0.0297014 1.51432)
(0.175365 0.0021935 1.57445)
(0.174509 -0.041421 1.25519)
(0.231982 0.0462941 1.32661)
(0.185163 -0.033533 1.57523)
(0.164156 0.0212211 1.28423)
(0.165223 -0.00627328 1.46865)
(0.238818 -0.0196887 1.6151)
(0.112195 -0.0819868 1.25838)
(0.179214 0.0039615 1.50922)
(0.213257 0.00777624 1.57821)
(0.199124 0.015504 1.52344)
(0.177093 -0.0152222 1.27076)
(0.219576 0.0318311 1.64369)
(0.216171 0.0222189 1.39946)
(0.138142 -0.0625946 1.81567)
(0.317772 0.0453215 1.66019)
(0.100422 -0.0674027 1.97191)
(0.222155 0.0219035 1.58539)
(0.211677 0.0114386 1.78073)
(0.310182 0.0790256 1.93882)
(0.13569 -0.0921371 1.71014)
(0.27222 0.00492306 1.84875)
(0.241448 -0.0486638 1.42364)
(0.0779496 -0.188608 1.28759)
(0.267544 -0.0286328 1.46321)
(0.122257 -0.095977 1.2052)
(0.190831 -0.121699 1.32789)
(0.188745 -0.117014 1.44289)
(0.283519 -0.0424523 1.30044)
(0.188426 -0.0938232 1.38744)
(0.252181 0.00592361 2.19066)
(0.466618 0.0387038 1.79721)
(0.590303 0.174143 2.13785)
(0.32491 0.0561348 1.46972)
(0.528484 0.163331 1.99048)
(0.520774 0.156336 2.09063)
(0.382463 0.00876219 1.7925)
(0.572317 0.104628 1.96211)
(0.121239 -0.0723328 1.23495)
(0.120626 -0.0715563 1.20305)
(0.18178 -0.0218536 1.30557)
(0.0906833 -0.0909708 1.16233)
(0.14964 -0.0408287 1.26008)
(0.212716 -0.036299 1.2508)
(0.119241 -0.0642418 1.26554)
(0.1845 -0.0500853 1.24641)
(0.342165 0.0161083 1.58603)
(0.308784 0.0342689 1.90925)
(0.260391 -0.00649148 1.54864)
(0.180939 -0.0534934 1.26574)
(0.358444 0.0361289 1.58061)
(0.42439 0.0951749 1.74252)
(0.172943 -0.0867748 1.20098)
(0.376068 0.0333781 1.4619)
(0.335349 0.0759079 1.63884)
(0.209311 -0.0456647 1.24197)
(0.385656 -0.00267286 1.73504)
(0.426182 0.17871 1.99226)
(0.344001 0.0112991 1.61255)
(0.31431 -0.0375602 1.26352)
(0.405414 0.10548 1.95103)
(0.397211 -0.0167697 1.58987)
(0.167681 -0.0818396 1.76623)
(0.17209 0.00150791 1.60146)
(0.218864 -0.0909374 1.2325)
(0.301282 0.0150627 1.61455)
(0.300487 0.0967442 1.70278)
(0.279223 0.0108779 1.49687)
(0.27537 -0.00486422 1.48444)
(0.296643 -0.0779375 1.30384)
(0.397363 0.105563 1.92446)
(0.294491 -0.0124295 1.37911)
(0.187526 -0.0837025 1.22626)
(0.39557 -0.0376931 1.66002)
(0.53761 0.20383 1.61411)
(0.302422 -0.00622687 1.31462)
(0.40102 0.0455777 1.55766)
(0.203406 -0.0771101 1.25602)
(-0.740381 0.548252 0.542044)
(0.183982 -0.922024 1.97497)
(0.0308423 -0.810951 2.24695)
(0.760912 -0.311982 2.19407)
(0.189943 -0.382177 1.50275)
(0.0346795 -0.249183 1.5402)
(0.839709 -0.069697 2.05153)
(0.526588 -0.710424 2.33388)
(0.339035 -0.606435 2.21597)
(0.41982 -0.0600413 2.63255)
(1.11956 -0.657961 2.59678)
(0.705046 -0.370715 1.93884)
(0.472025 -0.469954 2.37081)
(0.285019 -0.562046 2.33352)
(0.938519 -0.525712 2.19136)
(0.895066 -0.666152 2.41366)
(0.418409 -0.942082 2.49015)
(1.54297 -1.16327 3.02234)
(1.50361 -0.400372 3.15209)
(1.29147 -1.23651 2.63582)
(1.35254 -0.611317 2.80062)
(1.28577 -1.01588 2.74734)
(0.875754 -0.758886 2.84197)
(1.31008 -0.793879 3.00142)
(0.477527 -0.429584 1.95459)
(0.29598 -0.159124 1.33277)
(0.917613 -1.06051 1.96299)
(0.682754 -0.618167 1.80395)
(0.576917 -0.474835 1.58457)
(0.416876 -0.369592 1.75857)
(0.673435 -0.759518 1.76756)
(0.693522 -0.772761 1.69922)
(0.35455 -0.508721 2.01467)
(0.84763 -0.69962 2.34534)
(0.857544 -0.683526 2.27608)
(0.781879 -0.533846 2.12854)
(0.739756 -0.825617 2.40371)
(1.54471 -0.296833 2.33372)
(0.515687 -0.846254 2.13714)
(0.945181 -0.35604 2.25154)
(0.357027 -0.871495 2.07359)
(0.694583 -0.833248 2.08524)
(1.13792 -0.907021 2.48765)
(0.837164 -0.95736 2.24915)
(1.09141 -0.588413 2.43694)
(0.895305 -0.8055 2.45462)
(1.08739 -0.969404 2.53902)
(1.1563 -0.855723 2.56348)
(1.12792 -0.748145 2.59109)
(0.69429 -0.820121 2.33097)
(0.491139 -0.483342 1.82426)
(0.871469 -0.907576 2.50618)
(1.04632 -0.793121 2.65467)
(0.944253 -0.733348 2.25733)
(1.05232 -0.817662 2.29332)
(0.643468 -0.658272 2.14342)
(1.12204 -0.906402 2.72097)
(0.98497 -0.980136 2.2828)
(0.700017 -0.615807 1.89713)
(1.37259 -0.961692 2.6545)
(1.76646 -0.835189 3.01958)
(1.09972 -0.71681 2.49991)
(1.19178 -1.03935 2.60818)
(0.578676 -0.644731 1.8854)
(-0.0726536 -0.169073 2.28514)
(0.173161 -1.02449 2.18065)
(0.532734 -0.754894 2.25886)
(0.838953 -0.674649 2.31284)
(0.30754 -0.560041 2.53659)
(0.233992 -0.798368 1.74771)
(0.42874 -0.593219 2.40969)
(0.415927 -0.761538 1.93888)
(0.518707 -0.998247 2.51108)
(1.26369 -0.514527 3.0709)
(0.782 -0.258127 3.02883)
(0.882937 -0.22005 2.76328)
(1.25534 -0.597003 3.0755)
(1.16467 -0.635495 3.35649)
(1.01236 -0.379704 3.22713)
(0.776182 -0.436772 3.24098)
(0.79854 -0.323017 2.82695)
(0.859656 -0.0983601 2.87337)
(0.650358 0.0393564 2.68382)
(0.510027 -0.230831 2.24537)
(0.869076 -0.248301 2.99517)
(0.816915 -0.106005 2.92189)
(0.856846 -0.164352 2.88776)
(0.829102 -0.157238 2.80849)
(0.722184 -0.679515 1.75271)
(0.768623 -0.214568 2.10703)
(0.536443 -0.240152 1.61063)
(0.325462 -0.149054 1.34127)
(0.787347 -0.79625 1.7798)
(1.11925 -0.337832 1.00828)
(0.711313 -0.712326 1.41948)
(0.715307 -0.126758 1.46598)
(0.834134 -0.944562 2.80709)
(0.901793 -0.847282 2.69733)
(0.793873 -0.818703 2.44283)
(0.959071 -0.855759 2.32448)
(0.862938 -0.914792 2.65718)
(0.959396 -0.71196 2.62546)
(1.13607 -0.847488 2.47665)
(1.14761 -0.855416 2.48832)
(0.623783 -0.796511 2.06952)
(1.16832 -0.425539 2.07679)
(0.817816 -0.127884 3.05107)
(0.688441 -0.746949 2.76787)
(0.846787 -0.793311 2.58932)
(0.952955 -0.614016 3.09978)
(0.763518 -0.741212 2.61065)
(0.881065 -0.41599 3.11859)
(0.973413 -0.542076 2.89494)
(0.860239 -0.80295 2.32872)
(0.72151 -0.558061 2.69149)
(0.44803 -0.0107261 2.26989)
(0.869928 -0.580204 2.37759)
(0.97373 -0.762784 2.39906)
(0.52866 -0.163268 2.52186)
(0.679245 -0.364749 2.15408)
(0.736741 -0.601553 2.66851)
(0.469506 -0.245671 2.28045)
(0.63585 -0.0194624 2.30606)
(0.842152 -0.0966806 2.90405)
(0.890619 -0.327182 2.91748)
(0.405332 -0.159554 2.48614)
(0.932488 -0.385113 2.99524)
(0.498113 -0.24716 2.29001)
(-0.0149997 -0.0126329 1.18714)
(-0.0582332 0.00460715 1.17123)
(-0.0233371 0.0122317 1.22465)
(-0.00808067 -0.0329343 1.14726)
(-0.0243607 -0.00794381 1.16642)
(-0.0385694 0.0153683 1.20303)
(-0.024793 -0.00559165 1.16655)
(-0.030406 0.00219074 1.19782)
(-0.0584451 0.0169955 1.15017)
(-0.0408229 0.0421953 1.1459)
(-0.0326926 0.0417084 1.181)
(-0.0325132 0.0232717 1.10058)
(-0.0462572 0.0190256 1.13376)
(-0.0389975 0.0391493 1.16025)
(-0.0450818 0.0192506 1.13566)
(-0.0438728 0.0385746 1.16222)
(-0.034629 0.0170951 1.24454)
(-0.0244172 0.0367451 1.21561)
(-0.0263084 0.0344945 1.24827)
(-0.0210384 0.0218247 1.1667)
(-0.0274362 0.0246534 1.22091)
(-0.0247065 0.0336393 1.22392)
(-0.0253564 0.0313805 1.22333)
(-0.0248231 0.0313974 1.2394)
(0.000850793 -0.0355453 1.11606)
(-0.0149468 0.00138373 1.08757)
(-0.0128126 -0.00340921 1.12281)
(0.00324642 -0.0271918 1.08811)
(-0.00239176 -0.014806 1.09908)
(-0.00932543 -0.00130349 1.11051)
(-0.00286404 -0.0259374 1.11048)
(-0.00573919 -0.00216603 1.12005)
(-0.0444204 0.0058276 1.14809)
(-0.0300642 0.0113708 1.19951)
(-0.0121779 -0.0114549 1.12889)
(-0.0237739 0.00528821 1.10964)
(-0.0401256 0.00932483 1.15306)
(-0.0305272 0.011496 1.17399)
(-0.03107 0.00127663 1.12052)
(-0.0198909 -0.000622051 1.1473)
(-0.0496567 0.0134687 1.17678)
(-0.0291724 0.0228577 1.12956)
(-0.0305244 0.0391978 1.19542)
(-0.036508 0.0157889 1.2233)
(-0.0492379 0.0182181 1.1792)
(-0.0433658 0.0232182 1.16409)
(-0.0387738 0.0149117 1.19593)
(-0.0346717 0.0240139 1.17845)
(-0.0170907 0.0230285 1.19361)
(-0.0109904 -0.0191506 1.13092)
(-0.0241962 0.00871877 1.11441)
(-0.0151302 0.00477557 1.15866)
(-0.0163834 -0.00613373 1.17296)
(-0.0198817 0.000554755 1.15237)
(-0.0147514 0.0110682 1.15448)
(-0.0178673 0.00793684 1.13102)
(-0.029955 0.0169891 1.21475)
(-0.020519 0.0210539 1.16498)
(-0.0284921 0.0190968 1.13643)
(-0.0335276 0.038215 1.1976)
(-0.0233129 0.0273617 1.19667)
(-0.0233201 0.0205347 1.15813)
(-0.0338237 0.0262967 1.18667)
(-0.0305902 0.0195995 1.14501)
(0.126917 0.0236753 1.33612)
(0.0930464 -0.0185844 1.25069)
(0.0952257 -0.0372716 1.28159)
(0.087034 -0.0259532 1.20303)
(0.0986489 0.0101863 1.28715)
(0.108874 0.00741603 1.29437)
(0.0904705 -0.0305991 1.25418)
(0.0937891 -0.0129915 1.24502)
(0.031794 -0.0734281 1.20327)
(-0.0296443 -0.0867671 1.16958)
(0.0920306 -0.0545506 1.17986)
(0.0272693 -0.0189117 1.12275)
(0.0404799 -0.0808985 1.19024)
(0.0348978 -0.0735152 1.18083)
(0.0608428 -0.0615003 1.16699)
(0.0701919 -0.0653242 1.17147)
(0.0941839 -0.0493782 1.21453)
(0.0958943 -0.0498621 1.14928)
(0.0901666 -0.0752656 1.16125)
(0.0852949 -0.056765 1.11322)
(0.0964121 -0.0571502 1.16694)
(0.0915357 -0.0317492 1.19452)
(0.0953227 -0.106616 1.13385)
(0.101484 -0.0680012 1.12242)
(0.0557718 -0.0268257 1.11361)
(0.0328198 -0.00896235 1.08774)
(0.062786 -0.0324362 1.08736)
(0.0330812 -0.0112917 1.07367)
(0.0470718 -0.0225899 1.10029)
(0.0419413 -0.0151429 1.10373)
(0.0553673 -0.0381916 1.08475)
(0.0517998 -0.028994 1.08112)
(0.0743561 -0.0350468 1.21841)
(0.0935832 -0.0312971 1.22217)
(0.0766206 -0.0273954 1.16588)
(0.0506153 -0.0269449 1.14877)
(0.0694653 -0.0329607 1.22332)
(0.0891558 -0.0216165 1.2196)
(0.0578892 -0.0301159 1.17118)
(0.0707275 -0.024781 1.18184)
(0.0719701 -0.034386 1.21706)
(0.0486288 -0.020389 1.16023)
(0.103251 -0.0284965 1.21737)
(0.0940886 -0.0280529 1.26979)
(0.0817234 -0.0326993 1.20998)
(0.0836891 -0.0528387 1.20221)
(0.0986505 -0.0237381 1.22463)
(0.0823863 -0.0458176 1.19224)
(0.0844204 -0.0663915 1.16288)
(0.0754336 -0.0483766 1.13658)
(0.047933 -0.0458551 1.10322)
(0.0720307 -0.0577859 1.09959)
(0.087399 -0.0525883 1.17019)
(0.0718118 -0.0377333 1.13601)
(0.0701689 -0.0409184 1.12634)
(0.0536097 -0.0403949 1.1128)
(0.0950991 -0.0531613 1.1765)
(0.0788931 -0.0472048 1.097)
(0.0531484 -0.0358078 1.0976)
(0.0831444 -0.0516009 1.12826)
(0.0853209 -0.068507 1.16328)
(0.0661976 -0.0452465 1.1505)
(0.0761872 -0.0745956 1.14816)
(0.0532863 -0.0378001 1.11392)
(0.811876 0.470745 2.22906)
(0.699269 0.79195 1.77826)
(1.21191 0.362365 2.61457)
(1.21895 1.57426 3.10687)
(0.977051 0.853033 2.43494)
(0.933195 0.74691 1.76913)
(1.56396 1.08966 2.81516)
(1.23474 1.0263 2.62942)
(0.145827 0.82526 1.45353)
(0.298004 0.635612 1.90438)
(1.27596 1.40558 1.84258)
(1.413 0.499244 2.23864)
(0.678052 0.900311 2.06206)
(0.472172 0.477964 1.91028)
(1.11976 1.5732 1.77529)
(1.12272 1.31519 1.60273)
(1.07469 -0.0657936 2.33424)
(0.957478 0.516837 2.8835)
(1.26927 0.529519 1.9748)
(0.303845 1.67944 2.93573)
(1.25798 0.776439 2.45562)
(1.28587 0.692871 2.23113)
(0.983777 0.606737 2.2001)
(1.06732 0.644432 2.22209)
(-0.219503 4.17693 12.6942)
(1.72521 1.51772 7.64594)
(0.457368 1.40237 5.66046)
(-2.06335 -3.84576 1.78395)
(1.20028 1.78884 7.98564)
(1.0853 3.15256 9.72715)
(0.332075 -0.775576 4.65526)
(1.60006 1.95 7.65733)
(0.962469 1.09032 2.16445)
(1.41844 0.960483 2.57085)
(1.07525 1.71856 2.18489)
(1.24676 0.68941 2.53493)
(1.47091 1.40456 2.05577)
(1.62274 1.42492 2.10691)
(1.75679 0.82514 2.59923)
(0.915096 1.21787 0.944363)
(0.990078 0.608694 2.12999)
(-0.0536294 -1.15339 0.956288)
(1.18502 1.46624 1.72594)
(1.45172 1.04723 2.2562)
(1.21602 1.28415 2.0241)
(1.65223 1.51703 1.2913)
(1.16573 0.64148 2.8362)
(1.28078 1.16332 2.09924)
(1.05837 0.622636 2.64802)
(0.88169 2.31733 6.03634)
(1.79846 1.48345 6.08887)
(0.376548 1.01318 3.92001)
(-0.398842 1.89796 1.29696)
(-0.166422 1.46344 2.88551)
(-0.298769 1.83065 3.48207)
(0.364659 2.45178 6.51775)
(1.33453 0.910742 2.41646)
(0.457734 2.10183 3.5962)
(0.75472 0.51331 4.99065)
(1.00532 0.657356 2.74715)
(1.58597 1.52922 2.50839)
(-0.00913349 2.78807 3.04899)
(1.1666 0.631965 2.95797)
(0.300202 1.06698 4.55753)
(0.453034 0.274215 2.86332)
(0.34382 0.51728 2.51862)
(0.910338 0.917293 2.7331)
(0.672771 0.403699 2.18648)
(0.440557 0.168905 2.55981)
(0.649469 0.466329 2.77161)
(0.758638 0.625214 2.29646)
(0.856758 0.79333 2.42663)
(0.297795 0.76405 2.17319)
(0.384542 0.858693 1.77106)
(0.527559 0.967193 1.80872)
(1.05139 0.695711 2.65939)
(0.542971 0.857954 2.55071)
(0.706998 0.991755 2.27315)
(1.00476 1.18918 2.78861)
(0.941702 0.864401 2.33344)
(1.32778 1.2776 2.80465)
(0.970814 1.10784 2.03581)
(0.941938 0.794197 2.44921)
(1.01821 1.73973 2.45671)
(1.33252 1.32157 3.05122)
(1.49026 1.28951 2.95178)
(1.60402 1.41928 3.03271)
(1.29674 1.05053 2.23277)
(2.02476 -0.411113 4.41695)
(3.32922 -1.66974 0.721686)
(1.42839 -1.93786 1.12539)
(0.19285 -1.37217 2.35358)
(1.00938 -0.975978 1.34736)
(4.59933 -1.29024 6.94182)
(1.91562 -2.92641 5.63504)
(4.23395 -2.12049 1.54915)
(0.424592 0.499908 2.42435)
(1.06809 0.826381 2.68098)
(0.802861 0.248987 2.38256)
(0.736338 0.290069 2.52449)
(0.980698 1.03166 2.62029)
(0.857532 0.753236 2.44755)
(0.885103 0.576292 2.6038)
(0.690262 0.27836 2.37044)
(0.846619 0.85087 2.62639)
(0.923853 0.278106 2.31931)
(1.04909 1.09697 2.55043)
(1.45183 1.06768 2.81686)
(0.964915 0.966223 2.44632)
(0.972194 1.01006 2.53682)
(0.795712 1.12859 2.67733)
(0.945992 1.11765 2.76946)
(1.35871 1.02982 2.70457)
(0.549618 0.301791 2.58383)
(0.943803 -0.319351 1.50965)
(1.26424 -0.89271 0.560505)
(1.29567 0.682946 3.29412)
(0.719259 0.582239 2.38528)
(1.68705 0.263926 3.15088)
(1.52491 0.383401 2.95717)
(1.34435 1.14169 2.67643)
(1.32294 1.51209 1.61529)
(1.14681 0.398702 2.85389)
(1.30781 0.983257 2.49727)
(1.28345 1.15295 2.75027)
(1.53202 0.493295 2.59743)
(1.439 1.36568 2.98311)
(1.75739 0.920806 2.99914)
(0.0364774 -0.0320691 1.00533)
(0.0926748 -0.0699968 1.03137)
(0.0773954 -0.057259 1.02675)
(0.0714045 -0.0641459 1.02651)
(0.0525109 -0.041679 1.01439)
(0.0642889 -0.0555826 1.02451)
(0.0627555 -0.0486139 1.02031)
(0.0716663 -0.0627126 1.03355)
(0.157256 -0.134801 1.08295)
(0.235831 -0.196385 1.17901)
(0.196651 -0.16069 1.16458)
(0.182266 -0.153694 1.13288)
(0.17749 -0.147556 1.10912)
(0.198645 -0.165309 1.15664)
(0.178235 -0.14726 1.12729)
(0.181602 -0.155272 1.17237)
(0.116467 -0.0810134 1.0637)
(0.170154 -0.125771 1.12539)
(0.130536 -0.108416 1.12598)
(0.126471 -0.0966411 1.11813)
(0.127769 -0.0888851 1.08724)
(0.151511 -0.115804 1.10823)
(0.124417 -0.0974952 1.10666)
(0.134407 -0.104632 1.13485)
(0.0921665 -0.0751983 1.0642)
(0.137148 -0.112463 1.11597)
(0.11842 -0.0912337 1.11166)
(0.109287 -0.0770984 1.10519)
(0.108739 -0.0772728 1.08171)
(0.12266 -0.0994436 1.09805)
(0.109521 -0.0811598 1.09421)
(0.112815 -0.0900289 1.11591)
(0.111434 -0.0840703 1.04675)
(0.0921833 -0.0663546 1.04107)
(0.083878 -0.0638366 1.04439)
(0.137052 -0.107661 1.08229)
(0.117211 -0.0894018 1.05275)
(0.0871073 -0.0701344 1.04081)
(0.11514 -0.0964613 1.07196)
(0.103159 -0.0833775 1.0574)
(0.119448 -0.107355 1.0753)
(0.156454 -0.136354 1.11681)
(0.166048 -0.133096 1.12613)
(0.10461 -0.0834547 1.0556)
(0.12251 -0.110319 1.08542)
(0.137083 -0.118561 1.09799)
(0.129936 -0.0969928 1.06962)
(0.148721 -0.116273 1.09553)
(0.0970556 -0.0713985 1.05008)
(0.0917254 -0.0678974 1.05199)
(0.142984 -0.114574 1.11371)
(0.116725 -0.088065 1.09854)
(0.103485 -0.073603 1.06509)
(0.100201 -0.0854435 1.06729)
(0.117783 -0.0835138 1.08483)
(0.110153 -0.0910668 1.08517)
(0.108058 -0.0863228 1.065)
(0.121814 -0.0987712 1.12258)
(0.148444 -0.125316 1.12802)
(0.158067 -0.133322 1.13889)
(0.118586 -0.0937062 1.08449)
(0.131009 -0.105479 1.09858)
(0.151703 -0.116977 1.10564)
(0.153775 -0.12673 1.12616)
(0.610575 -0.436959 2.15282)
(0.546492 -0.196351 1.80969)
(0.243019 -0.286688 2.0372)
(0.543839 -0.0893713 1.69361)
(0.473836 -0.260024 1.81342)
(0.454181 -0.241959 1.96354)
(0.443196 -0.23967 1.78363)
(0.477322 -0.230194 1.87192)
(0.356224 -0.189184 1.45655)
(0.278565 -0.260259 1.32191)
(0.16437 -0.14646 1.14734)
(0.204825 -0.157489 1.17163)
(0.27175 -0.193714 1.30297)
(0.256696 -0.181064 1.46289)
(0.300924 -0.179865 1.14549)
(0.260419 -0.16436 1.29341)
(0.135011 -0.292119 1.82995)
(0.293254 -0.184592 1.49146)
(0.224867 -0.138056 1.72936)
(0.331164 -0.162395 1.68182)
(0.307956 -0.160723 1.737)
(0.398469 -0.233693 1.76278)
(0.18556 -0.111819 1.62339)
(0.259531 -0.166839 1.69157)
(0.239644 -0.100384 1.29461)
(0.182552 -0.166556 1.15966)
(0.142643 -0.0424148 1.30941)
(0.138622 -0.0924078 1.18155)
(0.225964 -0.11813 1.2377)
(0.263396 -0.140134 1.26921)
(0.191114 -0.0798708 1.28492)
(0.187852 -0.0940582 1.26871)
(0.347909 -0.154693 1.42992)
(0.37751 -0.236877 1.84309)
(0.40078 -0.126206 1.3964)
(0.292751 -0.139553 1.20664)
(0.441188 -0.220636 1.49517)
(0.571524 -0.208424 1.60259)
(0.382967 -0.0964318 1.26508)
(0.375676 -0.0943752 1.4515)
(0.312179 -0.124063 1.57602)
(0.296188 -0.177154 1.23747)
(0.293799 -0.247586 1.55027)
(0.397747 -0.309806 1.93092)
(0.371532 -0.103982 1.46856)
(0.340168 -0.0888718 1.16651)
(0.395623 -0.25651 1.83011)
(0.345089 -0.121803 1.50967)
(0.258234 -0.127905 1.60763)
(0.382193 -0.165665 1.51947)
(0.317853 -0.0904955 1.27393)
(0.259515 -0.13055 1.62272)
(0.420923 -0.2279 1.62772)
(0.391021 -0.0773791 1.51423)
(0.390207 -0.123827 1.53416)
(0.352113 -0.00897973 1.35239)
(0.324029 -0.177699 1.78538)
(0.314724 -0.114086 1.58382)
(0.267475 -0.108676 1.26947)
(0.399774 -0.122501 1.52081)
(0.512072 -0.0946862 1.62595)
(0.486462 -0.147621 1.45936)
(0.470206 -0.0811765 1.46968)
(0.29022 -0.106506 1.29736)
(-0.170152 0.118513 3.5847)
(-0.40765 -0.176467 3.52345)
(-0.0761424 -0.000994817 3.17725)
(0.357327 0.354368 2.55642)
(-0.31084 -0.246994 3.46931)
(-0.353737 -0.160661 3.82819)
(0.0306815 -0.0648177 2.99021)
(-0.163448 -0.0925471 3.386)
(-0.149216 -0.0508851 3.23944)
(-0.104756 -0.046729 3.32771)
(-0.12895 -0.264219 3.16027)
(-0.0477761 -0.112957 2.21022)
(-0.165456 -0.186243 3.07356)
(-0.0286987 -0.126972 3.07638)
(-0.158683 -0.347619 2.8787)
(-0.146258 -0.235464 2.88991)
(-0.123716 0.0725832 2.67398)
(0.025221 -0.0812937 3.04777)
(0.0674883 0.0885812 2.28295)
(0.0376168 -0.0371705 2.06461)
(-0.015449 0.00503493 2.93905)
(0.0269301 0.00103967 3.07716)
(0.0296417 0.0358806 2.27072)
(0.0115868 0.0344867 2.61139)
(0.0906156 -0.230258 2.34244)
(0.0119327 -0.0569412 1.6455)
(0.0435666 0.0616137 1.4444)
(-0.0813761 0.038484 1.17634)
(0.104055 -0.0632993 1.58977)
(0.286547 -0.0534869 1.83264)
(-0.161528 -0.0468451 1.41936)
(-0.00588283 -0.0548707 1.49797)
(-0.283135 -0.323196 3.23342)
(-0.0563771 -0.0665371 3.32657)
(-0.0730599 -0.00781469 2.30767)
(-0.120392 -0.140671 2.19868)
(-0.0324237 -0.178222 3.12989)
(-0.0223848 -0.0456812 3.37133)
(-0.204117 -0.0722365 2.19601)
(0.121856 0.239534 2.52203)
(-0.257051 -0.325603 3.32435)
(-0.183423 -0.0938317 2.26547)
(-0.0703831 -0.157688 3.57042)
(0.0106238 0.136807 3.40366)
(-0.216117 -0.290685 3.22053)
(-0.200619 -0.436734 2.80208)
(0.0633764 0.0185148 3.69579)
(-0.148901 -0.1281 3.20545)
(0.009648 -0.140205 2.79606)
(0.0465922 -0.338643 2.02244)
(0.0740294 -0.0837701 2.07719)
(0.0933292 0.10619 1.88136)
(0.112207 -0.158216 2.1577)
(0.0517457 -0.0759891 2.24164)
(0.0742725 -0.0506713 2.21632)
(0.151704 0.0140908 2.19467)
(-0.0436122 -0.0245095 3.03057)
(0.138943 0.0392042 2.00641)
(0.0287324 -0.0471142 2.16745)
(-0.0142846 -0.134508 3.09885)
(0.0783679 -0.0862782 3.12909)
(0.169736 -0.140641 2.3267)
(0.0863283 -0.143028 2.73975)
(0.0545676 -0.0727518 2.25551)
(-0.108173 0.456555 3.3116)
(-0.107038 0.0261412 3.10508)
(-0.404732 -0.111009 2.87018)
(-0.224732 -0.17798 2.01244)
(0.17404 0.380396 2.98741)
(-0.242958 -0.211092 3.3465)
(-0.272826 -0.737563 2.77274)
(-0.443723 -0.570823 2.59597)
(-0.0574568 0.0360378 2.96157)
(-0.132166 0.119387 2.84603)
(-0.153344 -0.103017 3.1902)
(-0.0556225 -0.148814 2.29157)
(-0.0445579 -0.0693977 2.69542)
(-0.145942 -0.132718 3.27373)
(-0.161847 -0.292585 2.98199)
(-0.17941 -0.192885 2.90496)
(-0.638096 -0.469655 3.10617)
(-0.33736 -0.285883 3.38666)
(-0.525665 -0.49082 4.20894)
(-0.366497 -0.575373 2.74574)
(-0.590738 -0.482418 3.00766)
(-0.498553 -0.470632 3.221)
(-0.129383 -0.795773 2.97981)
(-0.466134 -0.663376 3.59992)
(0.0989045 0.219524 1.42242)
(-0.118643 0.00870312 1.5506)
(0.583011 0.294946 1.04382)
(-0.27909 -0.0880344 1.51852)
(-0.0714873 -0.11719 1.61805)
(-0.0810289 0.02792 1.54493)
(-0.269208 -0.339292 1.87374)
(0.0831563 0.0892291 1.05461)
(0.0479835 0.112516 3.05905)
(-0.30969 -0.100646 2.56095)
(-0.20045 -0.092232 1.93191)
(0.0236352 -0.0160584 2.06911)
(-0.331294 -0.513618 2.7276)
(-0.174873 -0.349189 2.50593)
(-0.0927382 -0.157658 2.09011)
(0.0142401 0.0197497 1.80359)
(-0.173421 -0.251475 2.85592)
(-0.0428496 -0.162232 1.98589)
(-0.291992 -0.0585657 3.09983)
(-0.292195 -0.239067 2.69326)
(-0.338035 -0.329217 2.63027)
(-0.209969 -0.386489 2.71301)
(-0.210647 -0.159466 3.06674)
(-0.10742 -0.214542 3.039)
(-0.0300609 -0.286903 2.41013)
(0.0970661 0.111527 1.61808)
(0.00775512 -0.060675 1.95394)
(0.165167 0.113102 1.48894)
(-0.185761 -0.222598 2.11746)
(-0.0112852 -0.116031 1.8637)
(-0.0621168 -0.0550875 1.94972)
(-0.070856 -0.105973 1.93524)
(-0.206943 -0.438879 2.75959)
(-0.220402 -0.323843 2.28967)
(-0.122566 -0.223441 2.08583)
(-0.302338 -0.376673 2.96058)
(-0.307805 -0.511461 2.81071)
(-0.099746 -0.0617061 1.93845)
(-0.323703 -0.526788 3.07028)
(-0.219972 -0.327916 2.34982)
(0.267381 -0.26168 1.14787)
(0.23322 -0.239477 1.32639)
(0.310057 -0.205672 1.76168)
(0.398105 -0.20446 1.59796)
(0.303962 -0.22461 1.20232)
(0.24878 -0.251575 1.19518)
(0.389607 -0.167489 1.59755)
(0.392619 -0.185392 1.5726)
(0.183304 -0.30733 1.53235)
(0.122128 -0.204056 1.73588)
(0.37542 -0.19518 1.55272)
(0.329081 -0.191949 1.65225)
(0.231766 -0.282075 1.67526)
(0.180392 -0.235492 1.60476)
(0.310365 -0.14327 1.63215)
(0.323209 -0.168743 1.63016)
(0.272853 -0.259523 1.37463)
(0.260718 -0.223018 1.31995)
(0.241066 -0.270046 1.32132)
(0.213035 -0.181519 1.22686)
(0.228063 -0.265619 1.34046)
(0.225586 -0.23346 1.35412)
(0.211991 -0.217228 1.30557)
(0.255882 -0.197483 1.30018)
(0.264543 -0.145506 1.41597)
(0.228351 -0.0993179 1.32441)
(0.205871 -0.159199 1.17556)
(0.156226 -0.0991045 1.18607)
(0.230104 -0.136127 1.38472)
(0.248569 -0.109316 1.3875)
(0.177564 -0.145665 1.25586)
(0.20928 -0.116084 1.23152)
(0.255037 -0.25407 1.46424)
(0.309307 -0.253709 1.63847)
(0.351626 -0.203056 1.63085)
(0.303857 -0.198919 1.64386)
(0.395463 -0.174266 1.54105)
(0.377215 -0.187092 1.56425)
(0.361991 -0.182527 1.63254)
(0.382625 -0.194567 1.57696)
(0.240526 -0.260222 1.44418)
(0.359849 -0.16161 1.63315)
(0.334084 -0.203003 1.60198)
(0.281822 -0.19783 1.6933)
(0.348561 -0.155013 1.6181)
(0.366155 -0.161737 1.5571)
(0.307918 -0.21712 1.63381)
(0.343122 -0.223556 1.57585)
(0.279548 -0.164136 1.4945)
(0.277134 -0.119364 1.53198)
(0.28568 -0.12051 1.52366)
(0.220573 -0.158626 1.26917)
(0.330935 -0.172931 1.38636)
(0.315742 -0.135157 1.51716)
(0.333858 -0.180456 1.38082)
(0.297617 -0.133301 1.5267)
(0.316615 -0.17082 1.49941)
(0.259207 -0.137463 1.23621)
(0.291773 -0.116635 1.46779)
(0.331119 -0.138946 1.47392)
(0.313873 -0.153902 1.49193)
(0.299655 -0.162169 1.37373)
(0.352198 -0.122802 1.47645)
(0.34099 -0.157391 1.34883)
(-0.0639719 0.333182 2.63666)
(-0.313322 0.941062 2.71092)
(-0.688318 1.18248 2.17222)
(-0.822349 0.597878 2.34868)
(-0.320701 0.93185 3.10593)
(-0.232857 1.26287 1.9674)
(-0.380578 0.971755 2.77068)
(-0.564388 1.16773 2.17977)
(-1.043 0.728924 2.859)
(-1.16171 0.435078 3.18606)
(-0.834096 0.337689 3.12532)
(-0.704521 0.109354 2.75223)
(-1.10941 0.594929 3.0858)
(-1.07543 0.497812 3.2852)
(-0.834763 0.484452 3.25243)
(-0.769642 0.464912 3.2763)
(-0.819116 0.620552 3.03105)
(-0.862289 0.266873 3.00248)
(-0.712637 0.0991793 2.8221)
(-0.480705 -0.129544 2.0327)
(-0.918486 0.397341 3.07535)
(-0.884973 0.278896 2.95441)
(-0.861125 0.257499 3.064)
(-0.85488 0.199346 2.95094)
(-0.495339 0.492697 1.59636)
(-0.615196 0.0585782 1.9713)
(-0.433718 0.00797112 1.53581)
(-0.33612 0.0914114 1.29725)
(-0.64757 0.623021 1.57518)
(-0.983141 0.172353 0.788757)
(-0.560182 0.453539 1.33402)
(-0.569746 -0.0593705 1.28507)
(-1.10339 0.814474 3.0298)
(-1.106 0.878888 2.98137)