/*--------------------------------*- C++ -*----------------------------------*\
| =========                 |                                                 |
| \\      /  F ield         | OpenFOAM: The Open Source CFD Toolbox           |
|  \\    /   O peration     | Version:  2506                                  |
|   \\  /    A nd           | Website:  www.openfoam.com                      |
|    \\/     M anipulation  |                                                 |
\*---------------------------------------------------------------------------*/
FoamFile
{
    version     2.0;
    format      ascii;
    arch        "LSB;label=32;scalar=64";
    class       volScalarField;
    location    "2000";
    object      p;
}
// * * * * * * * * * * * * * * * * * * * * * * * * * * * * * * * * * * * * * //

dimensions      [0 2 -2 0 0 0 0];

internalField   nonuniform List<scalar> 
54912
(
19875.6
8583.58
19229.9
48443.1
11138.3
8042.39
37652.8
11245.9
32185.6
67439.1
68258.7
54717.1
36302.1
75644.1
36177.1
95336
13029.6
52414.4
-38269.5
-55096.7
26175
74500.5
-22607.1
-13217.2
40414.4
8664.71
-30195.9
-5437.28
33261.2
42547
-6595.38
35986.1
3899.15
24665.4
33998.4
19605.6
2283.86
10032.6
13480.4
22247.7
33308.4
54935
55812.3
21014.7
59803.2
71915.4
30628.2
28467.1
14748.3
47561.7
27920.2
10199.8
10745.8
17038.6
24080.9
14100.3
15077
85100
74274.9
76507.3
19208.7
103135
14042.9
46758.9
182544
182071
368292
24710.2
62341.2
354138
313345
472702
236222
226066
279998
274322
270707
255939
243695
236650
423773
281730
316501
324375
337972
305822
332699
315342
-10154.5
116371
217650
-1996.81
163844
224791
200424
244865
282625
316778
131874
236101
290555
352291
199491
259478
299315
269522
295470
365663
286197
230095
330782
296204
328467
235763
244493
312961
340745
313300
320051
305688
362855
306529
274743
318153
303365
295814
293478
224579
286139
191411
271469
196200
216981
248949
200792
194780
229660
245600
209251
178108
211430
227018
186727
192714
188071
115803
55081.5
87111.6
158430
154964
119295
98095.4
149886
94867.5
104782
59911.8
99259.7
104988
81239.7
96178.5
220662
185013
180595
181766
216053
134832
172273
181919
244008
174785
199854
191062
216714
179333
186721
189265
139765
187077
123642
128923
175417
195361
148048
127557
127668
112015
131560
157542
151538
151972
165836
163874
168803
197730
110816
208232
184474
184106
181796
162003
174031
193138
46141.8
196790
159088
156134
175284
89371.5
57481
-49220.3
-140719
-10507.3
5391.52
-60720.8
-11877.5
-61511.3
229924
234860
124688
251834
261333
206000
229620
226562
204127
120923
215715
200299
200335
182309
226752
203692
190506
177519
16009.8
106294
165116
158276
103833
64581.8
100641
206498
219626
116286
136755
208753
121285
197235
98170.1
108452
230454
41691.1
75900.1
76303.5
78635.1
85380.2
106528
33775.5
45814.5
45667.8
44646.1
55716.5
58474.8
48229.3
6819.96
3520.34
-5251.95
3704.64
11985.1
6618.22
15393.4
-2551.53
19346.3
-14227.6
17846.7
4290.85
16581.2
9672.25
15753.6
18463.1
19726.5
2128.19
3104.95
12080.6
7791.75
21032.7
15476.8
16719.4
15861.9
45412.5
18473
8297.04
29157.1
36374.8
6462.5
48420.4
49416.2
24591.1
20480
45225.4
33428.1
31091
27833.8
14106.4
44686.4
19515.4
19458.9
34570.6
40751
36624.6
24694.9
24066
39201.2
35846.1
23286.3
10449.8
41126.3
34092.9
26839.7
13049.4
186048
247601
171936
312506
235796
241904
253102
249872
228111
146165
105568
178541
216966
152842
184500
119317
30053.9
30208.9
-130595
184865
115395
23182.5
122984
48664.8
334607
253270
241359
267544
301619
282103
289937
270010
249408
216769
288604
262042
248542
252226
273515
286044
235064
215116
113877
162876
235279
198966
180572
188462
218253
293531
240192
227413
225259
300368
242861
258646
171752
164405
193522
89345.6
168322
176874
161590
187623
1.86587e+06
-990976
450364
231495
-1.5847e+06
-1.18063e+06
122714
1.29266e+06
-819120
156739
-1.23355e+06
798017
694230
707119
625037
725083
1.56463e+06
-497281
1.73184e+06
750597
1.20871e+06
1.9578e+06
2.15256e+06
2.60196e+06
313310
45185.3
725286
415170
283326
521747
586997
900551
702513
998467
361563
746392
1.88093e+06
412394
-30079
501402
1.47374e+06
652359
1.38205e+06
692657
1.60684e+06
553046
1.12469e+06
927248
1.81348e+06
1.18636e+06
451557
1.35425e+06
1.09857e+06
1.28279e+06
975978
315321
1.77805e+06
1.13937e+06
707374
1.41058e+06
619818
809613
1.40255e+06
301481
-858478
-1.19476e+06
-138133
-471843
637869
1.02462e+06
-2.37358e+06
-717805
-1.70852e+06
1.74193e+07
1.35337e+07
-1.81494e+06
6.49245e+06
4.5613e+06
-3.52435e+06
5.12182e+06
1.18645e+06
4.79542e+06
165325
3.14071e+06
805668
562803
2783.17
497598
-1.62584e+06
-675782
-1.28095e+06
257327
-5.47607e+06
-5.88688e+06
-757476
-1.50493e+06
2.91013e+06
-90541.7
5.61318e+06
1.49452e+06
-1.50879e+06
292905
-3.07497e+06
2.36172e+06
1.04578e+06
1.15007e+06
-1.27443e+06
383593
-645764
2.26762e+06
-2.32595e+06
-126083
1.76035e+06
4.57517e+06
1.95119e+06
-831165
1.55479e+06
2.54391e+06
3.28227e+06
3.60685e+06
2.42661e+06
1.98957e+06
952917
-637089
628032
2.53488e+06
-1.42829e+06
1.46477e+06
161625
189617
124856
69128.5
137991
175914
97446.9
116397
185297
204078
113259
114753
199138
198317
165248
100960
62979.2
30100.8
-38240.4
35510.2
59658.7
39658.6
27960.6
1031.72
29709.5
30811.9
30239
24159.2
28854.3
22658.1
21671.1
27903.5
181847
121914
57532.3
81219.5
132046
98195.9
82520.4
67173.6
186286
94503.1
110585
116554
155869
130010
127086
133203
70617
42948.3
57900
36244.1
54363.1
61305.4
45438.8
47856.3
64165.2
38170.8
80253.5
53246.1
55838.1
55084.3
82242.5
68481
-42335.2
219272
68300
49466.9
79512.9
119812
53908.4
110259
233837
230810
206015
127721
154525
223170
117879
171790
96202.5
177897
133851
78557.4
129014
152455
109818
139259
30320.6
37512.2
30565.5
24620.1
32562.1
30333.2
31735.8
28700
122513
112285
66789.6
58307.5
85674.1
99564.1
79101.8
70947.7
182075
100524
209999
131998
152540
133579
176686
155492
91897.9
58972.4
32269.9
50618.7
69515.6
62465.1
61059.1
45491
124167
73800.3
73849.8
177145
115667
93429
124831
83743.3
264404
180143
254820
238856
201446
209460
256796
231962
141914
27704.1
165790
95050.8
118761
132516
108085
126545
289833
214693
269250
255228
269739
295610
252184
243826
312246
182425
260177
216593
258028
247329
288749
267845
157442
223520
271769
210757
204504
237905
243900
244493
153239
222434
209254
214251
178170
187809
220703
219751
277824
238541
192301
297772
306593
242557
258706
206805
255935
267521
196003
204298
274291
260137
205997
200238
194181
179593
276964
309281
277720
230935
256748
259208
273292
256196
278077
280688
243748
251438
230881
299470
327304
309475
297513
308485
323355
333365
288164
366284
315097
321055
284422
255539
302310
326599
301150
328903
264803
313037
296016
283192
245655
267198
260211
286882
284399
290835
303545
280516
284578
260033
277896
269177
276384
303172
284331
264775
325976
324392
315734
302179
293922
322197
287320
324327
285896
308445
271071
289776
-120989
-707196
83503.6
3874.99
-120619
-460393
-86452.1
100878
599869
1.47654e+06
-791237
745721
114529
1.55041e+06
768816
2.01369e+06
3.22095e+06
2.91586e+06
5.66668e+06
1.71938e+06
-1.79028e+06
-300753
-3.2486e+06
129034
114326
326166
216380
114231
7078.85
147711
501784
385184
500017
-1.09784e+06
85785.6
339400
-51447
-40182
237124
188921
-89424
297379
-2.0443e+06
466637
-956015
923722
2.03998e+06
-420775
-128799
25146.1
691686
1.21654e+06
1.17486e+06
-395197
542703
795167
-1.79724e+06
1.23887e+06
1.27097e+06
1.95477e+06
-804520
1.32371e+06
-1.57329e+06
1.84796e+06
963199
671452
-1.06023e+06
932036
551161
531220
319440
1.09239e+06
630183
639563
35098.5
221863
445809
558654
-6309.68
41661.3
3.81318e+06
-543199
1.41946e+06
-1.0224e+06
2.87996e+06
3.99836e+06
998338
956893
260658
-29013.7
-316993
140907
-29914.3
-68506.8
525337
604326
249795
678986
326386
111168
438613
922236
545382
567458
383805
120631
1.58733e+06
301966
334977
968.215
882794
648522
2.57067e+06
889890
322759
1.11968e+06
1.244e+06
1.03269e+06
864141
-94517.4
2.08825e+06
1.74268e+06
269016
121705
1.65497e+06
1.61685e+06
-101840
-1.38792e+06
5967.79
20224.9
18173.4
22181.2
19653.4
11412.7
16809.9
15940.2
89819.7
97673.1
66955.3
67918.9
93035
98870.1
58789.5
65673.9
40060.6
20133.9
36780.5
48170.7
28890.9
30468.6
20983.9
25049.9
18274.6
79808.4
63520.6
83127
61514.6
55850.7
86749.8
80364.9
48364.1
26613
34642.6
60761.2
39068.8
16797.3
34893.2
34347.4
38437
65880.2
40804.3
27262.4
37867.8
50598.2
1777.85
36147.4
20040.4
28435.6
55677.2
47868.2
16392.2
34044.1
29212.9
33318.3
26161.4
44640.8
58576.3
29279.8
12636
20749.4
25836.8
47672.8
22733.7
46516.7
39823.7
77542.7
51096.5
47328.1
73678
56570.7
68225.1
62936.4
61915.5
83921.7
103781
50035.3
63385.6
66229.9
27248.6
31955.8
10124.4
29778.1
26531
29823.8
18825.6
5445.59
94608.9
97830.9
39241.7
88880
90093.1
100759
110966
82842.7
84303.8
40196
83238.3
111511
60444.6
57384.8
79113.8
73837
68976.5
77498.4
56263.4
58632.8
55527.5
61143.4
58359.8
62202.1
17353.7
103916
93677.3
31814.4
55856.3
84319.6
67678.7
85705.5
16379.4
29082.8
84458.1
18134.8
27407.5
43916.8
27690.3
46095.6
-212446
-17287
186264
128511
-96638.2
255955
168405
345593
184390
229088
229360
207786
157585
278796
245387
249199
227298
234990
287207
209749
213502
230815
223793
229912
217263
190302
223113
170689
215056
209768
223304
226897
49228.7
242502
179795
191041
202036
310230
145908
237840
269339
223730
244335
234229
268862
271933
265955
261083
205747
210228
194795
233808
227080
275866
252690
245124
203059
228657
250411
234672
229970
242505
248831
239581
102255
89509.1
126175
138870
224251
114018
261388
217695
168017
200735
224591
252997
319911
263003
420523
324391
194550
244153
215700
167217
239744
238442
249174
254068
67757.1
51865.3
70360.5
-25295.6
26712.4
40025.2
43938.5
41374.7
339306
225962
126030
187673
358579
278315
210886
199257
228393
199894
241871
261956
303240
275532
251055
293300
187257
84782.6
160701
139735
141425
137280
151263
144331
252328
150030
205602
292847
286723
190139
289065
217691
11493.1
45414.1
34146.4
12867
30874
39492.2
23777.8
36242.1
31127.6
-3402.78
27749.9
12685.3
38085.4
17874.4
37843.8
24522.1
40123.4
43717.6
42986.5
23555.2
40949.5
49300.2
38784.4
46701.1
1617.73
-1376.63
7275.27
3264.93
1082.74
5425.24
-2491.81
1377.97
51737.4
44866
13461.1
20373
45055
39380
21373.3
21871.9
42887.3
27564.1
43605.9
45349
48766.8
46097.4
42129.3
49591.9
31767.4
9200.78
16196.5
13211.2
15123.3
16217.1
18504
16097.6
39590.3
19070.2
18549.6
42100
44813.8
26793.4
42215.8
25085.6
259834
214314
213240
198904
238305
228663
221099
219109
212554
210903
193833
158715
203066
186705
195885
220810
188228
200219
204664
159321
267795
254243
268479
256239
146226
108181
129092
121319
135245
116959
136005
110006
178654
176110
176723
142018
165022
177877
165738
173866
193547
151419
231128
187203
178629
181392
191973
226654
168532
165561
137939
143012
175733
166263
144709
136697
153897
149254
137264
226364
190548
171849
229125
164699
421514
214876
153285
364655
244967
268074
242231
269398
16017
-49817.1
-60813.2
18440.6
36920.3
-45978.4
143326
45915.1
-318779
-514759
-929103
258445
83608.5
-372632
138120
-75163.5
31821.5
-66189.5
40688.3
-6461.51
-126294
-93623.9
-120616
-88583.7
167512
254853
192048
55741.9
205464
239087
136805
187490
97653.7
64902
-55823.5
52512.9
143122
181791
64571.1
73573.9
285289
239596
72257.5
49338.8
128416
222509
111943
123865
144801
75762.9
66214.8
87100.8
198258
178506
193090
94673.1
352820
316399
297560
302042
311483
311090
302973
293513
271700
348088
252439
316785
390364
322096
360747
304863
353231
211503
121826
255189
416937
350035
343858
201956
320625
363101
309870
384546
345113
367232
372767
344327
282426
309202
296097
389893
286265
302427
293133
298630
282959
372749
351601
310251
284861
382177
307089
382883
316037
305453
406554
360084
312637
304573
329366
359977
292151
293663
391724
285317
348133
345913
342867
334123
142444
149105
161125
115639
102582
78702.8
139375
119436
118411
87288.8
98967.5
117474
100309
90994.7
113090
106416
102171
76889.6
69720.8
29482.3
105348
96435
82352
84904.1
116255
93875.3
73820.6
99501.5
87771.4
98045
67106.8
63705.1
102150
109795
106147
75792.2
128406
102031
123251
95890
88876.2
67554.1
72654
102179
121317
85192.4
110211
80357.3
122873
88977.1
77064.2
67652.9
110458
82606.7
79665
118787
109307
59563.8
66548.8
68194.1
117607
83058.3
75556.9
72595.2
502006
74854.2
192041
20144.2
229069
103574
268613
185973
106377
175946
106816
61344.9
155554
193233
85602.8
136575
121332
74189.9
56068
-24339.5
136581
101034
104701
123167
-12910.7
-11270
-13201.5
-22268.2
-13798.5
-10217.4
-13364.4
-7403.6
121979
169194
3553.15
13493.3
85812.3
179223
33755.9
21710
123740
21185.5
148159
96270.7
124187
93038.2
120539
132083
191063
-1243.01
1024.11
2513.29
47156.3
1204.54
3659.07
-13526.9
131963
2458.18
30307.7
124519
107333
-2051.11
70135.8
1244.73
330362
301864
290201
308727
310223
302991
301396
286372
259282
429739
457629
254553
271442
303831
267157
310607
281334
463472
322746
179437
299153
374656
175413
284748
279808
226205
24375.9
65481.1
370287
263842
247233
161705
281844
282968
278049
205704
271878
290138
262738
277283
277189
278049
345233
307507
262609
318509
295996
275219
287446
270933
190944
170432
268352
253695
224000
294346
273096
183087
296613
330524
301046
176171
244215
246919
-74299.1
21929.3
11613.4
42768.8
-5573.07
9468.47
22625.2
17487.4
35602.3
80788.3
55589
84091.6
69148
71196.7
92380.5
63561.9
17782.6
54899
50006.6
70097.5
23180.7
32678.6
22731.7
49603.4
59231.4
88690.7
44441.6
75562.5
97350.5
82867.7
87843.3
76744
20512.6
17710
51726.3
64624.5
45491.9
33694.7
64484.4
59178.7
20144.8
73252.8
43370.9
21525.9
30025.5
74638.7
40744.9
34388.3
10830.8
64071.4
58220.8
54177
67920.9
74943.4
70668.6
65712.2
12078.1
85560.7
89649.4
44433.9
51934.3
71510.1
59439
87086.4
288839
251956
325113
129353
182728
242963
220104
309571
319240
348564
346285
327007
316866
422212
339861
318940
302305
327097
381438
315505
306205
299868
286232
343411
235707
301672
318841
264429
268432
297783
295058
341446
273899
315135
234117
309800
294469
292454
267138
260568
321930
330230
367362
321983
354436
333996
327696
350141
316467
228709
326710
304119
318874
308465
317606
309862
311144
348338
333432
345250
317270
324897
331582
331549
245569
218848
144052
123062
347726
348779
167312
183585
196143
147069
205541
153500
126903
260631
182333
190137
245132
217000
263117
235039
264171
241383
265692
267147
155667
140413
181652
108549
156462
162276
144013
158044
229675
98063.1
109470
123591
211707
176407
161434
146724
259797
163610
220624
185225
204335
180770
206039
184991
195677
111671
149959
230549
197500
131673
194918
168480
211851
231769
159532
207435
208349
194237
187369
171726
221647
150456
283728
214710
228194
205084
252757
252309
57940.2
-24582
81813.4
27975.2
28609.6
17214.4
10563.5
9835.81
309973
310447
395798
350394
356258
378300
305439
345147
207971
144689
257234
261088
218430
234982
180842
205237
147661
283499
179308
124555
111629
220745
132928
169839
142652
95660.6
141275
267803
114836
67880.6
224039
148408
292885
213211
140371
235950
294497
207333
268699
228831
310667
257182
147789
162133
354594
279614
172369
207910
49460.5
32144
91882.2
66138.2
22871.6
28391.3
49735.6
48878.5
31854.4
105589
-51271.1
33116
-1690.88
276191
-40539.4
72474.1
102002
385024
125717
83482.3
67534.4
385521
-102182
-146937
61670.5
56594
43517.7
71444.4
29437.9
-35449.7
53525.3
31832.6
68685.3
65752.4
49519.8
48885.9
86154
23796
39903.9
99506.5
20101.5
-4602.64
-11973.8
39333.2
66769.1
120947
2332.22
-88823.9
84982.5
54172.6
84156.8
145185
129604
91204.9
146900
89475.5
50460.3
174156
-9682.3
210325
-65440.5
171574
-119450
-72427.7
139409
-179984
582757
165072
99507.9
334381
-546968
116767
2937.66
622128
447371
218337
-276459
505971
38888.3
-230447
655647
380821
786455
48530.6
223358
526329
210123
409761
-31967.9
-92363.8
10411.5
-32457.1
-73827.6
-120995
-96204.1
-67117.7
-233925
159977
90157.4
131510
-10128.3
-243764
117845
6349.39
657103
-66020.2
397815
559530
-210320
-176408
384907
45849.7
49720.6
-2803.51
-72993.7
-80012.6
44029.6
2255.03
-6837.23
-54062.4
265744
15412.1
-41571.8
158776
152405
-40231.4
200403
-22914.6
5202.64
4241.57
9501.27
-1955.29
-6241.89
22019.3
-3934.24
1997.88
-11531.9
1063.72
21200.1
7868.77
-3335.29
10518.3
3112.91
9720.81
16951.7
-2001.41
14865.5
9194.73
7407.42
14773.5
8171.05
8777.17
-1970.46
7264.41
10488.7
13878.1
-7815.09
-3891.91
12315
7594.54
-4441.58
5555.04
-7176.79
8006.83
10245.4
1618.68
7865.9
7835.36
14644.4
28087.6
41923.1
20420
12586.9
22829.8
16167.5
17577.7
999.675
-9101.44
14963.4
2747.03
-541.807
-123.608
-6088.4
-5858.94
7955.45
8300.64
23278.7
20279.8
4178.53
1426.89
6246.62
24780.6
-263260
-607761
-618052
799382
-1.32751e+06
-1.50965e+06
-1.28372e+06
-2.91674e+06
-4.54789e+06
-717676
-4.50604e+06
-1.15439e+07
7.71234e+06
2.75066e+06
-543186
-1.01276e+07
-3.35762e+06
-1.31133e+07
-1.94174e+07
-5.30266e+07
1.78168e+07
5.72197e+06
-8.23817e+06
-1.96846e+07
2.23466e+06
-2.26574e+07
-7.34984e+07
-2.0679e+07
9.30383e+06
4.70155e+06
5.38023e+06
-2.87204e+07
1.61717e+06
-2.28611e+06
-4.21585e+06
9.18268e+06
-1.17979e+06
-4.20826e+06
6.09829e+06
-2.01142e+06
201707
2.51843e+06
2.71342e+06
334263
260505
1.94487e+06
-5.24758e+06
9.50103e+06
1.99825e+06
-672205
-5.05262e+06
-1.45935e+07
217078
-1.26835e+06
2.26984e+07
-2.72913e+06
3.60639e+06
-4.58619e+07
-2.26014e+07
-1.4922e+07
-5.16772e+06
-2.32006e+06
-1.99189e+06
-3.44249e+07
-1.18491e+06
957866
311246
72596.4
3.05657e+06
1.85067e+06
332655
573828
1.51221e+06
4.03756e+06
1.81105e+06
1.28481e+06
-1.26563e+06
3.201e+06
1.22279e+06
-1.79924e+06
2.57201e+06
933975
380553
895728
1.93613e+06
964242
2.41649e+06
1.96433e+06
382430
723187
1.00164e+06
919163
147537
1.21218e+06
917653
341992
2.10032e+06
840626
1.11152e+06
1.33622e+06
1.21359e+06
2.12494e+06
164724
933126
2.74214e+06
1.89835e+06
1.31902e+06
1.07717e+06
-219524
4.29629e+06
913098
-259696
438575
826756
1.09483e+06
1.06661e+06
339618
117681
519539
1.71691e+06
1.01369e+06
169709
93697.1
749036
3.64889e+06
1.28862e+06
2.15631e+06
1.15017e+06
-79799.8
228843
144335
219001
160790
194212
174217
185806
231699
124086
206326
193615
239321
219621
224734
207783
227178
338620
379644
438918
314190
326027
314394
458615
227190
250799
396265
304233
264938
289005
305089
342914
243205
259177
256278
259829
246480
239360
235202
260615
245305
252758
304480
252701
253370
275978
273380
318432
229247
238076
255564
356894
213339
209651
334660
230059
219961
425454
240033
304811
326041
332846
323340
329245
140327
-60985.7
48676.1
128778
195220
49298.2
281089
185486
-77800.2
-21538.7
84863.4
45163.9
128358
24.0946
225627
95921
113298
56912
82663.4
57249.1
122406
84132.2
133935
84147
86851.8
32545.1
42738.6
29871.2
43116.5
62980.8
33226.9
33589.7
182911
154496
164205
96758.3
303346
190365
109574
144184
29237.6
109411
75198.9
81510.7
176158
148312
21331.7
155879
209043
161247
91451.6
83644.7
107548
130672
110798
88575.7
143390
74893.6
65464.1
117475
174892
88341.5
187189
62731.1
150130
261124
149990
406101
326207
251541
305529
249479
316803
416641
498717
366252
363618
350352
370665
400548
198726
487817
287384
324648
532223
411851
510035
541736
407558
344788
169796
233979
563591
459817
478124
351847
401627
370584
391547
389513
383384
453600
394878
391230
350107
356250
433312
292514
329760
447874
342166
478820
409501
396409
415615
447030
441194
432259
551692
381229
367332
368194
338432
508743
547615
464327
466069
342701
44181.1
156292
81790.9
127209
121376
148266
175577
106946
228423
310910
242284
220217
183991
284050
205991
142427
57264.2
165349
39503.6
82851.3
113668
122121
123278
61073.1
156069
164038
90315.9
82841.5
141257
167902
118074
90255
127537
101669
126032
208748
182574
131123
148459
112975
216288
167049
194201
153865
107515
212720
171026
149629
144860
190287
199210
125984
157414
155654
183386
160889
63658.9
90033.8
185150
113930
158694
128822
179734
159352
53876.6
67920.1
47811.2
71318.6
55351.1
58462.5
64329.2
61876
87705.9
133744
-6227.68
171998
118172
105026
147233
116940
5771.59
-96262.3
-137834
32868.6
22832.2
-25257.9
-6462.38
-3427.06
92170.5
140602
95222
129445
112954
125047
120955
135625
90659.2
59757.8
73083.7
94306.4
89146
71676.2
81080.9
81016.7
88916.5
148095
23976.3
34910.5
94578.5
112079
65642.3
31181.6
53432
76921
130545
83791.2
54766.5
89900.5
94774.5
91944.8
55825.2
101189
166763
38946.5
33868
74502.8
44936.6
90897.5
173860
143087
56813.4
36408.4
141058
-27481.7
75884.3
-36786.4
53899.4
55396.5
61247.1
10717.9
18708.7
27963.9
18701.6
1849.64
47104.6
34608.5
14852.8
24131.3
30305
58337.8
41337.1
51923.9
20229.5
13992.4
20267.5
9519.41
14177.5
23655.7
18164
16991.8
220691
68722.2
32988.4
30512.6
15537
-47919.3
29717.8
42963.4
23162.7
21557.6
41793
39183.9
-13518.9
-10423.1
29696
14928.9
44288.3
49956.9
27645.7
31504.3
37865.6
26464.2
30477.3
25640.4
19691.5
25897.8
18834.6
15579.3
29047.3
35514.4
29791.5
19690.6
139379
321622
80055.2
75603.1
127678
182870
46102
100687
301406
352123
291755
325110
336919
316141
323291
313085
121894
301233
10259.8
122282
94819.2
211521
44883.2
117599
179845
296230
226334
231965
263588
282442
229042
260044
307347
195156
182408
332427
267067
252413
283746
225492
306514
328392
291637
237469
279107
296248
287792
285576
135416
133863
302389
167056
93285.6
158279
217094
292796
152110
214810
290398
282491
190063
217543
267390
289871
6815.66
7240.93
10593.6
-2558.18
4841.42
7973.76
2593.53
2898.87
20024.3
23795.9
38493.2
19765.9
19875.6
34927.1
19349
28011.6
15539.5
52083.2
55830.1
35015.7
7717.93
45482.6
15358.6
1700.45
-1531.33
4665.65
-3991.91
-31059.9
-9245.13
9718.8
-6137.81
4035.66
11179.3
11806.7
-1572.32
3539.49
7397.88
4650.52
7562.24
-103.349
14253.8
17718.4
37107.5
15066.1
11810
22124.5
9440.45
8998.22
5129.87
2270.32
4241.88
10061.8
11263.5
11852.1
13914.3
7061.67
13299.5
30234.2
13039.8
22259.8
32796.2
34590.1
21120
15238.4
-5848.64
33291.3
33149.8
91162.4
18404.2
-460.69
59858.9
44823.9
90541.5
8949.54
99197.9
126727
69044.6
43193.5
103029
101502
70915.5
101032
64666.1
167641
95099.9
71922.4
95066.7
91970.7
271626
44663.3
180666
42628.1
143693
81797.2
162259
180546
66099.2
54903.2
86902.2
122000
71430.1
76043.5
85765.5
57114.1
55733.3
135754
47953.8
54924.5
74266.4
122761
98205.6
88774.7
84690.7
209621
81994.6
120165
136040
178098
117584
108934
83622
129910
98216.9
99174.9
142193
126326
152959
172402
20417.9
10283.2
9839.33
10757.5
23440
22320
14655.5
15356.1
-20616.9
-20727.4
-26228.2
-11937.2
-15355
-22533.7
-12797.8
-27655.9
-29347.5
-21408.9
-1981.48
-11348.3
-14131.4
-25702.1
-20131
-24915.8
-4902.24
-1515.6
16413.3
20529
27551
12152.6
26152.7
24657.2
-8357.95
-13752.8
24462.6
-5403.08
-14499.5
-4435.03
-3621.85
1970.48
-13029.5
-12891.9
-26187.4
-16730.4
-22902.8
-32386.2
-19299
-33900.1
-25961.8
18876.7
-3552.32
-11473.6
-6785.54
13211.4
-8856.64
-4804.59
-17548.4
-30788
-24375.4
-27448.9
-19280.4
-30212.9
-35376.5
-48827.6
476316
331145
349922
193670
287934
372761
249693
263349
184204
177834
214721
151631
66875.2
204920
-28697.1
182583
58385
-64743.2
12045.5
92031.9
45008.3
-1381.1
40699.9
-31876
108147
126920
106426
102970
107325
99044.7
101436
97181.9
154572
183560
96285.4
112966
116247
168087
137969
72182
151858
49088.3
-5679.39
142959
164718
70035.4
128298
59084.7
155619
83308.6
100234
102861
97261
64775.5
108410
127938
100537
97945.7
67565.5
15585.9
57835.2
102320
72180.1
67328.9
115114
261287
34780.3
-124716
108235
40369.8
650267
57611.4
309885
1.28396e+06
448131
197178
295961
498978
121959
326138
173256
244405
75362.5
-60490
68608.6
150962
2073.19
32780
-237693
7617.67
-218.449
-20409.4
-55606.2
10005.9
-97019.7
-13953.7
248784
54277.2
-26378.2
76384.1
68908.5
-137397
66874.1
113162
362850
32159.6
262751
217302
248862
145397
235344
191956
295824
40422.7
33444.7
-17579.6
13356.9
55989.1
62603.6
51114.5
146293
91801
32284.6
117981
140966
98505.9
14650.9
-10606.5
75285
35867.6
71803.1
22290.9
68163.1
69769.9
60186.8
64389.8
32089.9
38012.4
31124.1
16956
21985.9
23070.8
15840.3
17068.3
52609.7
42203
33808.2
39767.9
25861.7
39913.7
17936.3
38526.9
44244.2
29191.8
27778.1
-2.05695
21097.1
22364.2
24476.5
24557.9
14938.6
10467.1
14122.1
-1372.74
-5008.01
9017.89
13247.5
12566.9
21989.7
6350.57
27462.8
43531.1
3068.88
17670.9
-499.012
8141.69
3007.5
8083.72
2615.31
18671.8
33042.8
10206.3
9208.2
8734.5
25018
28894.2
820.766
18060.4
14332.9
17155.1
6846.53
24634.5
298306
232778
116686
138491
105124
101730
-33699.2
206476
119107
96286.1
79794.7
66457.9
67790.3
75874.5
62912.1
56538.4
265966
133090
114563
32747.5
204241
186818
173471
275693
-24177.6
77267.8
-31899.1
-4697.86
-15581.1
50846
-13600.3
59727.3
138387
168317
60921.7
93371.7
52908.9
28433.2
100264
63165.1
80206.2
62816.2
79611.1
87560.4
94556.5
50010.4
111342
76277.5
136688
97976
74054.3
-23167.5
-6343.23
83104.1
-212.891
23722.9
127177
1663.79
50898.4
56039.7
12811.1
908.245
48653.9
16771.8
10973.8
207379
162436
50164
46964.9
273960
79403.5
269941
223954
187140
171961
128728
136555
191016
130784
160527
174995
178433
204795
108140
151995
210815
166173
212932
45124.7
49595.2
36134.8
27529.9
33709.3
41869.1
31003.3
30939.4
148420
91649.7
60162.3
113849
120467
65369.2
87731.4
137375
202555
157854
188089
255458
170759
156165
217579
151247
119178
75306.5
107423
76151.5
58179.1
130202
67392.8
9051.68
226893
113046
131861
190164
121041
165033
136347
133581
-12587.9
6262.74
40283.4
18884.6
6191.39
24072
22451.2
29629.9
40141.5
51191.1
70915.2
33938.1
29481.8
44087.7
33012.4
44620.1
100186
80529.7
128659
60761
72180.2
89237.4
69116.3
97871.9
26859.5
24956.8
24342.7
22087.8
19423.4
22017.7
21634.4
24024.2
34835.1
56059.8
17446.6
28471.7
42950
25234.2
26471.8
32019.4
34787
29298.6
56433.7
72279.9
37803.9
28172.4
46015.6
40131.6
63825.7
28717.3
30197.1
39161.6
37439.4
34386.2
38400.1
22147.3
74665.8
44510.8
25576.5
58259.9
34736.3
46665.3
46441.5
41808.9
97594.3
53725.9
56356.9
13539.5
54970
73711.1
57009.2
62876.7
72328.6
211731
56623.1
123948
107088
87402
80208.3
75598.8
54486.3
43884.1
34279.7
41580.1
51501.8
69213.1
48951
76556.4
24227.5
49614.3
13777.6
20948.9
23813
33864.7
20554.1
34318.8
63921.4
52292.8
26777
88433.2
46060.2
32125.1
63620.4
37120.1
45790.3
77804.9
54827.4
61375.3
47753.9
56017.7
45066.4
55472.8
62074.4
39227.6
71094
20124.9
25049.4
47411.5
35186.4
59938.2
63884.9
46006.4
58656.4
57020.6
40749.4
49181.3
57075.3
52374.9
-68281.5
-89179.4
-18580.8
-597.221
-20597.2
-73415
-27146.3
-43962.8
-23644.4
2605.35
-22097.8
17405.5
15351.5
-29880.8
-5405.26
17517.3
-6837.02
-6296.56
6661.35
-6188.43
926.103
5990.81
-1648.37
4103.02
7961.96
23978.7
9896.23
12612
24227.7
11228.4
19834.6
18946.4
-23870.3
-3443.56
15390.9
17888.4
-24115.3
-33710.6
-374.984
-4626.1
-58379.2
3662.28
-11363.7
-22785.1
-24555.3
-6269.72
-13952.2
-4338.36
-5710.87
10708.2
12965.4
5657.37
-8056.1
-2422.15
7649.72
1043.67
-16287.6
3420
16121.5
-4473.06
-11049.7
-7696.94
-7042.57
930.355
127443
178178
172946
175754
139969
137994
122100
163535
215075
250062
214055
254329
228196
217729
221311
244250
187923
177364
92172.9
154798
184362
161373
125898
119655
207742
256929
184339
198879
214349
227779
205388
269133
217532
194680
195366
220535
176586
180545
199658
207211
185101
224937
196864
192995
190974
207671
180487
175215
154907
200941
234599
131385
211267
232352
200079
235531
179527
184910
292460
193800
201447
181882
192559
202473
229333
327669
358072
299174
285131
319522
329561
333379
326668
332009
350916
325276
303670
312512
304599
295700
388534
397825
426422
366563
431083
454326
419436
473352
304602
278185
307815
239856
321860
302133
272331
298830
283590
373742
318996
297110
313717
349850
325820
346966
300767
373826
435633
372173
272058
312383
337372
365128
387446
335728
287311
339391
332579
318272
357667
324395
369760
337671
311175
423893
383022
341607
382373
316996
55696.3
23824.1
35900.1
17629.5
44267.5
51584.7
32357.3
39191.1
9994.23
3958.42
460.073
1360.47
7158.69
6304.1
4357.01
4551.58
22931.4
344.392
11033.2
-10856.1
8402.27
12977.7
-5140.1
1005.03
-14879.8
-13858.9
16205.7
-7421.97
-14706.1
-16334.5
38.2952
-440.57
24247.7
29583
6376.79
-5314.14
16787.4
20413.2
-4610.59
4451.38
24416.1
-6645.64
19927.2
31158.8
18585.8
2153.62
23151
17085.3
6422.86
6392.66
4841.9
4601.27
9940.85
9354.3
-4691.71
-6187.78
10446.2
4931.73
3585.22
8361.61
-5292.57
-6010.76
7887.16
-463.499
-4692.44
1635.75
243.8
15501.5
2836.22
3038.73
5459.61
2777.94
7259.39
21798.4
4613.69
24552.2
3333.37
-4332.16
13464.6
11502.1
-3373.06
5942.59
481.051
-2959.9
-707.808
-744.745
-226.475
896.935
27138.9
28489.3
9966.42
15434.5
26138.1
27410.2
-778.542
15025
3723.95
-318.559
13032.6
17671.8
13345.1
5251.82
28847.7
6386.45
2562.21
17689.7
2128.16
-1066.88
6406.47
4966.27
-6027.05
-2759.57
3414.06
21839.9
13019.8
6690.16
3723.95
20484.4
10395.6
20217.4
1027.48
10060.8
15620.3
5726.8
2214.02
13253.6
5582.47
8753.08
-359941
-112693
-290135
48230.7
-171191
-1.12666e+06
-25564
-24724.9
-2.16494e+06
-1.02366e+06
-8.85585e+06
-77127.2
-1.09393e+06
2.69337e+06
-2.49051e+06
3.83984e+06
-700829
3.66666e+06
922652
433518
-2.65293e+06
-4.31523e+06
1.3501e+06
3.50299e+06
-115749
165813
70735.3
39931.5
479854
52256.6
139455
-122099
68667.6
-802162
-90092.4
1.88635e+06
795418
907339
-434082
-512971
-3.34059e+06
2.73058e+06
3.41735e+06
-4.39625e+06
744144
-1.59746e+06
-2.71476e+06
762433
-494160
223782
810830
415657
-230148
-19325.8
580316
840382
-1.84886e+06
575305
795761
6.72766e+06
1.05278e+06
11078.4
878981
14241.3
518740
940801
952356
728301
1.05826e+06
1.31865e+06
-654175
-37838.3
2.91024e+06
4.03743e+06
1.5919e+06
728185
-638662
1.21317e+06
-736573
2.9599e+06
-92629.1
308940
461526
303882
-350158
120262
490200
670627
401690
482523
16142.5
137239
386912
50983.8
68322.2
792286
859164
670883
-328188
28147.5
-145385
-132935
336274
179476
2.79531e+06
39070.2
556875
1.09661e+06
42922.1
495911
1.49686e+06
-354149
-18842.8
-34894.7
-370639
43956.8
24116.3
1.59793e+06
-778356
-54994.4
-659778
917530
2.74994e+06
1.47982e+06
137486
37636.6
10399.8
-438448
57093.2
42914
69912.4
71516.1
50612.3
16489.5
96274.4
73203.8
47268.3
41660.8
42868.2
45894.7
43626.2
49312.6
59878.4
66761.7
122271
53541.2
194110
113757
101770
88740.4
150610
128390
59915.1