/*--------------------------------*- C++ -*----------------------------------*\
| =========                 |                                                 |
| \\      /  F ield         | OpenFOAM: The Open Source CFD Toolbox           |
|  \\    /   O peration     | Version:  2506                                  |
|   \\  /    A nd           | Website:  www.openfoam.com                      |
|    \\/     M anipulation  |                                                 |
\*---------------------------------------------------------------------------*/
FoamFile
{
    version     2.0;
    format      ascii;
    arch        "LSB;label=32;scalar=64";
    class       surfaceScalarField;
    location    "500";
    object      phi;
}
// * * * * * * * * * * * * * * * * * * * * * * * * * * * * * * * * * * * * * //

dimensions      [0 3 -1 0 0 0 0];

oriented        oriented;

internalField   nonuniform List<scalar> 
105296
(
4.68591e-08
-1.44648e-06
2.37763e-08
1.37584e-06
-1.43167e-06
9.90803e-08
2.05506e-08
1.31203e-06
1.3706e-06
5.02309e-08
-1.44659e-06
2.57498e-08
1.75752e-08
6.71531e-08
-1.44113e-06
1.35639e-06
7.55155e-08
-1.38854e-06
1.35988e-06
-1.37531e-06
1.91511e-08
7.27494e-08
-1.44372e-06
6.80406e-08
1.59957e-07
-1.39109e-06
8.82225e-09
1.22231e-06
-1.33352e-06
2.34101e-07
-2.92585e-09
1.10236e-06
1.17745e-06
-1.39446e-06
2.11794e-07
5.2053e-09
6.02469e-09
-1.37185e-06
1.79591e-07
1.18623e-06
1.8351e-07
-1.19138e-06
1.16782e-06
-1.14988e-06
-1.26685e-10
1.9527e-07
-1.38062e-06
2.2284e-07
5.87878e-08
1.36406e-06
-1.44642e-06
2.35656e-08
-1.43167e-06
1.26569e-06
1.49592e-07
1.63789e-08
1.35162e-06
-1.44424e-06
6.72576e-08
2.53547e-08
1.74215e-08
1.32536e-06
-1.43879e-06
9.59987e-08
9.89104e-08
-1.36844e-06
1.32831e-06
-1.34258e-06
9.82547e-09
9.39239e-08
-1.44494e-06
1.02957e-07
8.56735e-08
6.65162e-09
-1.42928e-06
1.33695e-06
-1.39393e-06
-3.08773e-10
1.44071e-07
1.25017e-06
1.31339e-06
7.93951e-09
-1.42761e-06
1.06286e-07
-7.50158e-09
-1.40863e-06
1.08897e-07
1.30724e-06
9.82228e-08
-1.31053e-06
1.29798e-06
-1.29565e-06
-5.43667e-11
1.0242e-07
-1.42045e-06
1.20157e-07
-1.30764e-06
1.27197e-07
1.27951e-06
1.3461e-06
8.73673e-08
-1.38325e-06
9.50633e-08
-1.35805e-06
1.33014e-06
-1.19156e-07
1.37397e-07
-1.26114e-06
1.2429e-06
-1.42726e-06
-4.4162e-09
1.24021e-07
-1.311e-08
-1.415e-06
1.29143e-06
-1.33305e-06
-1.27477e-06
1.0866e-08
-4.76886e-09
-1.22968e-06
-1.53947e-07
-1.24156e-06
1.04345e-09
1.43187e-06
-1.35639e-06
1.18794e-08
1.44115e-07
-1.29487e-06
-1.24128e-06
1.13339e-07
2.36588e-08
-1.28189e-06
-1.86479e-08
7.95018e-08
-1.44411e-06
8.44011e-08
-1.4358e-06
-1.40803e-06
1.46577e-07
1.34316e-06
1.02226e-07
-1.43745e-06
1.34522e-06
7.74218e-08
-1.44129e-06
9.65655e-08
1.31152e-06
1.09063e-07
8.717e-08
1.31166e-06
1.15925e-07
-1.24944e-06
1.66337e-07
-1.50599e-07
1.74727e-07
-9.66514e-09
1.42514e-06
1.41106e-06
-7.34563e-09
1.54268e-07
3.70641e-07
-7.15585e-07
-7.16483e-07
3.71423e-07
1.4451e-06
3.71809e-07
-7.15375e-07
-1.10002e-06
3.76106e-07
-7.17215e-07
-7.2933e-07
-3.43749e-07
-3.44281e-07
-7.27498e-07
-7.16267e-07
3.73321e-07
3.71826e-07
-7.16713e-07
-7.16083e-07
3.73377e-07
1.44466e-06
-7.16587e-07
3.73461e-07
-1.09971e-06
-7.21343e-07
3.82259e-07
-7.2915e-07
-3.43965e-07
-3.437e-07
-7.24451e-07
-7.1922e-07
3.76507e-07
3.72425e-07
1.44473e-06
-7.1562e-07
-7.16104e-07
1.44543e-06
3.72207e-07
1.44529e-06
-7.15672e-07
3.71912e-07
-1.10091e-06
1.43768e-06
-7.17708e-07
3.80942e-07
-7.28783e-07
-3.43262e-07
1.44447e-06
-3.43354e-07
-7.26577e-07
-7.176e-07
3.75362e-07
3.79994e-07
-1.09504e-06
-7.14238e-07
-7.18506e-07
-1.09527e-06
3.86171e-07
1.42456e-06
-1.09529e-06
-7.14185e-07
3.84913e-07
-1.08803e-06
-7.06579e-07
3.85978e-07
-7.09819e-07
-3.30636e-07
-3.3283e-07
-1.09549e-06
-7.07266e-07
-7.11402e-07
3.84469e-07
-3.43693e-07
-7.28992e-07
1.44472e-06
-7.29164e-07
-3.43746e-07
-7.21041e-07
-3.38652e-07
-3.78733e-07
-7.1901e-07
-3.39703e-07
-7.17612e-07
1.09991e-06
-7.25986e-07
1.10043e-06
-7.20116e-07
-3.40729e-07
-3.44172e-07
-1.10009e-06
-3.40257e-07
7.28902e-07
-3.43955e-07
7.16002e-07
-3.43633e-07
3.74791e-07
-1.44495e-06
-1.44452e-06
3.72587e-07
-3.43034e-07
1.0997e-06
-7.26762e-07
-7.16684e-07
-7.17998e-07
-7.15689e-07
-7.19681e-07
-7.15296e-07
3.37684e-07
-7.16793e-07
-7.16183e-07
1.43824e-06
3.78474e-07
-7.17014e-07
3.79511e-07
1.43566e-06
-7.19507e-07
3.74332e-07
3.39239e-07
3.81649e-07
-1.43944e-06
3.83885e-07
7.25265e-07
3.76209e-07
1.10084e-06
7.17961e-07
7.20575e-07
1.10019e-06
3.81326e-07
3.59822e-07
-7.32716e-07
1.47456e-06
1.47484e-06
3.60743e-07
-7.3392e-07
-7.342e-07
3.61117e-07
1.47474e-06
-1.09961e-06
3.64511e-07
-7.31738e-07
1.46683e-06
-7.41003e-07
1.83388e-06
-7.33055e-07
1.8355e-06
-7.38552e-07
1.47282e-06
3.62745e-07
3.6049e-07
1.47459e-06
-7.33415e-07
1.47352e-06
-7.33783e-07
3.61921e-07
-7.33872e-07
1.47432e-06
3.61217e-07
-1.10083e-06
1.46513e-06
-7.3399e-07
3.69693e-07
-7.40642e-07
1.83308e-06
-7.31952e-07
1.83455e-06
-7.38209e-07
1.47046e-06
3.62465e-07
3.61018e-07
-7.34999e-07
1.47564e-06
1.47491e-06
-7.34958e-07
3.61715e-07
-7.35144e-07
1.47563e-06
3.6118e-07
-1.10089e-06
-7.3655e-07
1.46953e-06
3.67911e-07
-7.40298e-07
1.83797e-06
-7.36651e-07
1.83627e-06
-7.38223e-07
1.4753e-06
3.62905e-07
3.69461e-07
-1.09551e-06
-7.26364e-07
1.45242e-06
1.44936e-06
-1.09582e-06
-7.29299e-07
3.75764e-07
-7.31342e-07
-1.0965e-06
1.45432e-06
3.73524e-07
-1.08832e-06
-7.1682e-07
1.42859e-06
3.76552e-07
-7.21197e-07
1.81523e-06
-7.24576e-07
1.82301e-06
-1.09485e-06
-7.17671e-07
1.44459e-06
3.74e-07
1.83387e-06
-7.40549e-07
-7.3258e-07
-7.34831e-07
-7.40166e-07
1.83611e-06
-7.33716e-07
1.8296e-06
-7.31372e-07
-3.66684e-07
-7.30572e-07
1.82659e-06
-7.2933e-07
1.47216e-06
1.10061e-06
-7.389e-07
1.10008e-06
1.46912e-06
-7.35192e-07
1.83548e-06
1.8357e-06
-1.09901e-06
1.83357e-06
7.40337e-07
1.83564e-06
-1.47504e-06
1.83654e-06
3.6241e-07
7.34389e-07
7.33859e-07
3.61008e-07
1.8352e-06
1.10087e-06
-7.38591e-07
1.47384e-06
-7.31171e-07
1.46526e-06
1.46101e-06
-7.30241e-07
-1.83268e-06
-7.2833e-07
1.46451e-06
-7.36682e-07
3.66779e-07
1.47077e-06
3.67625e-07
-7.3378e-07
-7.3212e-07
3.62947e-07
-1.83388e-06
3.69e-07
7.35085e-07
3.68247e-07
7.3822e-07
3.62464e-07
1.09978e-06
-1.47348e-06
-1.46622e-06
1.09994e-06
3.68803e-07
-1.72064e-06
1.34489e-06
6.82293e-07
-3.06533e-07
1.3585e-06
-1.74705e-06
6.98958e-07
-3.10404e-07
6.66187e-07
-1.68429e-06
1.32055e-06
-3.02447e-07
-3.14752e-07
-1.74241e-06
1.36342e-06
6.93743e-07
-2.03562e-06
-3.66961e-07
6.81934e-07
-3.70766e-07
-3.06351e-07
-2.01241e-06
1.33069e-06
-1.71699e-06
-1.77287e-06
1.37587e-06
7.13521e-07
-3.16528e-07
1.38949e-06
7.23957e-07
-1.79269e-06
-3.20764e-07
7.04917e-07
1.36802e-06
-1.75731e-06
-3.15617e-07
-3.24964e-07
1.39465e-06
7.25663e-07
-1.79535e-06
-2.09649e-06
-3.86037e-07
7.09662e-07
-3.9e-07
-3.16998e-07
-2.09058e-06
1.37958e-06
-1.77566e-06
-1.65044e-06
6.45106e-07
1.30027e-06
-2.94932e-07
1.32836e-06
6.73562e-07
-1.69915e-06
-3.02774e-07
6.33401e-07
1.28478e-06
-1.62974e-06
-2.88439e-07
-3.07501e-07
6.74706e-07
1.34409e-06
-1.7113e-06
-1.96932e-06
-3.41457e-07
6.60339e-07
-3.43448e-07
-2.9751e-07
-1.95514e-06
1.30619e-06
-1.66519e-06
-1.76761e-06
-3.27096e-07
1.38774e-06
7.06963e-07
1.39865e-06
-3.31163e-07
7.26343e-07
-1.79383e-06
7.0373e-07
-3.26069e-07
1.38301e-06
-1.76067e-06
-3.37944e-07
1.40833e-06
7.25869e-07
-1.79625e-06
-2.1042e-06
-3.72995e-07
7.09586e-07
-3.75404e-07
-3.3015e-07
-2.09981e-06
1.38887e-06
-1.77149e-06
-3.74562e-07
-2.06878e-06
6.96289e-07
6.76482e-07
-2.00555e-06
-3.55221e-07
-2.06975e-06
-3.68268e-07
6.95614e-07
1.77e-06
-2.10062e-06
-3.78507e-07
7.09118e-07
1.35821e-06
3.23111e-07
-2.05589e-06
3.17709e-07
1.38077e-06
7.12342e-07
-3.71273e-07
-3.81451e-07
-3.11455e-07
-3.22862e-07
-3.83108e-07
2.04913e-06
-3.69544e-07
-3.11572e-07
-1.34455e-06
-3.56405e-07
-3.04593e-07
-1.75069e-06
-6.86645e-07
-6.9398e-07
-1.72177e-06
-3.09427e-07
-3.66618e-07
3.08795e-07
-1.98302e-06
1.31901e-06
-2.05744e-06
1.36207e-06
1.38479e-06
-2.09446e-06
3.59248e-07
-2.03999e-06
1.35467e-06
6.80576e-07
-1.71425e-06
1.34247e-06
-1.74813e-06
6.93497e-07
-2.0485e-06
-1.69432e-06
3.6216e-07
-1.72744e-06
-7.03285e-07
-1.77428e-06
2.03266e-06
-1.72864e-06
3.15217e-07
-1.3492e-06
-1.37112e-06
3.16842e-07
-1.75756e-06
-2.28281e-06
1.40725e-06
5.75113e-07
3.00447e-07
1.43813e-06
-2.35994e-06
5.98055e-07
3.23756e-07
3.08537e-07
-2.35595e-06
1.4641e-06
5.83315e-07
5.4898e-07
-2.36407e-06
1.4939e-06
3.21185e-07
-1.72716e-06
-8.65424e-07
3.09781e-07
-8.82862e-07
5.93829e-07
-1.77551e-06
1.45907e-06
-2.34984e-06
-2.43304e-06
1.47079e-06
6.16294e-07
3.45956e-07
1.50541e-06
-2.48815e-06
6.01333e-07
3.81393e-07
3.78566e-07
1.53395e-06
-2.49268e-06
5.80164e-07
5.62356e-07
1.52044e-06
-2.4508e-06
3.68003e-07
-1.85703e-06
-9.42013e-07
3.66e-07
-9.71805e-07
6.20186e-07
-1.88558e-06
1.50592e-06
-2.47882e-06
-2.43477e-06
3.28296e-07
1.52246e-06
5.84016e-07
1.5622e-06
3.61686e-07
-2.49601e-06
5.72128e-07
3.26158e-07
1.58216e-06
-2.48817e-06
5.79855e-07
5.50784e-07
3.33873e-07
1.56192e-06
-2.44658e-06
-1.8746e-06
-8.81894e-07
3.2173e-07
-8.98497e-07
5.86087e-07
-1.89887e-06
1.56776e-06
-2.47121e-06
-2.41315e-06
5.35438e-07
1.54588e-06
3.31834e-07
1.55038e-06
5.36794e-07
-2.44705e-06
3.59869e-07
3.39186e-07
5.31138e-07
1.57572e-06
-2.44604e-06
5.20887e-07
1.57901e-06
-2.44242e-06
3.42517e-07
-1.889e-06
-8.66004e-07
3.41851e-07
-8.74791e-07
5.36179e-07
-1.91855e-06
1.57343e-06
-2.45415e-06
-9.02064e-07
-1.79565e-06
3.37771e-07
3.10414e-07
-1.80497e-06
-8.61392e-07
-1.8216e-06
-8.70297e-07
3.27829e-07
2.40521e-06
-1.86326e-06
-8.9415e-07
3.52203e-07
1.48337e-06
-5.57563e-07
-1.82787e-06
-5.56053e-07
1.50806e-06
3.39585e-07
-8.69591e-07
-9.37344e-07
6.12488e-07
5.66763e-07
-9.09584e-07
1.87546e-06
-9.45174e-07
6.03656e-07
-1.49467e-06
-9.08642e-07
5.98342e-07
-2.42109e-06
-3.44121e-07
-3.48408e-07
-2.44209e-06
6.03292e-07
-9.1503e-07
-5.45417e-07
-1.83343e-06
1.51746e-06
-1.86244e-06
1.52758e-06
1.54257e-06
-1.89993e-06
8.74427e-07
-1.90925e-06
1.56596e-06
3.22329e-07
-2.40099e-06
1.53324e-06
-2.4097e-06
3.30954e-07
-1.85751e-06
-2.41377e-06
8.73281e-07
-2.44866e-06
-3.53576e-07
-2.45593e-06
1.89679e-06
-2.48028e-06
-5.55677e-07
-1.53637e-06
-1.53991e-06
-5.54604e-07
-2.44809e-06
5.84709e-07
-2.5423e-07
-1.26504e-06
-2.71183e-07
6.02118e-07
-1.26737e-06
-1.28652e-06
6.03368e-07
-2.67872e-07
9.72909e-07
6.28733e-07
-2.85937e-07
-1.3157e-06
1.5436e-06
3.23877e-07
-1.28276e-06
3.24551e-07
1.57995e-06
-2.83162e-07
6.17977e-07
6.23446e-07
-2.91721e-07
-1.27971e-06
-3.12902e-07
6.41032e-07
-1.30336e-06
-1.30117e-06
-3.02618e-07
6.35097e-07
9.87385e-07
-3.18935e-07
6.6036e-07
-1.32881e-06
1.59942e-06
3.27407e-07
-1.30338e-06
3.22466e-07
1.62824e-06
-3.13452e-07
6.49537e-07
6.1547e-07
-1.29491e-06
-2.76555e-07
-2.92269e-07
-1.30334e-06
6.2883e-07
-1.30428e-06
6.28978e-07
-2.87723e-07
9.80184e-07
-1.32958e-06
6.52077e-07
-3.02677e-07
1.58547e-06
3.35811e-07
-1.30581e-06
3.33381e-07
1.6116e-06
-2.95609e-07
6.40703e-07
6.58022e-07
9.94975e-07
-3.09768e-07
-1.34323e-06
-3.20453e-07
1.00108e-06
6.7067e-07
-1.3513e-06
-1.35235e-06
9.98365e-07
6.72641e-07
-3.18654e-07
1.01318e-06
6.8883e-07
-3.29284e-07
-1.37272e-06
1.66229e-06
3.48132e-07
-1.3524e-06
3.44855e-07
9.96987e-07
1.6853e-06
-3.23987e-07
6.77799e-07
3.22406e-07
1.56753e-06
-1.28782e-06
-1.29667e-06
1.57023e-06
3.29811e-07
1.6139e-06
3.3799e-07
-1.32315e-06
-6.45104e-07
1.63488e-06
3.38966e-07
-1.32874e-06
-2.98229e-07
-9.76813e-07
1.59745e-06
-9.76924e-07
-3.0349e-07
-1.31843e-06
3.33482e-07
3.22757e-07
9.80881e-07
3.35062e-07
-1.58799e-06
3.26636e-07
2.8547e-07
3.28404e-07
6.327e-07
1.2875e-06
1.30013e-06
6.19715e-07
3.31855e-07
-9.7713e-07
1.59639e-06
-2.89444e-07
1.63577e-06
-3.02807e-07
-3.15329e-07
1.65537e-06
-3.4202e-07
1.65066e-06
-3.10272e-07
-1.32299e-06
6.38797e-07
-2.92933e-07
6.46263e-07
-1.32792e-06
1.6247e-06
6.29878e-07
-3.39455e-07
6.60527e-07
1.32931e-06
6.61121e-07
-1.61834e-06
6.41638e-07
-9.7851e-07
3.02576e-07
3.06733e-07
-9.83907e-07
6.5214e-07
-2.98698e-07
-1.92668e-06
1.50449e-06
7.2089e-07
7.08832e-07
-3.2268e-07
-1.94488e-06
1.55871e-06
-1.88087e-06
-3.26769e-07
1.48281e-06
7.2482e-07
1.47575e-06
-3.15615e-07
-1.91455e-06
7.54407e-07
1.19089e-06
4.31737e-07
-1.92133e-06
3.8889e-07
1.51083e-06
1.16619e-06
7.41285e-07
-3.25787e-07
-3.68377e-07
7.33321e-07
-1.95402e-06
1.58906e-06
7.64736e-07
-1.94934e-06
1.59082e-06
-4.06229e-07
-1.86102e-06
7.29838e-07
1.47935e-06
-3.48168e-07
1.48624e-06
7.50593e-07
-1.90417e-06
-3.32664e-07
1.14525e-06
4.01093e-07
-1.91472e-06
3.73575e-07
1.5364e-06
1.13904e-06
7.48291e-07
-3.48411e-07
-3.21766e-07
-1.83648e-06
1.41649e-06
7.41763e-07
7.32683e-07
-1.82783e-06
1.42061e-06
-3.25468e-07
-1.81383e-06
1.38088e-06
7.44751e-07
-3.11805e-07
1.40494e-06
-1.85842e-06
7.63065e-07
-3.09585e-07
1.09273e-06
4.35632e-07
-1.85014e-06
4.21838e-07
1.40358e-06
1.07984e-06
7.60725e-07
-3.12149e-07
-3.09713e-07
1.45073e-06
-1.91912e-06
7.78107e-07
7.74035e-07
1.45118e-06
-1.91901e-06
-3.06207e-07
-1.89554e-06
1.42053e-06
7.85017e-07
-3.10009e-07
1.43567e-06
-1.92584e-06
7.97174e-07
-3.06997e-07
1.13052e-06
4.77613e-07
-1.91785e-06
4.69983e-07
1.43457e-06
1.11706e-06
7.96221e-07
-3.08497e-07
4.11896e-07
1.18153e-06
-1.91611e-06
-1.86443e-06
1.12472e-06
4.12941e-07
1.1394e-06
4.58439e-07
-1.91345e-06
3.19475e-07
1.142e-06
4.47072e-07
-1.90855e-06
7.3935e-07
-1.48366e-06
1.1562e-06
-1.45087e-06
7.49515e-07
-1.91371e-06
4.3804e-07
3.7621e-07
1.53864e-06
1.45844e-06
4.34147e-07
-1.12166e-06
3.94584e-07
1.45691e-06
-7.27492e-07
4.07905e-07
1.4443e-06
-3.33284e-07
1.86569e-06
1.87345e-06
-3.3085e-07
1.46904e-06
4.20932e-07
-1.4423e-06
1.10465e-06
7.5058e-07
1.13475e-06
7.74418e-07
7.69694e-07
1.12856e-06
-4.61351e-07
1.10172e-06
7.80156e-07
-1.88817e-06
-3.16756e-07
7.62629e-07
-3.15385e-07
-1.88888e-06
1.11077e-06
-3.23929e-07
-4.45178e-07
-3.11525e-07
1.87824e-06
-3.1554e-07
-1.10811e-06
-3.25137e-07
-1.42262e-06
-7.51443e-07
-7.57032e-07
-1.43862e-06
-3.17411e-07
5.87813e-07
9.36003e-07
-1.16563e-07
-1.25322e-07
6.19164e-07
9.70261e-07
-1.4328e-06
6.0688e-07
9.43275e-07
-1.17356e-07
9.75416e-07
6.45411e-07
-1.26926e-07
1.5605e-06
4.86388e-07
4.79157e-07
9.56021e-07
1.58413e-06
-1.22325e-07
6.30494e-07
6.54571e-07
-1.34955e-07
1.00284e-06
-1.349e-07
6.73673e-07
1.04338e-06
-1.54453e-06
-1.37899e-07
6.70477e-07
1.01195e-06
1.01845e-06
-1.35164e-07
6.78628e-07
1.6883e-06
5.3403e-07
5.25647e-07
1.02775e-06
1.69398e-06
-1.41499e-07
6.75102e-07
6.28123e-07
-1.45732e-06
9.52732e-07
-1.23529e-07
-1.32107e-07
-1.52295e-06
6.62136e-07
9.92921e-07
-1.50373e-06
6.5102e-07
9.8175e-07
-1.29043e-07
9.98171e-07
-1.54042e-06
6.73599e-07
-1.31353e-07
1.61469e-06
5.20777e-07
-1.50734e-06
5.12382e-07
9.70198e-07
1.64987e-06
-1.3092e-07
6.58525e-07
6.75883e-07
1.00178e-06
-1.31782e-07
-1.32051e-07
1.01748e-06
6.90293e-07
-1.56592e-06
1.01205e-06
6.85239e-07
-1.31371e-07
1.01878e-06
6.87195e-07
-1.26956e-07
1.69582e-06
5.53495e-07
5.48168e-07
1.0156e-06
1.70628e-06
-1.3401e-07
6.88532e-07
5.10977e-07
1.62565e-06
-1.48885e-06
1.59421e-06
5.01527e-07
1.64899e-06
5.24003e-07
-6.66961e-07
1.69051e-06
5.42413e-07
-1.33844e-07
-1.00165e-06
1.64647e-06
-9.922e-07
-1.35368e-07
5.21422e-07
5.02895e-07
9.87798e-07
1.01747e-06
5.37872e-07
-1.65301e-06
5.1766e-07
9.9745e-07
1.28407e-07
4.98185e-07
9.67614e-07
6.65305e-07
1.48406e-06
1.54128e-06
6.39814e-07
9.72657e-07
5.28087e-07
-9.78719e-07
1.60712e-06
-1.26866e-07
1.65593e-06
-1.30146e-07
-1.36646e-07
1.69653e-06
-5.38396e-07
1.68379e-06
-1.33352e-07
-1.50679e-06
6.53897e-07
-1.25831e-07
6.70563e-07
-1.54952e-06
1.66502e-06
6.47977e-07
-5.33135e-07
6.76511e-07
1.55259e-06
6.81812e-07
-1.67391e-06
6.68618e-07
-9.96335e-07
1.36972e-07
1.3555e-07
-1.00885e-06
6.79291e-07
1.97118e-06
-1.44035e-06
-7.81891e-07
2.51057e-07
-7.79114e-07
1.95748e-06
-1.40885e-06
2.30482e-07
2.32744e-07
1.95805e-06
-1.41115e-06
-7.79643e-07
-1.42434e-06
1.95963e-06
-7.71525e-07
2.36234e-07
5.39038e-07
1.1908e-06
2.41346e-07
1.18404e-06
-1.42411e-06
5.40439e-07
-7.73976e-07
1.95722e-06
1.94438e-06
-7.78275e-07
-1.36831e-06
2.02199e-07
-7.81603e-07
-1.30038e-06
1.32625e-07
1.60881e-07
-8.11219e-07
-1.30369e-06
-1.32498e-06
-7.62987e-07
1.83795e-07
5.9958e-07
1.15573e-06
1.89066e-07
1.15087e-06
-1.3329e-06
6.02969e-07
-7.72229e-07
1.94481e-06
2.15076e-07
-1.37418e-06
-7.85717e-07
-8.2341e-07
1.92507e-07
-1.31397e-06
2.13549e-07
-1.33132e-06
-8.08918e-07
-1.34718e-06
1.99364e-07
-7.6673e-07
5.84886e-07
1.15131e-06
2.08611e-07
1.11708e-06
-1.35561e-06
5.907e-07
-7.86578e-07
1.94523e-06
-1.4106e-06
-7.57667e-07
2.23038e-07
-7.50985e-07
-1.37111e-06
2.0308e-07
2.0114e-07
-1.37284e-06
-7.47423e-07
-1.39687e-06
-7.38883e-07
2.09908e-07
5.40631e-07
1.18991e-06
2.14697e-07
1.17585e-06
-1.3862e-06
5.40858e-07
-7.47821e-07
1.1767e-06
5.62527e-07
2.18249e-07
2.24689e-07
5.57972e-07
1.17539e-06
5.42762e-07
1.18993e-06
2.26944e-07
-1.94088e-06
5.61417e-07
1.16712e-06
2.12338e-07
-7.73612e-07
1.38876e-06
5.61553e-07
1.40829e-06
-7.70648e-07
2.18524e-07
1.18041e-06
1.16321e-06
-1.37896e-06
-1.35573e-06
1.15416e-06
-5.95647e-07
1.12552e-06
-1.3411e-06
7.84186e-07
1.16365e-06
-1.38987e-06
1.93119e-06
-2.06429e-07
-1.96776e-07
1.94507e-06
-1.36732e-06
1.15265e-06
1.39272e-06
5.59236e-07
-7.76567e-07
5.4256e-07
-7.63236e-07
-7.65915e-07
5.61927e-07
-1.17206e-06
5.60909e-07
-7.61685e-07
2.16383e-07
1.94306e-06
-7.66724e-07
1.93935e-06
2.12769e-07
5.58222e-07
1.93796e-06
-1.15318e-06
-1.92465e-07
-5.98086e-07
1.36572e-06
7.80845e-07
7.70767e-07
1.3354e-06
2.51012e-06
-1.77151e-06
-8.47206e-07
1.08596e-07
8.71704e-08
2.49491e-06
-1.75118e-06
-8.30909e-07
-8.41064e-07
2.49903e-06
-1.75375e-06
9.57877e-08
-1.75686e-06
2.49735e-06
-8.30259e-07
8.97768e-08
7.46298e-07
2.60025e-06
-8.36421e-07
2.59763e-06
-1.76417e-06
7.48021e-07
9.53667e-08
2.50459e-06
2.48588e-06
6.69627e-08
-1.73372e-06
-8.19125e-07
3.35187e-08
-1.72376e-06
-7.97929e-07
-8.22805e-07
5.55059e-08
-1.72871e-06
-1.69889e-06
3.69913e-08
-7.84676e-07
7.64456e-07
2.5223e-06
-8.00884e-07
2.52372e-06
-1.72575e-06
7.70291e-07
5.3119e-08
2.48639e-06
-8.47699e-07
-1.72709e-06
8.83962e-08
7.22411e-08
-8.48585e-07
-1.71634e-06
-8.70831e-07
-1.69587e-06
7.85448e-08
-1.68717e-06
-8.28405e-07
6.47698e-08
7.81936e-07
2.54597e-06
-8.41521e-07
2.5684e-06
-1.71423e-06
7.81251e-07
7.75469e-08
2.4753e-06
-1.74045e-06
-8.04807e-07
6.99625e-08
4.67916e-08
-1.71091e-06
-7.81928e-07
-8.0052e-07
-1.70539e-06
5.88582e-08
-1.71866e-06
-7.79211e-07
5.54524e-08
7.427e-07
2.5165e-06
-7.83895e-07
2.51441e-06
-1.72492e-06
7.40265e-07
5.75745e-08
2.55895e-06
7.55604e-07
-8.19637e-07
-8.3257e-07
7.58161e-07
2.57343e-06
7.47003e-07
2.56546e-06
-8.15117e-07
-2.47341e-06
7.51318e-07
2.51359e-06
-7.91503e-07
7.32141e-08
1.73118e-06
7.54549e-07
1.74523e-06
6.75794e-08
-8.09802e-07
2.55982e-06
2.56573e-06
-1.74317e-06
-1.71419e-06
2.5025e-06
-7.74035e-07
2.55353e-06
-1.72399e-06
-7.92442e-08
2.57618e-06
-1.73878e-06
2.48649e-06
8.33796e-07
8.25417e-07
2.48911e-06
-1.73456e-06
2.54049e-06
1.72873e-06
7.60826e-07
8.38843e-08
7.47187e-07
7.78289e-08
5.36108e-08
7.49076e-07
-2.5267e-06
7.5575e-07
6.55651e-08
-8.22322e-07
2.47414e-06
7.69134e-08
2.48468e-06
-8.13378e-07
7.60816e-07
2.48931e-06
-2.52859e-06
8.02917e-07
-7.75337e-07
1.71552e-06
-6.77275e-08
-5.22562e-08
1.69743e-06
-8.10319e-07
2.43394e-06
7.37847e-08
-1.69741e-06
6.49387e-08
-8.08488e-07
2.4358e-06
-1.69226e-06
2.41691e-06
-8.12398e-07
1.04191e-07
-1.70871e-06
-1.6728e-06
-7.92745e-07
2.38116e-06
8.43782e-08
-2.49399e-06
-7.33114e-07
2.41679e-06
-7.28191e-07
-1.70087e-06
-2.49631e-06
9.03922e-08
-8.07588e-07
-8.02356e-07
5.65391e-08
2.42328e-06
-1.67746e-06
4.67884e-08
2.41632e-06
-1.66584e-06
-7.9726e-07
2.41555e-06
8.67975e-08
-1.69943e-06
-8.02925e-07
-1.66464e-06
5.95602e-08
2.37464e-06
-7.69567e-07
-2.46233e-06
-7.35592e-07
2.39556e-06
-7.33957e-07
-1.68158e-06
-2.46886e-06
6.86288e-08
-7.87263e-07
-8.1961e-07
2.4256e-06
1.25617e-07
-1.73161e-06
1.19033e-07
2.41768e-06
-1.7225e-06
-8.14222e-07
2.43277e-06
1.41247e-07
-1.74643e-06
-8.27595e-07
-1.73409e-06
2.42179e-06
1.27554e-07
-8.15253e-07
-2.54989e-06
-6.94744e-07
2.42503e-06
-6.93701e-07
-1.73716e-06
-2.55588e-06
1.27049e-07
-8.16811e-07
-7.76051e-07
-1.68373e-06
2.36903e-06
9.07462e-08
7.65055e-08
-1.6795e-06
2.37164e-06
-7.68651e-07
2.40508e-06
-1.7195e-06
1.1249e-07
-7.98071e-07
-1.70347e-06
2.38017e-06
9.4033e-08
-7.70726e-07
-2.46104e-06
-6.89624e-07
2.37461e-06
-6.91205e-07
-1.69333e-06
-2.49157e-06
9.84681e-08
-7.77689e-07
-7.36868e-07
-2.48273e-06
2.41111e-06
2.40982e-06
-2.51504e-06
-7.0718e-07
-2.46378e-06
-7.04238e-07
2.37527e-06
7.75852e-07
-2.44635e-06
-7.03547e-07
2.37405e-06
8.14448e-08
1.66725e-06
-2.48556e-06
1.68367e-06
7.11652e-08
2.37193e-06
-7.08942e-07
-7.31167e-07
-1.69502e-06
-1.67949e-06
-7.07305e-07
2.50918e-06
-7.07931e-07
-1.71446e-06
-9.57075e-08
-7.07048e-07
-1.71228e-06
-7.97592e-07
-2.41914e-06
-2.40845e-06
-8.07016e-07
-1.70783e-06
-7.06283e-07
1.70991e-06
-2.52858e-06
1.11487e-07
-2.48552e-06
9.75514e-08
8.33121e-08
-2.46636e-06
6.94142e-07
-2.52714e-06
1.13491e-07
2.40229e-06
-8.02798e-07
1.10418e-07
-7.92177e-07
2.40219e-06
-2.51085e-06
-8.10025e-07
6.94748e-07
-8.00099e-07
-2.39587e-06
-7.77792e-07
2.50957e-06
-7.99816e-07
1.71697e-06
-1.01969e-07
-9.91303e-08
1.70131e-06
-7.93688e-07
-2.2677e-06
-2.19027e-07
1.67142e-06
8.15306e-07
-2.47993e-07
-2.30322e-06
1.71743e-06
8.33783e-07
8.10275e-07
-2.29435e-06
-2.27759e-07
1.71184e-06
1.69084e-06
-2.30911e-06
-2.19326e-07
8.37603e-07
-5.80226e-07
-2.50404e-06
8.16568e-07
-2.50935e-06
1.68113e-06
-5.93011e-07
-2.20197e-07
-2.29209e-06
-2.34874e-06
-2.62242e-07
1.7703e-06
8.40684e-07
-2.67481e-07
1.83772e-06
8.46074e-07
8.44853e-07
-2.66281e-07
1.84471e-06
1.76548e-06
-2.49602e-07
8.58762e-07
-5.73825e-07
-2.61013e-06
8.3521e-07
-2.64967e-06
1.80837e-06
-5.90742e-07
-2.53899e-07
-2.35163e-06
8.13651e-07
-2.3243e-07
1.7704e-06
-2.5854e-07
8.47434e-07
1.84691e-06
8.47887e-07
-2.42627e-07
1.82868e-06
1.76353e-06
8.32618e-07
-2.14984e-07
-5.86709e-07
-2.59199e-06
8.27068e-07
-2.66095e-06
1.81571e-06
-6.0372e-07
-2.24738e-07
-2.35001e-06
1.71294e-06
-2.15477e-07
8.52541e-07
-2.28e-07
1.73722e-06
8.62418e-07
8.46327e-07
1.73509e-06
-2.12387e-07
1.72536e-06
-2.08834e-07
8.6364e-07
-6.29607e-07
-2.5733e-06
8.52896e-07
-2.58615e-06
1.72854e-06
-6.34787e-07
-2.13152e-07
-2.55708e-06
-5.73492e-07
8.27347e-07
8.23533e-07
-5.76098e-07
-2.54179e-06
-6.07316e-07
-2.54198e-06
8.40184e-07
2.33427e-06
-6.06165e-07
-2.57892e-06
8.50813e-07
-2.45662e-07
-1.72259e-06
-5.8883e-07
-1.71422e-06
-2.34936e-07
8.46616e-07
-2.55647e-06
-2.57194e-06
1.7362e-06
1.75352e-06
-2.60929e-06
5.79611e-07
-2.66137e-06
1.81548e-06
2.50138e-07
-2.57033e-06
1.7441e-06
-2.33271e-06
-8.28062e-07
-8.33084e-07
-2.34625e-06
1.76833e-06
-2.59972e-06
-1.72503e-06
-5.88712e-07
-2.28042e-07
-6.08499e-07
-2.2054e-07
-2.3278e-07
-6.08914e-07
2.565e-06
-6.09327e-07
-2.20582e-07
8.31516e-07
-2.33277e-06
-2.2378e-07
-2.33345e-06
8.3769e-07
-6.0546e-07
-2.34539e-06
2.59856e-06
-8.44157e-07
5.97171e-07
-1.76133e-06
2.43e-07
2.31777e-07
-1.75955e-06
-3.72191e-07
6.10259e-07
5.8947e-07
-3.57726e-07
-1.32896e-06
-3.58677e-07
5.99636e-07
1.11367e-06
-3.70383e-07
6.20131e-07
7.22364e-07
2.36137e-07
2.31998e-07
7.3449e-07
6.15315e-07
-3.62477e-07
-3.39792e-07
5.65897e-07
5.45264e-07
-3.23515e-07
-1.30072e-06
5.63855e-07
-3.32507e-07
1.09735e-06
5.94976e-07
-3.48234e-07
7.38565e-07
2.2783e-07
2.2283e-07
7.40878e-07
5.84303e-07
-3.37009e-07
-3.51272e-07
-1.32924e-06
5.97639e-07
5.79994e-07
-1.3179e-06
-3.35621e-07
-1.32617e-06
5.88932e-07
-3.33084e-07
1.09106e-06
-1.35466e-06
6.10962e-07
-3.47371e-07
7.36864e-07
2.54089e-07
-1.34223e-06
2.46391e-07
7.40999e-07
6.04154e-07
-3.38784e-07
-3.74943e-07
1.12828e-06
6.34398e-07
6.25865e-07
1.1238e-06
-3.6665e-07
-1.37998e-06
1.11355e-06
6.30256e-07
-3.63818e-07
1.13922e-06
6.5005e-07
-3.80937e-07
7.52325e-07
2.61606e-07
2.60958e-07
1.11723e-06
7.5501e-07
6.45814e-07
-3.64014e-07
2.32509e-07
7.28773e-07
-1.33396e-06
7.30268e-07
2.45017e-07
7.41049e-07
2.50639e-07
3.59961e-07
7.48518e-07
2.46191e-07
5.98561e-07
-1.10045e-06
7.34402e-07
-1.09788e-06
6.01972e-07
2.45143e-07
2.27166e-07
1.09628e-06
2.47216e-07
-7.37842e-07
2.35179e-07
-5.82194e-07
2.38066e-07
-3.49859e-07
1.31143e-06
1.33072e-06
-3.49642e-07
2.43237e-07
-1.1052e-06
7.38047e-07
6.12174e-07
7.48222e-07
6.30701e-07
6.19463e-07
7.50525e-07
-2.60414e-07
7.49186e-07
6.24773e-07
-1.36044e-06
-3.62782e-07
6.18023e-07
-3.6708e-07
-1.36961e-06
7.46419e-07
-3.53129e-07
-2.55013e-07
-3.50458e-07
1.35348e-06
-3.55737e-07
-7.42879e-07
-3.39842e-07
-1.09599e-06
-5.99361e-07
-6.04589e-07
-1.099e-06
-3.50116e-07
1.07872e-06
1.09735e-07
-1.18846e-06
7.24787e-08
1.16866e-06
-1.24114e-06
-9.86575e-07
1.03243e-06
-4.58584e-08
-1.8859e-08
6.40935e-07
-1.29873e-08
-6.09086e-07
9.49138e-07
1.16699e-06
-1.0374e-06
1.02162e-06
1.03196e-06
1.1617e-07
1.06701e-06
1.24869e-06
-8.38097e-09
-1.2403e-06
-4.29887e-08
-1.31924e-06
1.36223e-06
-1.14264e-06
-1.13923e-07
1.25657e-06
-1.33077e-08
-2.0367e-10
-6.55605e-07
6.69121e-07
1.15346e-06
1.19394e-06
-1.0987e-06
1.11047e-06
1.18276e-06
-2.11949e-09
1.15059e-06
9.92152e-07
-9.24814e-07
-6.73355e-08
-1.13748e-07
-1.09354e-06
1.20731e-06
-1.06704e-06
4.06854e-09
1.06298e-06
4.10001e-08
-7.22077e-07
-6.72014e-08
7.48282e-07
1.11313e-06
9.23751e-07
-1.04471e-06
9.99386e-07
1.0968e-06
-1.32041e-07
1.02914e-06
6.04626e-07
3.04991e-08
-4.43036e-08
-5.90818e-07
-5.40017e-08
2.32777e-08
-5.91153e-07
6.21882e-07
-5.86087e-07
4.32193e-08
-5.5793e-08
5.98664e-07
2.54472e-08
-3.55716e-08
-5.52422e-07
5.62547e-07
6.32252e-07
5.42932e-07
-5.70555e-07
5.61496e-07
1.67564e-08
6.20904e-07
-5.25231e-08
5.96312e-07
1.14279e-06
1.09223e-06
-1.06636e-06
-1.04723e-06
1.03634e-06
1.04333e-06
7.00484e-07
5.55265e-07
-6.14812e-07
-7.33397e-07
7.62856e-07
6.1905e-07
-6.48505e-07
-1.81422e-08
5.95249e-09
1.15499e-06
1.63716e-09
6.2197e-09
-7.33662e-07
7.08342e-07
1.08385e-06
-7.20127e-09
7.69855e-07
-1.16488e-06
1.05096e-06
8.94558e-08
9.46894e-07
1.18679e-06
1.05205e-06
1.17747e-06
1.14151e-06
1.1541e-06
-5.85644e-09
1.05262e-06
-3.43744e-09
6.63549e-07
-7.77841e-08
-4.27467e-08
6.85079e-07
-6.10368e-07
6.99807e-07
-4.62176e-08
-6.92274e-07
6.95404e-07
-8.98544e-09
6.79618e-07
-6.53628e-07
7.38667e-07
1.07471e-06
-7.27714e-07
7.05446e-07
7.59482e-07
6.95454e-07
-1.16167e-06
1.11909e-06
5.42525e-09
2.45839e-08
1.63808e-08
1.70195e-08
7.92883e-07
2.45467e-06
-1.66376e-06
-6.49669e-07
-1.31848e-07
2.44252e-06
-1.65712e-06
-6.53555e-07
-6.60812e-07
2.44511e-06
-1.65868e-06
-1.65983e-06
2.4419e-06
-6.54522e-07
7.90296e-07
2.31769e-06
-6.53312e-07
2.31926e-06
-1.66082e-06
7.8491e-07
2.44336e-06
2.42754e-06
-1.27226e-07
-1.64387e-06
-6.56448e-07
-1.29836e-07
2.40702e-06
-1.62285e-06
-6.54343e-07
-6.65528e-07
-1.17328e-07
2.40905e-06
-1.6262e-06
-1.63098e-06
-1.21177e-07
2.40447e-06
-6.52313e-07
7.88947e-07
2.29475e-06
-6.56154e-07
2.28596e-06
-1.62686e-06
7.86047e-07
-1.22278e-07
2.40648e-06
2.42992e-06
-6.79487e-07
-1.64624e-06
-1.02328e-07
-6.80431e-07
2.41503e-06
-1.63228e-06
-7.03101e-07
2.43141e-06
-1.65453e-06
-1.62575e-06
-6.87245e-07
2.39737e-06
7.92012e-07
2.32177e-06
-6.83868e-07
2.32497e-06
-1.63528e-06
7.86414e-07
2.40828e-06
2.4227e-06
-1.65366e-06
-6.56551e-07
-1.1028e-07
-1.63931e-06
2.40294e-06
-6.53344e-07
-6.66749e-07
-1.63764e-06
2.39513e-06
-1.64487e-06
2.39277e-06
-6.53873e-07
7.70372e-07
2.30869e-06
-6.56361e-07
2.30301e-06
-1.64292e-06
7.62289e-07
2.39855e-06
2.3103e-06
7.87689e-07
-6.55477e-07
-6.66332e-07
7.87857e-07
2.32358e-06
7.811e-07
2.31694e-06
-6.56138e-07
-2.42579e-06
7.79366e-07
2.30334e-06
-6.56911e-07
-1.2297e-07
1.64848e-06
7.84789e-07
1.65406e-06
-1.20061e-07
-6.5725e-07
2.3151e-06
2.30878e-06
-1.64832e-06
-1.63692e-06
2.29511e-06
-7.8928e-07
2.3022e-06
-1.63025e-06
1.15943e-07
2.32079e-06
-1.64888e-06
2.42694e-06
6.66631e-07
6.67739e-07
2.42928e-06
-1.64671e-06
2.30774e-06
1.64892e-06
7.86144e-07
7.76767e-07
-1.11062e-07
7.75084e-07
-2.31582e-06
7.75729e-07
-6.67951e-07
2.42729e-06
2.42391e-06
-6.6993e-07
7.81402e-07
2.42745e-06
-2.31253e-06
2.40101e-06
6.66247e-07
2.40395e-06
-7.85081e-07
2.40685e-06
1.63718e-06
1.06399e-07
1.06059e-07
1.62905e-06
2.40136e-06
5.39342e-07
1.64944e-06
2.076e-07
5.6142e-07
1.64601e-06
-2.36769e-06
5.23678e-07
1.61158e-06
1.62424e-06
5.58146e-07
2.19137e-06
7.56252e-07
7.56041e-07
1.64293e-06
2.15575e-06
5.44102e-07
5.79406e-07
1.87262e-07
1.64239e-06
1.70182e-07
1.64211e-06
5.94731e-07
-2.37687e-06
1.85556e-07
1.61548e-06
5.75841e-07
1.62743e-06
1.82339e-07
5.94696e-07
2.22506e-06
7.60829e-07
7.58874e-07
1.63637e-06
2.20444e-06
1.83827e-07
5.86436e-07
5.23139e-07
-2.32226e-06
1.57136e-06
2.05255e-07
-2.34152e-06
1.58031e-06
5.5595e-07
-2.27888e-06
1.52936e-06
5.30495e-07
1.5436e-06
-2.31569e-06
5.52763e-07
2.10196e-06
7.49309e-07
-2.32813e-06
7.44905e-07
1.56231e-06
2.07271e-06
5.38732e-07
5.74766e-07
1.60798e-06
1.92941e-07
1.61682e-06
5.9318e-07
-2.35848e-06
1.56973e-06
5.73277e-07
1.59217e-06
5.91764e-07
2.19124e-06
7.82074e-07
7.7994e-07
1.60424e-06
2.1611e-06
5.82553e-07
7.59747e-07
2.20852e-06
-2.36908e-06
2.14057e-06
7.52189e-07
2.18902e-06
7.70138e-07
-5.79611e-07
2.21077e-06
7.72792e-07
2.01633e-07
-1.62368e-06
2.1818e-06
-1.62334e-06
1.98064e-07
7.63734e-07
7.59534e-07
1.63625e-06
1.62396e-06
7.6914e-07
-2.17095e-06
7.53752e-07
1.60276e-06
-2.0793e-07
7.49191e-07
1.59931e-06
5.6828e-07
2.37305e-06
2.37607e-06
5.53857e-07
1.61126e-06
7.58974e-07
-1.58799e-06
2.11213e-06
2.15754e-06
1.99885e-07
2.18972e-06
-7.68256e-07
2.11745e-06
-2.36278e-06
5.51016e-07
5.58487e-07
-2.36262e-06
2.14537e-06
5.39064e-07
-7.60309e-07
5.62065e-07
2.37464e-06
5.84217e-07
-2.15386e-06
5.66094e-07
-1.58655e-06
-2.0251e-07
-2.01487e-07
-1.59739e-06
5.75763e-07
1.77575e-06
-7.59963e-07
-6.9503e-07
-3.20763e-07
-7.60273e-07
1.76305e-06
-6.92198e-07
-3.10584e-07
-3.17855e-07
1.77328e-06
-7.59752e-07
-6.95676e-07
-6.97702e-07
1.76558e-06
-7.54923e-07
-3.12954e-07
1.07829e-06
1.01357e-06
-3.16109e-07