/*--------------------------------*- C++ -*----------------------------------*\
| =========                 |                                                 |
| \\      /  F ield         | OpenFOAM: The Open Source CFD Toolbox           |
|  \\    /   O peration     | Version:  2506                                  |
|   \\  /    A nd           | Website:  www.openfoam.com                      |
|    \\/     M anipulation  |                                                 |
\*---------------------------------------------------------------------------*/
FoamFile
{
    version     2.0;
    format      ascii;
    arch        "LSB;label=32;scalar=64";
    class       volVectorField;
    location    "1600";
    object      U;
}
// * * * * * * * * * * * * * * * * * * * * * * * * * * * * * * * * * * * * * //

dimensions      [0 1 -1 0 0 0 0];

internalField   nonuniform List<vector> 
48448
(
(620.075 -361.074 -33.1233)
(106.487 75.3934 6.4823)
(155.636 56.5199 -193.633)
(186.996 1.88645 -397.343)
(545.312 -609.808 -256.261)
(366.205 -381.344 -270.379)
(551.362 -703.566 -155.021)
(395.106 -184.098 -77.1363)
(-323.166 -78.0066 148.858)
(40.0198 249.763 153.855)
(-88.502 28.6317 -100.048)
(5.1304 209.424 42.1877)
(-181.353 45.4993 147.539)
(-72.6896 197.507 3.66046)
(-36.7487 105.728 -76.0181)
(-15.0471 109.072 -120.23)
(145.517 68.9411 -41.191)
(132.334 -266.79 -103.311)
(299.342 -352.347 -176.001)
(-112.668 -65.8199 -140.076)
(-274.786 -114.984 29.5875)
(178.239 -226.062 -43.5632)
(54.4013 93.8148 44.0042)
(206.617 -159.786 -90.607)
(300.319 167.668 -164.314)
(106.48 40.4808 -125.778)
(-25.2457 200.533 -131.403)
(228.636 126.273 -46.3473)
(164.274 249.836 -190.501)
(155.065 218.136 -153.975)
(205.743 118.881 -75.0399)
(176.452 150.931 -69.7694)
(162.492 67.5955 -248.085)
(-85.9228 162.262 -213.465)
(142.564 165.243 -340.773)
(162.89 262.822 -85.3637)
(118.36 87.712 -211.047)
(71.906 154.171 -376.105)
(164.789 131.089 -251.698)
(89.5367 95.6793 -283.518)
(-125.901 -789.898 220.856)
(-5.16006 182.837 -60.6247)
(-113.864 -28.9838 -79.5959)
(-143.889 5.88279 -214.596)
(-90.6455 218.957 -247.381)
(-181.12 79.2422 -120.709)
(-176.707 40.012 -231.788)
(-283.895 57.2286 -157.356)
(-63.0929 36.1101 -91.9227)
(317.401 135.652 -219.816)
(43.3424 102.098 -171.438)
(-162.105 130.142 -125.907)
(90.027 244.132 -194.215)
(269.308 223.978 -187.635)
(-85.8131 179.892 -181.95)
(93.8706 243.478 -127.625)
(-8.51628 -18.4463 -42.1077)
(-250.491 91.491 -116.809)
(-119.348 274.17 -78.3306)
(-14.1517 -206.656 -180.744)
(-219.598 -11.4805 -173.189)
(-178.019 59.028 -120.23)
(-132.274 -56.3499 -184.953)
(-151.168 192.957 -104.255)
(1002.91 -1169.73 -230.478)
(362.025 -230.603 -88.442)
(166.954 105.244 -236.576)
(315.325 56.454 -230.729)
(720.301 -1006.65 13.097)
(703.307 -796.34 -18.2639)
(-88.9661 -183.75 -288.99)
(-73.2251 -17.2708 -298.482)
(155.779 49.7077 -91.2862)
(214.716 -189.493 -280.747)
(-13.0878 13.0173 -268.653)
(-81.9278 -8.59452 -18.2613)
(167.034 25.7949 -110.398)
(223.551 41.7243 -92.7993)
(11.3604 -25.9188 -71.607)
(93.1572 -116.049 -246.285)
(-83.3275 54.0853 -129.803)
(-159.168 111.768 -97.7548)
(31.8383 -33.6782 -172.692)
(139.323 -12.3283 -179.006)
(-14.2957 51.9284 -177.961)
(-170.468 83.2997 -133.345)
(66.6461 9.95135 -219.809)
(-125.967 37.4539 -152.642)
(303.244 -79.0073 -106.942)
(-67.9075 133.815 -174.361)
(249.265 69.8623 -37.2357)
(317.154 125.015 -38.4729)
(186.431 145.344 -117.14)
(106.156 131.372 -83.4996)
(280.321 57.784 -116.683)
(120.632 67.067 -135.856)
(-143.514 134.895 -38.1864)
(33.1486 35.1845 -218.25)
(237.404 55.6244 -324.028)
(-198.898 152.583 -200.57)
(-147.69 88.0179 -87.1206)
(-6.90032 -13.1001 -203.957)
(-131.545 164.32 -246.723)
(65.2354 45.8985 -313.558)
(-134.562 175.815 -69.0874)
(-187.594 96.4877 -129.482)
(-3.35932 118.649 -184.782)
(-240.956 -43.7687 -97.4489)
(-137.425 149.584 -89.1086)
(-99.8187 89.811 -123.456)
(-136.426 91.681 -133.116)
(-129.505 80.6745 -128.992)
(206.776 99.6246 -235.022)
(403.217 67.0277 -211.301)
(-74.9149 197.14 -199.026)
(210.179 52.9242 -126.095)
(244.531 119.003 -188.962)
(120.154 121.425 -199.673)
(92.1827 89.4559 -156.437)
(78.5337 142.355 -229.563)
(-117.097 43.9547 -156.836)
(-9.01662 51.0276 -174.567)
(-175.011 153.964 -115.863)
(-151.986 179.624 -98.5308)
(-87.2822 110.928 -133.425)
(-1.93764 57.1895 -148.685)
(-179.003 163.539 -114.681)
(-159.437 169.09 -118.92)
(113.609 -154.193 -229.787)
(42.4129 -109.005 -131.548)
(32.0443 64.4537 -56.341)
(-32.0827 35.0865 -131.904)
(78.7092 -120.864 -219.519)
(72.2425 -135.808 -174.783)
(4.88148 -19.28 -210.083)
(97.1857 3.84118 -173.712)
(-149.425 -138.195 329.208)
(-255.083 -179.953 398.451)
(-269.274 5.75028 228.23)
(-171.043 -196.612 368.32)
(-203.952 -185.836 435.434)
(-255.412 -73.5119 386.102)
(-248.28 -126.982 312.36)
(-295.685 -17.2056 338.006)
(-189.41 55.3564 5.83705)
(-209.024 144.492 45.9733)
(-170.111 57.7292 -124.56)
(-178.188 57.5635 -20.8166)
(-199.79 56.4701 -9.66847)
(-235.947 111.186 -30.3615)
(-210.478 7.93072 -50.4694)
(-283.366 84.5477 -77.6686)
(-90.1846 51.3696 -173.155)
(-110.578 -363.893 -21.609)
(-1.42408 -143.754 -317.906)
(-172.279 -489.211 -22.0721)
(-183.047 -259.081 -48.3705)
(-163.281 -147.654 -62.2591)
(-129.46 -251.633 -120.954)
(-33.4115 -201.185 -147.701)
(45.286 -51.847 -126.832)
(-34.7051 31.0336 16.7541)
(-86.014 19.3685 -76.972)
(-8.96876 -195.503 59.5355)
(80.6936 -10.3175 -178.73)
(67.6595 -28.8959 -176.415)
(69.1124 61.4519 -123.912)
(29.2191 -23.4368 -160.638)
(-100.27 -29.6225 171.105)
(-103.197 -96.6207 111.005)
(-256.787 98.1127 175.496)
(-163.281 59.5273 147.956)
(-139.082 -62.9461 59.5687)
(-153.512 -85.5605 158.245)
(-185.831 13.5736 172.791)
(-203.143 -55.3417 163.498)
(57.2923 -28.3623 -174.105)
(-65.4996 21.4058 -104.983)
(-44.9217 -206.762 -24.1844)
(47.1076 -68.2093 -235.538)
(42.9846 -16.3103 -167.504)
(10.0766 10.7722 -152.693)
(36.314 -48.7035 -78.2441)
(-39.4692 2.5426 -170.965)
(-179.241 82.0259 27.6074)
(-88.3482 -4.11446 -75.2371)
(-121.667 -79.2958 53.128)
(-240.429 183.868 56.3675)
(-215.41 62.419 27.5627)
(-101.121 -37.1115 51.0605)
(-246.656 65.5503 30.9042)
(-193.637 -95.7217 -7.00526)
(108.32 -182.682 -128.153)
(24.2579 -66.2519 -90.9791)
(-44.5003 75.4048 120.815)
(-97.4368 25.1412 -105.585)
(94.7613 -161.187 -123.243)
(23.4319 -90.0812 -131.204)
(-48.1841 -54.6278 -210.802)
(-48.3797 -20.6674 8.60189)
(-134.654 -108.923 438.003)
(-227.994 -127.994 387.642)
(-245.683 -28.1614 353.324)
(-238.204 77.0924 183.552)
(-269.225 -91.8785 387.221)
(-230.52 -125.135 445.827)
(-229.849 2.90577 250.168)
(-225.721 -45.3489 333.585)
(-85.0033 21.7921 158.078)
(-229.473 -25.974 277.903)
(-167.164 12.7411 205.227)
(-100.189 57.9016 72.5385)
(-204.465 10.3855 174.523)
(-233.761 -37.18 265.422)
(-137.792 63.2304 124.23)
(-171.689 -9.16167 202.479)
(-117.901 52.8745 26.731)
(-54.7626 45.535 -1.98736)
(121.329 -55.9559 -20.3391)
(62.642 -41.3706 -133.183)
(-94.8579 67.2759 21.8143)
(-47.0861 10.8933 21.2472)
(2.00752 -4.36833 -62.9037)
(89.2462 -91.4385 16.1981)
(-69.0916 -65.5149 -89.64)
(-88.1497 43.4375 150.504)
(-83.8978 63.1099 131.307)
(-246.014 51.3069 170.191)
(-58.6192 -24.1039 -19.1848)
(-137.016 51.1047 164.738)
(-154.81 59.6674 127.908)
(-214.141 63.8998 228.478)
(-97.427 -95.5568 251.757)
(-279.855 57.8917 234.244)
(-241.406 -29.5727 342.527)
(-86.5407 -1.81154 122.908)
(-105.44 -14.2136 140.09)
(-241.544 -2.76142 259.165)
(-104.242 -18.6635 137.083)
(-250.301 -25.155 225.26)
(-92.8571 50.8668 164.813)
(-114.257 76.3235 70.2851)
(-215.6 43.6469 107.521)
(27.6751 30.4309 0.202474)
(-132.719 53.4616 126.88)
(-181.847 84.0244 182.375)
(-88.7278 -16.8907 43.0309)
(-123.427 31.1849 57.7612)
(-75.7265 6.08182 153.456)
(-185.779 45.2741 146.589)
(-230.842 44.3045 185.171)
(-223.498 -16.9002 264.539)
(-208.777 7.22133 183.913)
(-213.406 36.667 173.349)
(-218.716 -7.92397 176.091)
(-209.956 32.1852 152.145)
(-182.648 -109.258 377.9)
(-259.157 31.8654 248.84)
(-186.376 150.781 152.973)
(-74.3275 160.498 207.567)
(-229.008 -75.5279 335.518)
(-276.574 59.7001 257.603)
(-243.871 182.711 191.113)
(-266.989 176.376 209.546)
(-282.884 21.5938 232.795)
(-219.146 0.976668 181.562)
(5.71992 37.195 -43.3756)
(119.705 61.6192 6.21571)
(-266.511 -6.5154 197.879)
(-222.47 11.4909 184.459)
(-91.0919 55.4989 146.186)
(-64.3991 80.0803 115.283)
(118.765 -46.9297 -14.8713)
(179.961 -119.605 -122.672)
(222.52 -110.609 -165.751)
(243.735 -122.898 -142.646)
(107.793 -37.159 -76.4218)
(119.857 -113.301 -83.8171)
(188.085 -78.8132 -118.535)
(222.394 -78.7865 -159.665)
(122.095 7.56194 50.1207)
(285.833 -22.0753 49.504)
(279.718 -87.5468 -58.6532)
(336.98 -23.1346 -12.8235)
(180.75 28.7835 19.4199)
(264.447 0.0107731 56.9434)
(332.742 0.629293 -26.731)
(351.357 -58.5845 -9.17951)
(-285.069 41.1274 224.612)
(-156.17 87.7421 155.883)
(-53.9637 49.2072 199.162)
(158.539 37.7664 67.427)
(-132.998 152.828 217.603)
(-185.042 152.88 237.915)
(104.776 95.6014 131.467)
(103.992 50.1056 143.863)
(-270.606 61.6278 205.101)
(163.364 50.8662 29.4476)
(-54.0354 -51.7823 -46.3234)
(-133.457 69.8658 97.3465)
(-154.331 142.883 204.678)
(-112.965 72.6599 166.333)
(-121.181 59.3322 96.3077)
(-100.259 -75.3042 13.9774)
(93.7074 23.6946 47.8972)
(128.864 30.8192 98.3512)
(279.142 16.6807 83.1205)
(229.232 -68.9402 -28.4052)
(52.9378 67.6091 12.1446)
(167.931 62.3961 88.7235)
(87.5467 10.5314 -37.9889)
(234.91 24.88 67.2797)
(100.485 -8.26644 4.1086)
(251.305 -62.5354 -71.2925)
(271.286 -12.217 66.7467)
(158.164 -79.0732 -72.8864)
(143.039 -39.7798 -39.1439)
(115.661 -18.4933 -5.63111)
(153.948 -86.6646 -61.1724)
(100.596 -38.9469 -52.8728)
(-41.1998 -632.361 194.61)
(-415.585 -442.558 320.4)
(-276.869 -304.026 555.194)
(-260.12 -913.13 106.416)
(-147.269 -651.989 463.904)
(-336.726 -370.345 448.421)
(-248.067 -661.492 203.253)
(-514.251 -726.38 227.97)
(-711.099 -157.851 -3.95294)
(168.32 455.915 857.693)
(-311.085 275.501 540.408)
(54.2334 -247.773 -772.171)
(-516.919 -713.463 -386.571)
(129.017 180.552 717.701)
(-675.7 -759.773 -675.413)
(22.1 464.022 378.061)
(-434.518 -406.4 672.314)
(-456.179 -192.071 601.573)
(-336.81 -365.927 579.987)
(-619.006 -878.227 -286.284)
(-472.218 -509.744 528.813)
(-381.042 -266.156 640.026)
(-483.851 -491.115 282.772)
(-379.26 -359.522 579.966)
(159.372 -1074.49 -814.556)
(221.245 -464.815 -1999.25)
(41.6726 -1030.75 -1224.65)
(285.795 -404.275 -1102.35)
(136.022 -771.376 -1216.54)
(62.1279 -844.383 -1313.26)
(115.472 -808.661 -1223.51)
(51.6571 -673.736 -1435.68)
(-252.812 -936.642 164.423)
(-456.624 -790.539 322.583)
(-152.386 -1096.44 -305.861)
(90.5128 -586.891 -904.811)
(-282.539 -866.021 102.701)
(-486.15 -1263.75 131.03)
(-115.362 -593.674 -572.669)
(-505.116 -1049.74 -188.796)
(-396.935 -430.167 1016.56)
(-284.842 -324.925 -859.778)
(-385.62 -198.21 784.937)
(-381.253 -408.136 923.239)
(-802.417 -429.068 -217.579)
(-98.5317 -326.454 -1167.26)
(-749.673 -552.701 1198.61)
(-685.302 -587.157 995.557)
(-319.993 -1082.92 116.591)
(-9.04144 -1001.04 -502.688)
(199.149 -669.94 -1029.63)
(-175.99 -991.346 -935.076)
(-493.397 -847.96 -276.788)
(-17.208 -936.946 -475.763)
(-202.593 -654.162 -396.861)
(156.87 -1036 -580.593)
(-363.902 -468.529 625.789)
(-229.028 -474.362 -829.59)
(86.8344 -336.05 -1229.16)
(-443.894 -166.468 537.376)
(-313.163 -505.79 190.677)
(-270.491 -414.49 -86.8114)
(-25.1289 -398.309 -703.407)
(-2.923 -576.329 -600.834)
(2051.21 -1829.17 -375.379)
(585.166 143.857 -371.072)
(1191.83 -1275.89 -375.744)
(656.437 -188.346 -588.813)
(1388.1 -1543.19 -538.693)
(1073.58 -1009.51 -221.766)
(1345 -1551.46 -474.618)
(1216.95 -1346.97 -379.246)
(-230.777 35.545 -267.132)
(-94.0698 5.391 -155.673)
(-34.5556 63.1689 -231.439)
(-49.1209 119.939 -92.1394)
(-83.0909 41.1807 -72.7918)
(-132.684 27.2024 -139.254)
(-135.62 27.7131 -189.013)
(-118.747 56.739 -144.857)
(930.943 -1089.55 -281.898)
(103.676 434.455 -68.93)
(601.713 -733.69 -44.7589)
(276.534 -7.87321 -71.8629)
(872.442 -1119.22 -195.953)
(602.365 -713.841 -87.945)
(901.885 -1082.64 -166.297)
(759.75 -897.432 -112.935)
(357.258 -111.998 -251.839)
(176.362 -22.9925 -475.035)
(143.137 -43.4849 -46.1772)
(141.5 -286.098 -309.54)
(68.4622 231.213 10.224)
(228.108 -39.9231 -483.759)
(74.165 -157.551 -187.106)
(-46.9065 2.8823 48.2331)
(-179.521 -193.569 -589.54)
(1101.48 -1297.47 -300.554)
(436.085 -209.681 -262.517)
(-4.02036 172.985 -119.638)
(27.1002 -109.11 -60.2823)
(918.596 -1193.97 -82.7121)
(-37.4847 -220.474 -289.467)
(57.4977 -3.97978 -370.154)
(-216.334 139.861 -212.804)
(-166.161 131.199 -137.176)
(-28.5384 201.709 -45.9205)
(794.299 -1039.46 -222.723)
(-102.235 128.889 -90.2219)
(-24.1881 7.29833 -45.7217)
(-215.806 247.168 -182.028)
(-100.511 89.6725 -75.2358)
(1078.61 -1262.3 -294.51)
(508.25 -218.957 -262.793)
(40.3828 -23.1134 -293.252)
(357.348 -146.717 -133.539)
(463.333 -168.382 -186.565)
(231.284 -88.6867 -292.472)
(169.635 -36.4128 -160.321)
(162.449 62.8776 -309.589)
(948.298 -1161.45 -291.902)
(-39.5521 99.0254 -82.3599)
(-52.194 120.011 -114.123)
(6.50482 174.59 -58.1793)
(607.058 -974.974 -13.4105)
(-16.9027 79.3779 -96.3324)
(-139.958 98.4689 -97.975)
(-121.566 37.718 -73.139)
(-936.728 -519.337 -2031.35)
(-858.773 -705.141 -2784.07)
(-126.07 -225.734 -628.197)
(-219.038 -560.129 -1759.05)
(-988.878 -984.45 -2595.98)
(-737.128 -443.298 -2262.54)
(-462.809 -601.931 -1547.19)
(-432.299 -398.192 -1488.07)
(-836.527 -665.13 -3335.67)
(-665.296 -737.781 -3911.37)
(-1.62033 -330.751 -654.797)
(209.996 -514.758 -1849)
(-900.298 -927.75 -3694.53)
(-752.14 -707.367 -3718.07)
(-445.889 -393.223 -1853.12)
(-33.5576 -207.235 -1632.7)
(1389.72 163.733 124.065)
(1079.02 654.035 1579.27)
(586.525 -356.041 1306.9)
(711.524 -958.583 544.822)
(1455.45 869.298 1538.86)
(820.133 281.707 -430.81)
(645.42 -1202.48 1330.39)
(1055.32 -565.595 646.201)
(345.11 65.1199 -964.702)
(561.049 -51.6412 -1130.35)
(-297.91 -840.615 -602.401)
(-33.9152 -437.033 -386.01)
(447.259 205.171 -1362.1)
(140.537 -178.674 -1166.02)
(298.89 240.863 -959.719)
(335.9 -16.9638 -1024.18)
(-897.019 -859.54 -3200.59)
(-85.3973 -562.061 -995.266)
(-1.93868 -462.734 -1889.02)
(57.9213 -484.742 -1991.45)
(-347.098 -665.963 -1641.86)
(-291.25 -779.279 -1676.87)
(-122.573 -432.615 -1955.51)
(-272.592 -552.505 -1710.9)
(-746.273 -524.075 -2783.04)
(-122.284 -532.372 -1876.37)
(-111.05 -290.206 -817.094)
(-60.7482 -421.754 -870.723)
(-255.406 -596.13 -1675.27)
(-271.909 -620.122 -1669.84)
(96.728 -719.984 -1216.5)
(547.927 -232.027 -823.011)
(-481.831 -1038.6 104.863)
(-139.762 -61.9596 -1057.13)
(192.468 52.587 -1552.81)
(474.675 130.512 135.03)
(-535.721 -887.671 214.446)
(26.0643 -213.621 -1282.17)
(-442.872 220.554 -311.322)
(71.6344 -73.9563 -1481.7)
(-215.815 90.8441 -159.699)
(2231.53 -275.868 538.286)
(299.418 196.975 -1307.5)
(2489.18 513.451 1249.03)
(865.211 -117.507 872.434)
(-376.163 312.815 -289.783)
(287.852 993.761 -547.326)
(-428.817 10.6775 -762.468)
(-424.645 -626.8 -1052.88)
(655.644 -697.759 260.441)
(-491.749 -599.681 -2328.19)
(-465.581 -58.6762 -1446.48)
(120.491 -522.427 -523.832)
(699.235 -2456.52 -801.157)
(-420.335 719.341 -1844.61)
(-45.6094 -158.486 -1016.77)
(-67.0365 92.3043 502.754)
(555.52 -293.553 1259.91)
(-851.803 -232.798 -1154.82)
(234 -219.596 -372.537)
(-158.097 -354.113 494.846)
(388.725 -284.086 1000.89)
(-321.766 -229.031 -346.886)
(184.898 -780.957 806.625)
(-361.748 256.743 -4758.69)
(-1051.66 556.901 -38.3505)
(-738.635 -301.438 -5101.05)
(233.327 -338.525 -2311.81)
(-1444.23 -318.167 -3530.17)
(3684.52 2113.32 463.727)
(-1472.45 -902.919 -3380.66)
(-136.268 -357.808 -2519.38)
(73.1356 -801.197 -971.853)
(-327.234 -1189.92 -632.891)
(-412.364 -26.9697 -1129.79)
(-194.458 203.147 -252.049)
(371.876 -955.435 -874.291)
(-118.808 -1490.15 -288.63)
(76.4611 91.8693 -1939.3)
(475.332 37.3673 -1268.38)
(313.058 -148.278 391.476)
(-654.618 -335.449 -1210.38)
(-315.04 -70.304 -959.405)
(-352.223 -370.023 53.6651)
(71.0334 346.686 -1163.95)
(3.31181 562.108 -905.115)
(-641.387 16.3707 -499.681)
(-682.118 63.7261 -801.383)
(342.839 -25.0059 770.23)
(-559.238 131.982 -887.98)
(-1207.55 -558.27 -1653.5)
(-26.2654 -231.464 -1518.43)
(-445.69 163.601 -21.0061)
(152.191 -39.524 420.677)
(208.037 -286.482 -1668.29)
(-502.706 -168.206 -474.472)
(-161.474 -854.348 -2618.1)
(-53.9503 -1275.82 -1508.64)
(-625.205 -1004.48 521.865)
(-191.031 99.8811 -2824.4)
(-319.127 -617.865 -2300.6)
(-409.786 -275.878 -1113.33)
(241.578 -914.56 -1847.43)
(-597.028 -738.337 654.086)
(-894.423 -128.209 -1106.95)
(319.31 57.7858 -2088.27)
(-322.729 41.1155 -456.965)
(-203.437 613.074 -294.324)
(-2083.32 -233.465 1933.33)
(338.538 -606.576 1005.86)
(-2357.5 -942.124 902.542)
(-401.954 -678.605 -239.396)
(456.738 29.722 775.662)
(158.461 60.7051 537.724)
(385.724 -49.2067 800.943)
(210.765 150.637 414.656)
(321.211 54.4375 683.431)
(302.126 66.3862 668.111)
(330.55 101.58 649.706)
(344.595 82.2336 601.231)
(-46.0146 59.6196 377.481)
(-138.857 81.4762 359.685)
(-194.588 242.104 319.298)
(-224.919 432.83 511.583)
(-92.0369 111.734 378.177)
(-103.005 2.24448 382.277)
(-158.228 390.041 397.032)
(-163.555 295.972 450.26)
(292.103 59.3396 659.893)
(51.4011 276.509 517.395)
(-113.932 122.225 698.967)
(-217.134 175.823 639.951)
(119.465 159.633 486.215)
(231.884 101.857 600.571)
(-121.131 383.663 503.004)
(-110.228 351.147 533.519)
(-156.268 77.0407 426.124)
(-47.5828 138.753 520.27)
(-201.348 4.11511 585.8)
(-105.45 -334.076 731.732)
(-114.85 148.417 419.892)
(-30.4216 282.617 474.515)
(-234.281 -127.3 496.45)
(-262.736 -25.3568 490.57)
(40.9782 131.495 497.612)
(245.058 70.8944 593.122)
(11.3254 306.435 435.854)
(-179.256 358.765 508.231)
(84.3892 418.088 446.667)
(230.888 318.328 416.603)
(-139.393 375.58 453.766)
(-18.5397 250.569 432.341)
(-6.70824 -2.68212 508.663)
(-185.65 416.833 434.979)
(40.647 244.137 429.734)
(379.972 53.1945 651.7)
(45.2519 207.117 479.026)
(-139.142 345.726 410.326)
(243.94 151.848 488.802)
(29.113 190.211 435.83)
(100.33 288.753 466.783)
(-96.1416 344.584 409.764)
(-71.2838 207.202 516.763)
(-184.246 175.021 545.362)
(18.2116 406.954 488.933)
(-114.401 311.194 468.29)
(-51.0439 341.74 414.862)
(-49.0481 287.756 472.677)
(105.002 162.887 564.791)
(-184.991 252.777 502.816)
(-104.106 235.238 481.131)
(-25.5272 254.274 472.826)
(91.8035 376.843 438.208)
(-9.98162 394.603 520.214)
(15.2073 279.303 462.755)
(-75.9471 315.606 500.342)
(249.582 86.484 882.181)
(77.4847 90.5615 640.052)
(193.074 183.596 765.912)
(-29.9424 182.107 557.566)
(160.684 60.9237 745.021)
(221.669 90.4072 780.872)
(38.0212 180.005 594.132)
(45.7936 201.07 587.647)
(60.8948 146.025 673.24)
(-15.886 211.332 593.92)
(2.53674 222.812 412.935)
(-164.653 188.841 596.498)
(53.5679 139.703 639.827)
(24.9714 193.294 660.391)
(-73.0254 279.416 515.066)
(-81.3106 333.182 511.507)
(3.03996 174.122 506.218)
(-131.188 270.836 401.941)
(-106.243 131.985 351.188)
(-202.108 362.173 501.84)
(-65.7971 186.856 422.073)
(-44.9132 175.164 458.412)
(-134.255 242.766 444.747)
(-143.47 258.874 473.725)
(-150.502 147.86 555.636)
(-210.094 23.1285 584.8)
(-69.2029 148.688 516.48)
(-100.227 -276.533 691.432)
(-186.989 111.562 600.704)
(-163.918 100.797 528.751)
(-186.137 9.65471 505.283)
(-194.619 28.4596 493.843)
(95.8765 113.974 703.3)
(141.928 212.789 614.584)
(-65.8393 206.468 559.105)
(-128.892 205.031 586.659)
(-37.0798 218.192 527.313)
(-24.7539 224.441 502.647)
(-100.532 212.693 571.05)
(-62.3547 219.682 560.37)
(110.201 107.254 649.823)
(-129.803 236.123 576.774)
(72.1911 197.747 491.359)
(161.649 162.738 650.173)
(-31.6391 254.351 511.17)
(-62.4229 279.674 503.196)
(107.625 210.71 538.66)
(27.2877 240.672 481.066)
(-36.9479 260.357 433.595)
(-131.529 223.452 516.294)
(-153.584 220.621 505.621)
(-131.673 254.589 470.95)
(-122.586 258.376 461.987)
(-124.145 235.698 517.305)
(-131.254 287.149 487.382)
(-138.275 249.562 528.206)
(-50.8323 268.579 465.609)
(-118.704 249.797 475.477)
(-154.884 259.29 502.482)
(-70.3262 293.394 423.926)
(-120.957 297.741 387.236)
(-110.205 282.764 475.867)
(-65.063 263.163 439.153)
(-96.7933 283.974 508.547)
(1460.27 474.632 -3333.17)
(422.416 81.5562 -2363.78)
(602.761 387.267 -3483.9)
(314.029 -363.427 -5090.92)
(1101.51 270.683 -3589.08)
(1267.75 288.362 -4329.69)
(1002.75 210.517 -3892.64)
(1048.31 178.756 -4508.37)
(207.554 -82.9091 -1044.92)
(-29.4006 -96.1962 -233.797)
(-10.4716 -322.544 -399.592)
(369.287 -33.0075 -1409.02)
(368.385 -229.058 -943.31)
(-4.4192 -622.958 441.649)
(272.424 -118.985 -1420.92)
(-24.9112 -429.937 -84.8411)
(809.576 -376.316 -4101.75)
(145.034 -131.499 -1329.74)
(429.643 268.02 -2493.57)
(588.656 172.372 -6212.81)
(426.469 137.717 -3950.84)
(410.289 -1475.39 1361.11)
(323.48 97.9904 -5838.55)
(-138.177 550.245 -1823)
(246.182 -372.559 -5245.17)
(320.535 -290.186 -3406.03)
(469.503 -434.34 -8657.37)
(339.279 -479.938 -4624.72)
(207.728 -529.471 -5734.96)
(476.121 -519.981 -6410.27)
(176.851 -341.249 -5070.75)
(454.411 -704.26 -6600.35)
(735.892 -86.9598 -2379.48)
(358.536 100.148 -4208.87)
(448.456 -327.51 -5518.89)
(285.642 -139.913 -3023.93)
(444.591 -114.333 -2640.58)
(884.304 6.35691 -4937.52)
(857.98 -224.283 -2874.1)
(806.449 -379.443 -6181.85)
(525.827 -64.0083 -1862.21)
(504.402 -263.41 -3040.47)
(242.822 -1328.32 1015.94)
(874.727 46.1089 -2466.01)
(443.913 134.465 -2309.89)
(488.912 120.431 -2297.13)
(248.306 -136.199 -2127.88)
(408.822 -120.497 -2318.93)
(412.401 31.2231 -5579.59)
(290.185 -310.689 -5191.71)
(562.095 40.787 -3311.86)
(351.47 -49.2251 -8128.93)
(483.946 -212.722 -6782.55)
(684.822 -442.592 -6432.37)
(425.799 -325.735 -6848.49)
(704.687 -470.991 -6000.65)
(184.483 223.362 -3090.22)
(251.938 -152.723 -6613.54)
(470.536 -259.463 -3135.36)
(-69.5699 -260.02 -1038.19)
(387.054 619.968 -3670.98)
(362.905 -548.864 -4951.48)
(315.286 -42.0143 -3226.73)
(414.977 -33.3594 -3837.97)
(-13.4613 160.38 -4047.77)
(-83.3535 308.723 -2931.21)
(-243.667 -26.4928 -1388.71)
(961.036 -244.435 -6511.99)
(137.345 -87.9251 -4742.13)
(88.0552 534.252 -3841.02)
(-86.1572 -527.926 -3693.19)
(15.0178 63.774 -3539.44)
(111.181 299.293 -3460.74)
(-31.3224 313.63 -2136.14)
(304.127 15.2 -1728.26)
(513.493 22.6224 -6332.33)
(94.8819 241.267 -3280.47)
(170.345 333.828 -2893.97)
(-307.714 75.4757 -2758.73)
(-212.162 226.883 -2768.33)
(-13.7281 39.6765 -618.802)
(145.439 -50.6116 -862.06)
(44.1987 -182.264 -126.121)
(153.374 -143.388 -1303.09)
(119.929 -4.5388 -773.806)
(78.688 15.0963 -543.39)
(-72.878 -38.6302 -381.247)
(-31.6126 110.961 -155.077)
(534.179 -520.016 -6697.49)
(511.061 -548.938 -8655.7)
(165.462 -155.683 -3218.46)
(61.5165 -578.563 -5187.3)
(799.383 -695.876 -6916.78)
(823.123 -449.468 -6197.93)
(329.608 -604.185 -5685.08)
(680.576 -322.03 -4659.39)
(462.274 -42.312 -5472.78)
(121.491 -242.778 -1796.64)
(1090.25 -344.38 -7380.71)
(632.274 -291.53 -8243.13)
(-435.507 -7.36874 -3800.1)
(-223.335 91.4771 -3116.41)
(247.33 137.254 -6806.74)
(1047.01 49.2884 -6055.03)
(253.319 140.371 -4192.78)
(653.896 -59.8582 -7237.11)
(144.236 -141.435 -1371.03)
(-1.54464 77.8183 -1131.59)
(-260.782 -9.2092 -3868.75)
(-234.549 41.9837 -3457.44)
(50.4874 79.513 -1263.15)
(275.191 -207.346 -2177.56)
(-68.8643 -209.968 -1586.17)
(360.15 -723.604 -6088.71)
(-41.5169 -637.926 -6976.59)
(270.465 -285.989 -2771.93)
(251.542 -162.622 -2989.75)
(509.459 -386.819 -5836.54)
(401.201 -366.339 -3931.52)
(475.345 -212.499 -5506.34)
(-17.1581 9.57058 -1344.74)
(661.837 -77.5828 -2719.7)
(140.31 -458.503 -6911.97)
(-123.788 -91.0495 -1210.8)
(-76.3013 126.651 -1047.44)
(642.01 -124.915 -3240.41)
(-141.847 -37.96 -1216.35)
(126.619 -266.573 -3798.06)
(712.414 -2907.78 12.9733)
(934.452 -2666.96 -18.8249)
(382.391 -1438.63 -89.0361)
(375.422 -1215.13 49.424)
(771.961 -2618.76 -14.5612)
(795.045 -2734.43 -17.772)
(508.938 -1527.48 11.5171)
(276.192 -1225.67 -18.5592)
(1054.98 -2453.39 1.96305)
(1234.57 -2050.52 31.7905)
(426.813 -806.27 -0.00362996)
(234.359 -546.974 -69.2618)
(1072.33 -2225.93 95.6577)
(1151.33 -2290.82 38.6078)
(353.19 -1119.8 -38.0554)
(190.755 -432.069 -74.419)
(30.0261 -78.8659 -168.977)
(-56.6799 -22.0509 -124.641)
(12.6442 -39.3408 -198.805)
(113.885 7.35256 -174.662)
(-0.615832 4.65843 -185.836)
(-64.6068 2.69049 -190.962)
(74.0695 -11.3264 -218.884)
(47.1254 -6.31486 -163.291)
(130.176 143.515 -199.618)
(422.675 -265.412 202.839)
(240.956 -57.9674 -49.6034)
(298.838 -6.82038 -0.919554)
(93.5864 -39.0047 -72.9904)
(376.908 -230.438 -11.4424)
(323.443 -37.25 -74.9557)
(310.067 -46.5839 -71.3373)
(992.781 -2501.65 44.2483)
(305.723 -1313.5 -38.314)
(373.721 -1048.22 -4.21659)
(347.481 -791.939 -42.2788)
(490.757 -1458.05 18.6919)
(380.405 -1246.51 -24.9394)
(431.641 -1067.4 57.1812)
(406.391 -1246.02 42.7674)
(1053.69 -2568.92 28.0871)
(367.538 -914.834 -85.0516)
(368.659 -1007.26 -52.2111)
(333.953 -1346 -51.799)
(376.096 -1078.94 29.3437)
(333.501 -1004.81 -118.146)
(448.561 -1283.29 60.0338)
(373.025 -977.155 6.40276)
(-62.1923 -299.772 -6.9374)
(215.27 160.789 182.583)
(451.577 -272.689 231.635)
(290.796 -44.8032 -62.3967)
(19.8804 34.5142 104.149)
(450.012 -366.989 202.085)
(111.147 -20.4514 -5.28045)
(411.013 -213.334 201.799)
(-143.747 229.624 -57.8993)
(227.313 -10.7305 -83.4602)
(290.277 -292.186 96.0633)
(-26.5536 108.141 9.75965)
(141.327 -59.4857 -293.919)
(191.369 -25.7278 -104.909)
(131.935 -248.699 -20.0421)
(185.95 -44.3204 -100.964)
(2076.97 -3247.34 -204.307)
(1301.76 -3477.92 18.6612)
(1482.5 -2644.51 -100.739)
(727.819 -2208.09 -454.207)
(1594.73 -3006.76 -210.039)
(1605.91 -2963.43 -143.037)
(1409.3 -2648.41 -124.305)
(1522.74 -2822.16 -80.8449)
(906.261 -3433.74 42.9731)
(697.079 -3035.62 -16.5069)
(841.004 -2724.14 -26.2706)
(452.931 -1434.32 -126.49)
(730.387 -3017.24 44.9796)
(745.64 -2899.11 16.4169)
(818.777 -2804.29 71.8552)
(767.77 -2739.18 42.9061)
(1341.49 -2220.47 -125.853)
(1056.24 -2554.59 -24.1777)
(1253.07 -2215.62 -18.2998)
(334.001 -1010.65 -30.2485)
(1270.42 -2472.05 -9.92757)
(1204.97 -2410.41 -29.7816)
(1174.51 -2336.28 5.80882)
(1137.47 -2323.25 -20.524)
(-26.9295 13.9538 -94.4685)
(-6.91016 -7.38338 -254.292)
(-97.248 62.251 -94.5838)
(-63.7915 17.1808 -140.554)
(-119.381 -63.8703 -162.603)
(-121.391 0.405571 -146.776)
(-117.86 37.8679 -114.546)
(-141.329 29.6661 -154.313)
(1100.76 -3095.06 -24.6781)
(1508.76 -2747.32 -15.4218)
(324.042 -1679.39 -323.988)
(198.085 -1504.26 -165.564)
(1181.79 -2964.94 51.9518)
(1543.64 -2829.41 24.956)
(686.324 -2096.39 -326.682)
(875.606 -2027.52 -200.11)
(1157.1 -2985.06 -66.1363)
(609.933 -2350.02 -69.3572)
(1077.94 -2692.96 -81.3155)
(1375.69 -2632.78 -91.7502)
(1099.53 -2886.3 -38.1021)
(1143.7 -2835.57 51.2125)
(1141.89 -2867.6 -80.1527)
(1135.13 -2788.64 -5.0202)
(1420.73 -2612.45 70.6477)
(-73.7005 -488.734 -115.69)
(14.0367 -463.491 -79.2681)
(113.784 -453.504 -2.41965)
(752.436 -1563 201.288)
(469.091 -1232.21 47.0645)
(470.682 -1231.52 12.3188)
(76.3399 -664.09 -324.136)
(1281.29 -2568.84 -52.8523)
(456.183 -1050.11 -50.0018)
(424.858 -1496.38 42.1626)
(1046.31 -2593.89 -0.86466)
(1289.66 -2633.79 62.1608)
(669.609 -1551.03 -10.1884)
(1115.78 -2699.9 93.1625)
(337.834 -1461.71 13.3099)
(426.51 -217.85 923.503)
(113.583 -97.9961 62.3088)
(623.78 214.626 454.404)
(453.162 -64.3071 1007.28)
(344.788 -144.842 836.336)
(122.604 -131.159 448.283)
(410.351 -152.551 897.178)
(-49.436 -78.4347 -299.098)
(20.3342 80.9601 140.812)
(14.2609 172.488 276.161)
(52.9908 72.5176 465.097)
(3.2875 -98.6737 970.501)
(-67.4064 182.452 136.897)
(5.31895 192.499 387.282)
(-130.395 133.92 139.252)
(-10.6389 82.9744 418.194)
(502.021 165.854 618.099)
(237.167 -40.6329 798.571)
(507.735 188.843 777.857)
(377.549 -73.3534 1225.27)
(214.459 18.8009 1217.43)
(236.758 138.64 1038.54)
(353.119 -99.4835 1288.47)
(411.925 53.5433 983.415)
(216.082 -28.7854 1003.6)
(102.573 -25.6929 1079.86)
(232.116 -7.8172 1134.08)
(200.459 11.6412 1103.37)
(175.594 -20.8845 1048.04)
(190.632 -17.2199 1025.69)
(222.096 2.8465 1109.38)
(202.998 -2.3605 1103.75)
(192.556 180.32 253.691)
(297.908 100.115 1220.54)
(251.896 20.6235 935.485)
(48.8811 -80.2564 1136.24)
(185.607 5.1717 694.299)
(332.437 163.498 892.938)
(97.0206 -4.30345 931.736)
(239.867 3.43304 1105.29)
(-89.9705 226.291 416.717)
(96.3481 -4.75203 1102.89)
(38.4253 164.197 543.08)
(160.831 227.521 419.714)
(-110.776 80.909 471.894)
(-70.7852 60.8715 331.953)
(110.814 242.236 296.281)
(-94.5277 121.885 180.939)
(353.652 -41.935 1375.77)
(187.362 90.8186 990.131)
(185.909 -87.3159 1187.78)
(228.444 -3.31921 1130.49)
(391.005 -103.917 1295.96)
(275.772 -50.9877 1120.41)
(279.913 -57.1714 1227.76)
(262.131 -82.7717 1141.18)
(167.356 -16.4352 89.1986)
(304.765 -59.723 1174.45)
(176.984 -31.7529 1053.96)
(146.866 -135.899 783.574)
(85.5449 -121.322 655.824)
(182.898 -38.547 1132.53)
(-6.20714 -103.404 636.225)
(174.556 -68.9411 1000.08)
(29.6517 -3.89053 625.06)
(17.4535 15.5237 677.686)
(15.2964 -29.6515 696.498)
(12.0118 12.7311 687.087)
(21.3936 0.122236 675.938)
(27.2359 17.1586 681.236)
(5.86433 17.8802 698.029)
(13.735 7.28193 689.349)
(54.341 -8.33459 705.496)
(67.742 -22.2873 766.524)
(151.035 3.19355 770.671)
(82.8142 -4.72592 723.73)
(102.276 -19.6885 766.882)
(98.6942 -11.1035 751.586)
(117.379 -3.31098 741.727)
(90.2244 7.68203 728.255)
(64.9815 -68.4551 700.145)
(184.539 -31.5688 761.701)
(133.195 -113.434 882.164)
(192.765 -21.3818 661.366)
(175.535 -58.1158 762.756)
(180.65 -58.8332 732.159)
(154.367 -60.3637 739.495)
(175.107 -25.3142 699.812)
(72.1876 42.4504 699.088)
(122.294 10.0623 739.548)
(189.806 -18.8803 639.901)
(144.458 0.317966 656.416)
(152.664 29.5673 758.485)
(162.173 13.8141 699.102)
(148.525 -6.37053 637.283)
(153.808 -32.5063 591.445)
(66.9445 15.7926 698.082)
(73.2079 -22.5491 728.553)
(64.3606 9.40788 708.808)
(122.408 2.94799 741.153)
(74.2157 10.6101 695.669)
(73.6036 -5.17566 710.596)
(76.7906 30.1789 712.829)
(57.6519 10.8095 689.263)
(80.1132 6.67266 713.676)
(121.185 4.60956 724.909)
(159.819 -2.41418 743.345)
(75.1396 -32.7533 703.927)
(87.885 5.94791 734.35)