/*--------------------------------*- C++ -*----------------------------------*\
| =========                 |                                                 |
| \\      /  F ield         | OpenFOAM: The Open Source CFD Toolbox           |
|  \\    /   O peration     | Version:  2506                                  |
|   \\  /    A nd           | Website:  www.openfoam.com                      |
|    \\/     M anipulation  |                                                 |
\*---------------------------------------------------------------------------*/
FoamFile
{
    version     2.0;
    format      ascii;
    arch        "LSB;label=32;scalar=64";
    class       volVectorField;
    location    "1500";
    object      U;
}
// * * * * * * * * * * * * * * * * * * * * * * * * * * * * * * * * * * * * * //

dimensions      [0 1 -1 0 0 0 0];

internalField   nonuniform List<vector> 
45248
(
(81367.9 16497.2 -440818)
(74646.2 55432.5 -807784)
(46688.1 35126.7 -281491)
(57673.5 8935.72 -463452)
(51466.4 -5586.94 -705346)
(35337.7 -45212.2 -702060)
(-6397.94 11475.6 -357728)
(-20430.5 -16231.2 -526470)
(211815 223563 -783143)
(529656 581326 -593972)
(188567 89143.3 -538431)
(325468 256276 -475154)
(313445 365757 -796009)
(206655 271753 -858943)
(226511 144183 -559405)
(281843 200550 -567042)
(53673.2 32315.7 -156394)
(65747.5 23088.3 -243651)
(55457.7 26416.6 -112780)
(59034.4 33545.3 -135833)
(49010.2 20258.2 -201448)
(84158.2 17016.3 -168846)
(37950.4 27919.6 -135336)
(59982.3 28547 -142205)
(94441.6 72285.7 -285940)
(173477 157191 -247519)
(78693.4 46903 -180539)
(101397 60261.7 -200553)
(104019 68585.3 -286123)
(108338 51315.9 -259704)
(93356.7 45306.2 -181799)
(125495 63343.3 -182297)
(140856 142364 -874070)
(26597.8 -2341.52 -379866)
(73408.9 42807.4 -511432)
(183948 102720 -526828)
(64699.7 37232.3 -549676)
(16983.4 -22655.5 -532104)
(133685 51065.7 -581469)
(87267 53987.9 -496711)
(162804 156177 -863743)
(174165 66638.2 -557912)
(99477.6 38385.4 -477362)
(49422.7 6153.82 -419452)
(78308.6 77906.8 -625608)
(123445 68103.1 -644606)
(80851.9 53448.9 -413399)
(114875 50527.2 -488361)
(27135.8 31499.4 -176574)
(57429.8 34871.7 -258081)
(123494 75638.7 -279230)
(54748.2 45230.3 -157862)
(47377 32752.3 -206040)
(79770.9 48270.4 -292432)
(69257.9 24246.9 -245278)
(94385.4 50323.2 -316933)
(38204.8 20413.5 -274533)
(90921.5 46801.9 -167058)
(167311 95482.7 -298390)
(88967.6 67801.8 -328945)
(58743.8 17701.9 -264368)
(90058.4 68513 -247210)
(53628.4 59016.1 -286588)
(112366 53261.6 -260056)
(35908.9 12229.7 -575954)
(45690.9 15386.4 -192025)
(33119.7 37266.3 -295102)
(118804 22209.7 -208558)
(67194 26619.3 -338543)
(20121.6 10565.8 -272336)
(33158.6 38422 -372278)
(32494.7 9515.81 -247653)
(40308.1 21981.7 -130934)
(46356.6 29664.7 -111315)
(29634.6 16169.7 -131094)
(52917.3 35281.6 -130638)
(45409.4 30216.5 -125318)
(37339.7 23811.9 -123829)
(42896.7 27122.9 -135354)
(38825 22594.3 -121722)
(15126.6 15006.3 -220504)
(15940.2 8532.24 -155948)
(7292.29 415.719 -191379)
(27153.8 8358.84 -208700)
(17445.8 14825.7 -190669)
(5892.51 10711.8 -165028)
(24658.5 9492.36 -217123)
(8433.88 -734.395 -183397)
(71486.9 20583.6 -280613)
(74407.2 34271.4 -177006)
(52812.8 20155 -206910)
(90378.2 45327.1 -192778)
(69878.1 21574.6 -197235)
(58478.9 36104.3 -185343)
(71173.8 23430.3 -212029)
(57138.6 28386.4 -186797)
(43337.8 28922.5 -193462)
(26789.1 18902.9 -235782)
(70285.7 24956.8 -223562)
(58039.1 33322.2 -162076)
(36892.8 27428.5 -215266)
(25823 23237 -234327)
(63755.4 45835.4 -180128)
(70018.8 51080.5 -201950)
(31623.5 15739.7 -161748)
(43755.6 28388.1 -154768)
(25825.3 14667 -129394)
(20171 11620.8 -202356)
(37122 20150.6 -175807)
(38010.5 26803.2 -156333)
(21840.1 12585.7 -199222)
(26098.6 17180.5 -154676)
(25367.5 23598.6 -246591)
(52341.4 16861.5 -295560)
(58104.4 36956.4 -190438)
(42223.7 13634 -219966)
(43001 27404.1 -242799)
(57336.1 32775.5 -191001)
(43201.6 20900 -201661)
(51378.9 27193 -203451)
(23884.8 8804.76 -200409)
(30782.8 13667.8 -197357)
(46342.7 27139.9 -158829)
(20648.9 10037.5 -147640)
(27308 16079.2 -193743)
(41023.8 23450 -176368)
(31487.8 20075.2 -182550)
(40328.8 24189.3 -175332)
(159322 35502.9 -12431.4)
(102321 53515.6 -34314.1)
(147323 58280.3 -21924.8)
(127080 78150.4 -47258)
(135890 42633 -24043.1)
(132922 45929.5 -29242.7)
(135354 62155.6 -31162.1)
(133643 55262.3 -24144.6)
(87785.5 51609.6 -66457.5)
(64009.4 43572.2 -111036)
(96948.1 68547.8 -103878)
(67301.4 51075.8 -122981)
(80525.1 44761.3 -83632.1)
(81931.9 56624.5 -108351)
(96151.2 54252.6 -82720.9)
(95960.1 55471.9 -100970)
(165417 79391.6 -26089.4)
(155374 88756.9 -66788.1)
(165377 109859 -19062)
(149849 103324 -80327)
(166387 85268.3 -42432.7)
(163840 89405.1 -42292.7)
(182884 108700 -67713.5)
(179376 105720 -54876)
(140995 77047.3 -107810)
(90844.9 63542.9 -156027)
(159231 90703.2 -113213)
(129198 59230.1 -179079)
(111960 68555.1 -98725.2)
(112197 91317.7 -129846)
(164739 57558.1 -141019)
(156065 78982.2 -131535)
(102128 54606 -58171.6)
(140601 65688.9 -29156.2)
(121792 75090 -63741.2)
(98803.1 67362.5 -105165)
(102825 62919.9 -59166.9)
(131591 68597.8 -53223.5)
(97298 75051.7 -94565)
(120984 84305.4 -67409.4)
(111560 63171.3 -67005.9)
(89806.5 70604.6 -134558)
(129106 85336.2 -88085.3)
(155045 80611 -39919.3)
(108242 62814.5 -64536.3)
(105513 58184.4 -81008.2)
(121434 81266.7 -58863.3)
(122958 75090 -68964)
(151766 68331.8 -44911.5)
(138784 72782 -84968)
(110412 57113.4 -103342)
(161743 82380.7 -97231.6)
(137156 77841.2 -74586.3)
(141399 83877.5 -70119.1)
(141179 89545.7 -74616.5)
(146376 89021.4 -95461.1)
(153841 73483 -39204.9)
(163180 104643 -96132.4)
(110305 62852.3 -118861)
(127611 83174.7 -84352.1)
(171269 92907.8 -70621.5)
(160502 109899 -100408)
(124971 73867.5 -76987.5)
(110771 88273.3 -109790)
(68310.5 37642.3 -118289)
(113563 39699.8 -226160)
(104909 63932 -119606)
(77442.2 61057.6 -134914)
(52506.9 25403.4 -121285)
(100656 34728.3 -196365)
(73100.2 61442.8 -77618.9)
(93027 43678.6 -140245)
(203058 98329.8 -452226)
(493635 577512 -511715)
(451610 317271 -483375)
(354848 285806 -492257)
(281014 161313 -555735)
(315997 224831 -436423)
(362429 171369 -536703)
(388837 196574 -461537)
(159606 111254 -119751)
(343902 203164 -254981)
(250059 153146 -101421)
(230967 143436 -158347)
(206816 121322 -141090)
(225751 127376 -95378.6)
(209727 120644 -117055)
(256083 130423 -104460)
(101102 62710.1 -185370)
(204457 154803 -269202)
(199467 106713 -160599)
(133905 77726.6 -210207)
(108335 60361.7 -171246)
(181365 78820.3 -222378)
(133634 71630.5 -126293)
(186944 99579.2 -158898)
(78413.8 38104.5 -285250)
(105684 53120.8 -158487)
(78038 37971.6 -154057)
(152591 85840.9 -281386)
(124137 34857.1 -239772)
(117735 72029.8 -164507)
(133230 108493 -265246)
(137403 101532 -199855)
(177714 101954 -388677)
(242210 130742 -354085)
(272316 133402 -256028)
(143974 65987.9 -188223)
(157398 76214.3 -300757)
(255442 148671 -345378)
(167213 71436.6 -255029)
(232324 118128 -303351)
(131887 92168.3 -110379)
(102921 55566.2 -115785)
(203271 83494 -247091)
(229236 132277 -148979)
(113686 111686 -150121)
(122789 83783.7 -168956)
(180735 108843 -161007)
(196324 100164 -157110)
(153967 86570 -148138)
(223190 132339 -148672)
(270472 135743 -267957)
(311839 133017 -267483)
(190104 122946 -135772)
(195443 126534 -145323)
(256353 113217 -278728)
(285579 180987 -252803)
(1.46269e+06 853528 -810725)
(829948 1.04396e+06 517044)
(1.24091e+06 1.48248e+06 929724)
(325854 932126 -273887)
(1.13e+06 -4167.29 163852)
(425794 910907 476934)
(197019 -440885 679336)
(843166 284328 141041)
(900756 1.10808e+06 246030)
(889115 771126 -1.90839e+06)
(1.16609e+06 1.75799e+06 -1.24042e+06)
(500696 -597142 112210)
(1.59872e+06 1.25686e+06 -448911)
(1.87792e+06 1.39127e+06 -1.3425e+06)
(1.38203e+06 1.05047e+06 -483464)
(2.14926e+06 1.17404e+06 -753938)
(2.3285e+06 3.73853e+06 4.04259e+06)
(1.53359e+06 5.45887e+06 -1.07336e+06)
(2.42794e+06 1.03216e+07 -2.27901e+06)
(6.78385e+06 -9.78689e+06 -1.09131e+07)
(977638 8.96028e+06 9.39597e+06)
(-1.75946e+06 3.72454e+06 4.78022e+06)
(2.53238e+06 -2.71093e+06 -715166)
(1.47368e+07 4.89598e+06 4.17923e+06)
(1.41307e+06 -521867 273320)
(-228042 1.78541e+06 -2.15419e+06)
(5.40367e+06 -7.32369e+06 -732161)
(1.7306e+06 849077 -183614)
(1.37492e+06 -593948 1.15646e+06)
(1.7434e+06 604138 -91713.7)
(-4.00729e+06 -2.21752e+06 1.06495e+06)
(5.86428e+06 1.00243e+06 -575111)
(1.66359e+06 662937 -351874)
(3.59629e+06 1.69356e+06 -71615.4)
(770904 1.37789e+06 -228689)
(205955 495042 427934)
(1.68922e+06 353202 496942)
(1.54671e+06 47485.8 254967)
(1.26799e+06 199280 315615)
(1.94214e+06 932566 -223025)
(915098 1.27801e+06 366950)
(1.47492e+06 1.10334e+06 454802)
(1.51133e+06 2.99559e+06 -145618)
(1.51667e+06 2.29444e+06 2.8696e+06)
(1.38024e+06 944643 476632)
(1.97461e+06 1.22226e+06 553121)
(2.09097e+06 774274 1.34174e+06)
(1.34691e+06 151271 557056)
(200359 1.09247e+06 637988)
(782675 505264 190372)
(1.00403e+06 1.62727e+06 -477945)
(-6.24009e+06 -8.26003e+06 2.15608e+06)
(2.68479e+06 2.4137e+06 -2.75545e+06)
(1.90279e+06 -44532.8 -2.05177e+06)
(4.64406e+06 6.82964e+06 1.38834e+06)
(229442 239717 -2.50967e+06)
(1.92063e+06 76556.7 -978795)
(1.37956e+07 -3.89066e+06 2.21002e+06)
(2.72763e+06 -197074 -1.21488e+06)
(2.81057e+06 1.94757e+06 1.02636e+06)
(-2.46155e+06 96280.8 -6.5513e+06)
(1.23151e+06 3.06756e+06 1.22768e+06)
(2.68517e+06 1.8466e+06 1.67733e+06)
(3.62073e+06 1.86643e+06 -1.74717e+06)
(1.54642e+07 -4.84315e+06 2.50029e+06)
(2.20631e+06 -4.2339e+06 -6.75277e+06)
(2.11743e+07 396433 2.90862e+07)
(6.61053e+06 1.81158e+06 1.18039e+07)
(1.30108e+07 5.57269e+06 1.88694e+07)
(5.14034e+06 -1.7485e+06 9.25161e+06)
(1.71517e+07 -1.90305e+06 2.65033e+07)
(1.25719e+07 2.62784e+06 3.0443e+07)
(3.59475e+06 2.01902e+06 1.98397e+06)
(1.102e+06 -2.75973e+06 699413)
(3.28237e+06 -1.00195e+07 32195)
(2.60339e+06 1.79194e+06 -1.81407e+06)
(2.80551e+06 -3.09346e+06 1.1509e+06)
(2.95358e+06 -2.89356e+06 1.93191e+06)
(4.67344e+06 -2.50478e+06 -3.09855e+06)
(5.10539e+06 -1.89883e+06 -1.52159e+06)
(-4.40329e+06 -1.57488e+07 8.31301e+07)
(6.36454e+06 -1.35476e+07 1.82664e+06)
(-669275 -9.49879e+06 2.64109e+07)
(2.09124e+07 840106 8.03825e+06)
(1.02122e+07 -1.35506e+07 9.0955e+06)
(-1.566e+07 -1.86669e+07 3.39519e+07)
(2.57578e+07 9.91969e+06 2.23855e+07)
(8.38173e+06 -9.50826e+06 7.58491e+06)
(3.96745e+06 2.51897e+06 -6.86609e+06)
(3.71441e+06 5.69892e+06 -804811)
(9.46122e+06 -1.67085e+06 3.96017e+06)
(-1.75111e+06 -1.01807e+06 -1.2021e+06)
(2.68134e+06 944616 -5.20283e+06)
(3.6476e+06 625564 -2.10232e+06)
(2.5444e+06 -1.10452e+06 -3.437e+06)
(473685 -934930 -1.32491e+06)
(2.18737e+06 -4.06376e+06 -1.84623e+06)
(1.75839e+07 6.77834e+06 2.44656e+07)
(6.6402e+06 4.84192e+06 1.31888e+06)
(4.7484e+06 -790293 -6.34576e+06)
(982228 -8.27481e+06 -3.20844e+06)
(3.36908e+06 -2.02136e+06 2.62119e+07)
(6.48345e+06 10579.7 -1.09995e+07)
(4.97287e+06 -1.93551e+06 1.9963e+07)
(-1.34915e+06 -1.77372e+07 -1.06422e+07)
(3.81016e+06 -861785 -4.845e+06)
(5.60222e+06 -2.36558e+06 8.46164e+06)
(-730572 -2.70831e+07 3.11039e+07)
(967186 -4.50711e+06 8.93663e+06)
(4.70204e+06 -2.15273e+06 -6.92408e+06)
(4.77914e+06 8.46159e+06 4.97729e+06)
(4.077e+06 -760703 6.11438e+06)
(3.84162e+07 1.61033e+07 198209)
(8.04752e+06 -3.82988e+06 -8.26452e+06)
(1.07556e+07 -9.13484e+06 2.18078e+06)
(1.63138e+07 9.75944e+06 2.03766e+07)
(1.16368e+07 1.34418e+06 7.63446e+06)
(-242704 -75987 -6.29357e+06)
(2.2828e+06 2.45554e+06 -1.12202e+07)
(6.03901e+06 -6.20859e+06 -6.98717e+06)
(-1.12641e+06 -1.91945e+07 6.56757e+07)
(7.00257e+06 -1.49042e+06 -3.00756e+06)
(6.33637e+06 -4.66553e+06 -3.78108e+06)
(2.44525e+06 -6.07925e+06 -6.42092e+06)
(1.18498e+07 730473 -3.97519e+07)
(6.97461e+06 4.99152e+06 -7.57338e+06)
(1.32766e+07 -7.03486e+06 -2.50631e+07)
(1.08488e+07 -1.76379e+07 -1.13906e+06)
(6.61827e+06 1.40149e+07 5.15675e+07)
(365343 1.74261e+07 5.52003e+07)
(2.32314e+06 7.81425e+06 1.14828e+07)
(6.38932e+06 -8.68789e+06 1.32805e+06)
(3.40571e+06 1.61017e+07 6.00672e+07)
(4.66048e+06 2.837e+07 5.19168e+07)
(-2.42332e+06 -798405 2.65812e+07)
(-3.03061e+06 8.06535e+06 3.07722e+07)
(-9.45714e+06 2.67654e+07 5.41339e+07)
(-48341.2 -6.74228e+06 1.01667e+07)
(-3.90798e+06 8.96425e+06 -501747)
(3.74405e+06 1.0251e+07 -2.89712e+06)
(2.55235e+06 1.34707e+07 8.18502e+06)
(-2.62243e+06 1.53251e+07 2.48504e+07)
(5.65369e+06 1.45393e+07 9.87685e+06)
(-252599 6.34788e+06 1.26598e+06)
(674057 636752 -1.39401e+06)
(277624 1.72026e+06 -1.3797e+06)
(1.24707e+06 742919 -1.7483e+06)
(1.30527e+06 1.32425e+06 443117)
(3.28891e+06 1.11392e+06 1.10314e+06)
(2.09778e+06 233224 -956743)
(1.50294e+06 1.18814e+06 -625744)
(1.27897e+06 970604 -1.22222e+06)
(3.00577e+06 6.18393e+06 3.21526e+06)
(2.90911e+06 -1.87172e+06 -767851)
(-271140 720681 -1.79703e+06)
(895331 438571 695490)
(-88919.3 2.2214e+06 1.73243e+06)
(-341874 7.24821e+06 -1.63206e+06)
(3.63479e+06 1.52055e+06 -724646)
(3.24177e+06 1.10854e+06 -658249)
(-3.04637e+06 2.20807e+07 6.21656e+07)
(6.94831e+06 -336103 -4.89378e+06)
(6.12208e+06 -1.16161e+06 -8.64437e+06)
(1.0981e+07 5.53156e+06 2.0289e+06)
(2.48623e+06 1.81141e+06 2.53507e+07)
(868629 -6.06062e+06 1.52325e+07)
(1.2599e+07 -1.66111e+07 5.85091e+06)
(6.3104e+06 4.30384e+06 219081)
(-9.97632e+06 4.68495e+07 3.33917e+07)
(1.44301e+07 -3.24682e+06 1.42733e+06)
(656075 5.00835e+06 -3.42669e+06)
(8.32763e+06 9.09593e+06 -916287)
(-1.87065e+06 1.17271e+07 -9.55445e+06)
(2.03591e+07 -1.26237e+07 -1.64978e+07)
(9.88393e+06 -869836 4.20268e+06)
(-1.17019e+06 4.86879e+06 6.22711e+06)
(211018 3.85515e+06 -5.46738e+06)
(5.12318e+06 5.16615e+06 411343)
(3.60817e+06 2.68914e+06 -316932)
(2.43181e+06 284286 -2.24376e+06)
(595439 3.39707e+06 -4.14819e+06)
(1.57947e+06 5.20402e+06 -3.8615e+06)
(599185 2.81125e+06 -2.3998e+06)
(-101934 3.89189e+06 -2.36513e+06)
(543854 3.70138e+06 -138064)
(2.06986e+06 18788.5 -1.60146e+06)
(1.07047e+07 3.15895e+06 2.96142e+06)
(5.15493e+06 2.42376e+06 1.39936e+06)
(783391 639659 -1.49261e+06)
(4.73876e+06 -118169 -746328)
(6.06062e+06 3.05625e+06 2.31003e+06)
(591950 2.6739e+06 -1.63271e+06)
(741528 403850 -39882.8)
(782650 383090 164880)
(745731 150779 -27221.8)
(674397 404931 -198733)
(822510 521900 -96656.5)
(710332 511526 -31335.3)
(668180 479080 -142972)
(523507 269936 -192099)
(1.68786e+06 570575 3.06317e+06)
(-526370 1.61083e+07 1.07746e+07)
(3.26185e+06 6.13778e+06 6.33199e+06)
(1.51958e+06 3.35274e+06 1.8059e+06)
(1.98848e+06 4.039e+06 -1.01477e+06)
(2.18896e+06 9.17272e+06 8.84185e+06)
(1.23855e+06 1.36221e+06 1.00532e+06)
(3.71397e+06 5.41484e+06 6.61681e+06)
(913725 17309.7 260129)
(1.14896e+06 1.05964e+06 1.67241e+06)
(772689 -117268 42888.2)
(945115 1.00756e+06 457158)
(968937 112763 990926)
(705010 -66188.6 335380)
(850483 356231 775325)
(1.09599e+06 113039 -156911)
(691330 728275 -596698)
(1.30593e+06 1.92856e+06 98578.2)
(1.25966e+06 1.61729e+06 -633363)
(1.07617e+06 1.02672e+06 -1.18333e+06)
(787261 930382 -1.00831e+06)
(994160 1.45045e+06 -292040)
(786858 902262 -1.1639e+06)
(1.3907e+06 1.36262e+06 -1.07824e+06)
(589361 1.39579e+06 634881)
(863717 659942 1003.42)
(631359 805472 -239203)
(680522 2.17874e+06 -319423)
(987225 797856 684030)
(804010 980160 -10927)
(922906 960032 831435)
(1.07705e+06 1.16498e+06 44237.3)
(1.45125e+06 982065 874792)
(2.39604e+06 2.76284e+06 1.98974e+06)
(1.52756e+06 594000 3.10421e+06)
(690784 746416 49948.8)
(943614 1.3521e+06 1.08537e+06)
(3.46301e+06 293238 1.80362e+06)
(1.13489e+06 1.34238e+06 1.04567e+06)
(1.29913e+06 733081 1.16511e+06)
(701530 297059 85681.1)
(713935 685567 -448302)
(1.35987e+06 2.0358e+06 -539353)
(1.0958e+06 980036 14224.2)
(669640 728195 142705)
(835758 763069 -337934)
(1.30922e+06 1.13254e+06 115229)
(1.52088e+06 1.2396e+06 -157870)
(773950 283650 168886)
(1.15089e+06 1.15338e+06 241198)
(2.67726e+06 2.28815e+06 1.19616e+06)
(2.5242e+06 -367200 -255386)
(493041 748165 570114)
(1.12591e+06 1.22497e+06 177279)
(1.37927e+06 289795 890916)
(2.32414e+06 2.30249e+06 1.38298e+06)
(166059 53916.3 -19455.7)
(146552 28881.8 -67634.1)
(127477 27974.5 -51239.1)
(178156 25045.8 -77474.8)
(154644 41427.7 -45900.8)
(149471 36242.2 -44119.1)
(148911 25298.9 -49867.2)
(147347 27495 -65282)
(116477 9653.38 -97060.6)
(92516.1 3214.11 -122630)
(95934.2 -37.9616 -108182)
(98572.5 7104.68 -130129)
(113139 4818.61 -112122)
(115030 3808.73 -113320)
(100445 1579.29 -112488)
(88085 453.991 -116071)
(110517 21110.6 -86300.4)
(85065 5721.63 -113092)
(67168.7 7208.47 -109351)
(88837.7 6894.02 -134794)
(93755.3 7337.91 -103164)
(84024.3 8920.94 -99185.4)
(82130.4 4206.51 -105414)
(73694.4 3106.29 -114199)
(170243 8229.95 -139126)
(110886 4700.48 -153356)
(116666 7561.57 -173536)
(167762 -19518.4 -219432)
(154322 -495.17 -154319)
(149120 5009.26 -142500)
(132649 -2092.25 -175197)
(130282 -6748.97 -180625)
(145611 19152.4 -84741.2)
(126198 20047.9 -79920)
(163172 23696.5 -91886.3)
(134849 8699.1 -123586)
(140907 16740.2 -85640.1)
(141079 25479.3 -76187.8)
(143812 16214.2 -109293)
(152588 14527.2 -90304.4)
(123256 14490.1 -82828.7)
(116151 4034.32 -112190)
(101066 3447.43 -105097)
(116111 19825.3 -77396.5)
(119784 12534.5 -98086.6)
(122918 4063.23 -106121)
(112414 22771.9 -82013.3)
(100818 2670.32 -102391)
(127838 18315.1 -83655.8)
(158010 22538.1 -98113.3)
(117952 7887.21 -134720)
(101477 4582.02 -130094)
(127066 16323.5 -103566)
(142401 12776.3 -112944)
(119514 10193.3 -123605)
(143063 7327.35 -115508)
(107494 18105.7 -93356.7)
(95124.9 4724.02 -138665)
(101523 6111.82 -132340)
(84624.3 3603.81 -114812)
(99817.6 6389.11 -95613.6)
(117724 5514.5 -118236)
(92574.6 1033.86 -107120)
(107244 5317.48 -127363)
(100097 7528.92 -450191)
(13916.4 26928.4 -536561)
(14072 -13203.1 -259076)
(43494.2 -14896.2 -468713)
(76904.3 4631.58 -393537)
(56180.6 18311.7 -500598)
(56090.1 145.774 -538945)
(52567.8 43107.6 -509494)
(112704 19565.3 -229084)
(6244.94 26141.1 -602859)
(20419.8 2758.86 -311147)
(89846.1 15973.3 -331341)
(37868.1 20316.9 -155122)
(22638.2 18138.4 -572237)
(116599 60527.7 -360362)
(23400 58367.3 -455698)
(11934.5 128.938 -208049)
(9434.91 889.793 -236940)
(4845.57 2223.5 -223053)
(26269.3 7854.85 -205312)
(23306.8 8699.02 -203323)
(15478.1 2889.4 -239690)
(29437.9 11906 -217970)
(16718.7 9742.82 -230855)
(46700.3 28120.7 -371380)
(86154.4 27861.8 -321603)
(52342 16325.2 -200709)
(93416.4 69344 -221082)
(80814.5 23544.9 -354511)
(54137.9 -36423.1 -290210)
(89543.7 69117.1 -247462)
(63764.1 802.961 -218437)
(56337.8 112407 -548863)
(26284.5 21261 -220798)
(61083.1 1314.56 -466711)
(81944.5 55286 -373481)
(97814.6 70832.1 -420792)
(35276.8 4700.45 -347056)
(79340.2 21210.3 -345530)
(34773 -11467.6 -363094)
(23764 1670.01 -631460)
(12149.7 28455.4 -423164)
(25786 7241.85 -334010)
(22719.6 -187.881 -310212)
(9663.54 24145.1 -534065)
(23976 8813.42 -426376)
(26905.5 -3713.71 -226141)
(47955.1 16041 -196303)
(39120 23440.2 -250152)
(47179.8 7009.46 -417062)
(80386.6 38762.9 -335745)
(44519.7 7906.67 -216995)
(30151.9 2185.78 -204121)
(47174.7 7905.12 -364327)
(46294.7 5523.62 -202207)
(35060 -23786.9 -285206)
(18613 8157.15 -284064)
(26892 8545.35 -214901)
(19931 28058 -284901)
(21745.9 25719.3 -287777)
(19572.1 -364.705 -243728)
(21566 3653.48 -236151)
(73340.5 25882.6 -215078)
(56218.9 11993.8 -197221)
(173081 37304.6 -14046)
(178885 58549.4 -1138.88)
(182445 61124.3 -7854.46)
(155100 90408.3 -44403.9)
(173557 46041 -16434.4)
(171512 43682.4 -18871.3)
(175200 61756.2 -27344.7)
(179850 66941.9 -16216.8)
(196289 103701 -11879.8)
(199934 115409 2896.37)
(250701 132789 -17318.6)
(191017 132982 -48561.4)
(191203 110276 -25211.5)
(213413 128499 -21152.7)
(208848 109196 -51332)
(227397 124304 -20821.6)
(194940 77873.5 -1221.84)
(254791 132649 -18674.4)
(266557 127830 -19660.2)
(224916 133719 -69144.6)
(222527 98351 -23020.5)
(210096 93272.2 -22764.3)
(227637 122297 -54894.7)
(246802 120677 -31608.6)
(155109 94544.8 -88044)
(178822 100583 -88538.6)
(197019 113423 -103539)
(134055 68537.5 -145204)
(164564 78284.9 -97602.4)
(178739 81997.7 -89978.6)
(167650 85303 -131791)
(168476 76790.4 -119550)
(176637 76900.8 -11122.9)
(189953 77902 -18378.8)
(153118 81615.4 -50487.3)
(167206 105661 -65101.8)
(200125 91795.6 -30405.1)
(169975 71180.4 -37063.1)
(167421 111592 -47307.1)
(156249 90038.5 -45297.7)
(174134 74373.6 -10240.1)
(181761 105839 -56924.9)
(209572 119605 -30063.3)
(181633 54204.9 -19357.6)
(184492 89742.7 -18952)
(214506 93362.3 -52897.1)
(202839 89327 -2848.53)
(213862 102436 -24159)
(207573 96879.4 -36574)
(173216 99180.5 -78102)
(188020 112071 -89103.3)
(195545 116743 -91448.8)
(186945 116547 -52998.2)
(161983 99725.6 -58055.9)
(187189 109293 -65153.5)
(170755 88804.1 -87032.7)
(199649 90359.1 -28823.2)
(195814 108747 -75705.1)
(184854 103634 -72463)
(227796 117595 -25258)
(221072 106795 -60935.2)
(188760 108803 -66389.5)
(227105 100438 -46837.2)
(202527 125713 -60016.9)
(-31653.3 44685 -1.18174e+06)
(29119.6 54529.5 -1.16424e+06)
(187241 2024.38 -483498)
(25088.4 45617.9 -683448)
(-23916.3 101608 -1.32045e+06)
(54416.8 -30556.6 -1.29788e+06)
(23542 96100.4 -731482)
(93283.5 -24561 -1.05088e+06)
(278577 168218 -1.24657e+06)
(571819 369695 -928669)
(226168 240668 -1.05131e+06)
(383283 264635 -968987)
(302640 306598 -1.174e+06)
(412952 256309 -1.08461e+06)
(312477 353068 -1.03547e+06)
(321066 342255 -843722)
(-13472.7 38726.4 -1.24522e+06)
(64466.2 69926.3 -1.14176e+06)
(78858.2 -10369 -412283)
(-40172.1 93807.8 -735293)
(-14313.2 65465.3 -1.40348e+06)
(57773.3 -23047.7 -1.31845e+06)
(-65728.4 129544 -828488)
(57006.8 26269.5 -1.13211e+06)
(28239.8 59933.4 -394927)
(235309 132827 -524965)
(114206 39992.4 -294023)
(90464.2 80985.9 -268966)
(48487.8 129349 -358276)
(136682 29290.8 -442503)
(77830.5 90071.5 -360483)
(202811 50546.2 -173072)
(85140.9 177309 -1.13906e+06)
(191238 -33739 -324861)
(-29780.2 125841 -544674)
(204747 203280 -856451)
(174910 59244.6 -1.00202e+06)
(120300 -35957.4 -1.02054e+06)
(204540 89885.2 -986379)
(117428 13210.1 -992911)
(149185 215463 -1.20898e+06)
(251610 113625 -908008)
(182012 69162.9 -1.06683e+06)
(65760 77009.6 -737432)
(205538 156866 -1.07124e+06)
(174492 169396 -1.07191e+06)
(22595.3 125634 -1.07789e+06)
(85386.2 145499 -1.1008e+06)
(109297 51087.7 -491137)
(34603.4 85566.2 -419843)
(224770 128985 -503632)
(121561 34696.2 -281387)
(135501 4326.81 -385747)
(160955 71101.1 -628445)
(150719 21155.1 -361428)
(169872 39509.5 -581116)
(32889.8 7207.63 -664024)
(34645.6 119114 -614731)
(272669 158516 -537840)
(230985 149178 -995861)
(30648.9 130284 -810578)
(136417 42602.9 -576144)
(92827.8 208197 -896456)
(125751 105412 -706014)
(210254 136942 -50933.5)
(300035 187335 -231205)
(236960 134610 -42392.9)
(214594 133905 -112101)
(248747 114716 -100454)
(217904 145503 -93525.7)
(226887 125911 -78330.4)
(213674 147416 -93380.4)
(405675 290496 -446569)
(455901 511667 -512933)
(320795 213735 -306958)
(328484 248753 -455589)
(407173 243334 -414537)
(403212 249831 -496409)
(311961 204242 -366543)
(412225 234646 -390008)
(242903 138381 -27619.1)
(249355 155210 -152840)
(251868 136204 -40562.4)
(208029 126007 -99061.9)
(249075 145243 -69783.7)
(260593 163559 -69205.6)
(220765 126335 -73826.6)
(238156 138444 -79431.4)
(199719 114739 -124346)
(202345 133395 -250820)
(177504 106426 -140421)
(141423 78067.5 -195857)
(196642 113243 -133431)
(202167 118876 -143036)
(163448 81251 -160232)
(172643 90076.2 -164578)
(313309 142617 -246754)
(243303 140101 -71009.1)
(237603 149884 -129517)
(310888 178332 -259145)
(272598 175321 -163689)
(245366 159760 -102542)
(273834 170647 -230301)
(228555 143883 -127793)
(305586 148725 -302728)
(302020 169159 -239855)
(344143 171383 -200463)
(245152 166774 -65738.1)
(280093 159735 -236469)
(377230 180279 -232112)
(240614 173094 -150197)
(312619 165985 -196039)
(224121 122212 -66149.4)
(192095 114922 -116607)
(211620 132239 -259120)
(187723 116267 -115416)
(201959 116056 -93160)
(203206 125562 -133356)
(216911 141088 -130764)
(208081 132729 -132549)
(219283 139473 -76916.4)
(198577 122401 -128612)
(253608 123825 -243497)
(279356 144561 -199667)
(255147 152425 -109432)
(213172 131992 -122095)
(228205 145593 -179929)
(239734 139068 -222380)
(3.31973e+06 5.47802e+06 -2.48376e+06)
(358397 3.15147e+06 -1.01027e+06)
(-609793 2.20961e+06 2.58534e+06)
(-1.19625e+06 788228 378411)
(2.85152e+06 4.0101e+06 -1.04781e+06)
(1.40951e+06 5.61707e+06 -1.81177e+06)
(1.63617e+06 3.49387e+06 123036)
(2.07149e+06 2.16108e+06 -2.73166e+06)
(-1.00204e+06 1.23365e+06 -3.55889e+06)
(-1.73526e+06 -592819 -3.03846e+06)
(-1.02852e+06 1.96746e+06 -595770)
(-896346 2.293e+06 -2.31207e+06)
(-1.86705e+06 1.44482e+06 -3.6904e+06)
(-1.89708e+06 391393 -3.19027e+06)
(-56161.4 2.59351e+06 -2.57393e+06)
(714373 1.48153e+06 -1.53622e+06)
(1.18462e+06 -3.58061e+06 -372259)
(920085 -1.59098e+06 -2.08957e+06)
(289184 -496747 -881541)
(258928 831632 -3.23377e+06)
(824819 -2.52217e+06 -924855)
(249302 -2.18016e+06 -479970)
(-68958.6 -1.21352e+06 -2.75413e+06)
(-580096 389039 -755048)
(1.63927e+06 383733 -2.07828e+06)
(733632 890718 -505488)
(1.81924e+06 -536666 -3.62894e+06)
(486291 793996 -1.59741e+06)
(2.01519e+06 847491 -1.59942e+06)
(1.30026e+06 616909 -1.57071e+06)
(974220 814657 -3.6114e+06)
(1.70768e+06 -316281 -2.7266e+06)
(476191 3.70124e+06 -1.87188e+06)
(759860 2.61918e+06 -3.71017e+06)
(623942 3.11377e+06 -1.33405e+06)
(-706246 2.29819e+06 -2.12177e+06)
(696377 2.17145e+06 -2.35627e+06)
(-339205 2.98059e+06 -2.3564e+06)
(106618 2.7973e+06 -1.9268e+06)
(-1.30923e+06 1.87964e+06 -976923)
(-1.66336e+06 3.06698e+06 -2.11548e+06)
(-580034 2.11882e+06 -2.04416e+06)
(953973 1.48996e+06 -2.98683e+06)
(-1.23156e+06 2.60526e+06 41664.1)
(-1.49902e+06 2.32723e+06 -1.23122e+06)
(540176 1.83161e+06 -1.12512e+06)
(-397808 2.37756e+06 -4.16133e+06)
(-1.20706e+06 2.71519e+06 -1.61628e+06)
(-1.31183e+06 -6.49026e+06 -5.05881e+06)
(-1.12417e+06 4.49316e+06 2.40678e+06)
(-1.15648e+06 5.52662e+06 841875)
(2.58931e+06 -3.75599e+06 -5.31599e+06)
(-2.82195e+06 4.15693e+06 -3.46139e+06)
(-1.61027e+06 6.46313e+06 2.20796e+06)
(1.73055e+06 5.10682e+06 -4.6115e+06)
(734159 2.95397e+06 421971)
(-1.50099e+06 5.58917e+06 -460452)
(-3.95878e+06 2.81712e+06 -1.43189e+06)
(1.42377e+06 3.5783e+06 -552884)
(2.59368e+06 -2.24409e+06 -1.73454e+06)
(76050.4 -1.8271e+06 -2.09056e+06)
(-1.89747e+06 975470 -3.14793e+06)
(556110 5.542e+06 -958846)
(336631 5.39214e+06 -2.7447e+06)
(2.90517e+06 8.4874e+06 -7.21358e+06)
(891845 2.13671e+06 2.02633e+06)
(1.99095e+06 3.62208e+06 1.84273e+06)
(1.81219e+06 4.18104e+06 -809342)
(2.63223e+06 6.87902e+06 1.60186e+06)
(4.07707e+06 3.79011e+06 4.88382e+06)
(-1.87671e+06 5.67433e+06 -562914)
(1.77952e+06 4.25304e+06 2.35904e+06)
(736366 1.04111e+06 616880)
(731842 369315 147707)
(623257 593765 151136)
(582285 456403 -404903)
(789760 623500 2724.88)
(580290 511170 230560)
(798946 762271 49613.9)
(577462 409479 -73976)
(180717 3.39482e+06 2.40813e+06)
(227251 1.19933e+06 869485)
(-65733.4 1.77963e+06 1.22767e+06)
(773853 1.39534e+06 611194)
(322163 2.16892e+06 1.04472e+06)
(-254989 1.69832e+06 1.51179e+06)
(853648 2.45745e+06 852693)
(215929 1.53664e+06 487606)
(1.06456e+06 1.2674e+06 -1.26406e+06)
(809857 390031 -307753)
(1.19873e+06 1.03704e+06 -251812)
(947247 638624 -1.11023e+06)
(1.00207e+06 1.25042e+06 -484953)
(732867 1.10701e+06 10353.9)
(973266 837146 -1.33654e+06)
(970063 944367 -594887)
(766821 1.81257e+06 1.07215e+06)
(607957 3.42311e+06 2.17557e+06)
(1.02871e+06 2.79375e+06 -29693.3)
(764668 1.14617e+06 -30856.9)
(837682 2.28913e+06 1.43075e+06)
(506871 4.26044e+06 2.64652e+06)
(1.21549e+06 1.14806e+06 -4561.4)
(1.32598e+06 2.18081e+06 1.38573e+06)
(-222151 421950 578906)
(652468 891851 -165981)
(-16462.1 1.15548e+06 892646)
(-409833 3.0326e+06 3.96709e+06)
(696287 1.22118e+06 791879)
(638065 1.31814e+06 456598)
(369558 1.18362e+06 1.58675e+06)
(606341 1.1051e+06 750643)
(1.35528e+06 3.83801e+06 44356.2)
(631777 2.80589e+06 -1.38667e+06)
(719646 1.10612e+06 -80911.7)
(1.26669e+06 1.79529e+06 -92339.7)
(1.31937e+06 2.06958e+06 852770)
(1.27048e+06 1.90532e+06 302234)
(865450 1.97734e+06 240404)
(621875 1.6967e+06 68264)
(334693 1.95083e+06 870194)
(843741 1.38463e+06 89304.6)
(605585 862852 -11345.2)
(611995 898444 409692)
(720224 1.69906e+06 1.08666e+06)
(201413 1.56328e+06 835019)
(1.05946e+06 1.22921e+06 551406)
(525341 1.11118e+06 292709)
(3.89483e+06 -4.96656e+06 1.09078e+07)
(4.75492e+06 2.35676e+06 66812.6)
(3.95135e+06 -325082 9.57646e+06)
(3.08333e+06 1.06678e+06 3.5537e+06)
(3.90271e+06 -1.17595e+06 5.85617e+06)
(-1.43271e+06 -3.68412e+06 6.84403e+06)
(2.10071e+06 -1.99685e+06 9.84251e+06)
(978714 -2.21447e+06 8.06594e+06)
(2.08912e+06 -1.92863e+06 -327265)
(1.5795e+06 -141198 -765075)
(1.39923e+06 1.31454e+06 1.52845e+06)
(887663 48150.5 1.48198e+06)
(3.29592e+06 247946 574869)
(2.61313e+06 -49409.6 1.24985e+06)
(2.29057e+06 -1.32192e+06 1.40196e+06)
(1.86068e+06 857247 2.2774e+06)
(-1.92453e+06 3.31357e+06 1.67134e+07)
(1.89013e+06 2.58853e+06 5.24344e+06)
(-276109 2.07202e+07 1.23963e+07)
(42508.8 7.50225e+06 7.15005e+06)
(-836474 6.69067e+06 1.18778e+07)
(-445982 -1.27901e+07 1.36483e+07)
(-223033 2.30783e+07 1.18941e+07)
(997579 7.95893e+06 9.56762e+06)
(792916 37363.2 -22982)
(1.5003e+06 31373.4 543294)
(-3.11031e+06 -1.81595e+06 7.58567e+06)
(18419.4 -812953 -18207.6)
(135526 -90573.3 -397286)
(676688 1.38894e+06 -1.38706e+06)
(1.04194e+06 -606843 -669010)
(-81399.3 514464 -2.20064e+06)
(1.99692e+06 771804 1.48673e+06)
(3.67578e+06 304042 6.83228e+06)
(2.42173e+06 1.75732e+06 -21495.7)
(1.40664e+06 1.85714e+06 256617)
(2.13638e+06 2.82734e+06 1.75324e+06)
(7.47073e+06 -1.60867e+06 1.76266e+06)
(786542 1.34174e+06 157781)
(2.01095e+06 2.01035e+06 3.84199e+06)
(4.94773e+06 1.3616e+06 1.67404e+06)
(511494 388768 676030)
(2.64091e+06 2.57833e+06 2.07245e+06)
(1.74467e+06 -2.64207e+06 5.44588e+06)
(2.63111e+06 718576 1.03698e+06)
(2.47206e+06 2.05658e+06 1.27002e+06)
(2.36899e+06 1.85698e+06 2.76812e+06)
(2.89231e+06 1.67248e+06 443083)
(1.22064e+06 2.43642e+06 1.39003e+07)
(1.43426e+06 -538299 990287)
(1.86104e+06 2.34177e+06 -176289)