/*--------------------------------*- C++ -*----------------------------------*\
| =========                 |                                                 |
| \\      /  F ield         | OpenFOAM: The Open Source CFD Toolbox           |
|  \\    /   O peration     | Version:  2506                                  |
|   \\  /    A nd           | Website:  www.openfoam.com                      |
|    \\/     M anipulation  |                                                 |
\*---------------------------------------------------------------------------*/
FoamFile
{
    version     2.0;
    format      ascii;
    arch        "LSB;label=32;scalar=64";
    class       surfaceScalarField;
    location    "1800";
    object      phi;
}
// * * * * * * * * * * * * * * * * * * * * * * * * * * * * * * * * * * * * * //

dimensions      [0 3 -1 0 0 0 0];

oriented        oriented;

internalField   nonuniform List<scalar> 
80800
(
-0.0107907
-0.0189953
0.0306511
-0.000986222
0.0158269
-0.00555285
-0.0160185
0.00555749
0.00685943
-0.00561145
-0.0158078
0.0143137
-0.0122929
-0.00561148
0.0135909
0.00407717
-0.0281202
0.010648
0.00640148
0.0085679
-0.0209636
-0.0207723
0.0189789
-0.00535068
-0.00289057
0.00971927
-0.0149685
0.00807331
0.00880768
-0.0149435
0.00607061
0.00605761
0.00568701
-0.011841
-0.0105184
0.00447806
0.00594658
-0.0150244
0.00373128
0.00829727
0.00692079
-0.0132039
-0.0129784
0.00617046
-0.00212814
0.0119153
-0.0153806
0.00530218
0.00366196
0.0067341
-0.0106087
0.00652141
-0.00821239
0.00138517
-0.0100813
0.0114573
-0.00140408
-0.0119711
0.00241409
0.00728044
0.00285216
-0.0114062
-0.00937356
0.00154422
-0.00171635
-0.0101607
0.00245604
0.00929733
-9.66728e-05
-0.010275
0.0101286
0.0123425
-0.0101516
-0.00226374
-0.00913368
-0.00312381
0.0121114
-0.0121611
-0.0013986
0.0116463
-0.00217827
-0.0101826
-0.0101642
-0.000506625
0.0033943
-0.0187639
0.00976918
0.00956384
-0.0170007
0.00153975
-0.0164458
0.00203886
0.00858382
0.00148581
-0.013646
0.000617186
0.0114521
0.00749608
0.0118936
-0.0161689
0.0116637
0.00535222
0.00791571
0.000502415
0.0052979
-0.0144655
-0.0107462
0.00158942
0.0133393
0.00434289
-0.0119968
-0.00645644
0.00197399
-0.0127888
-0.0026506
-0.00829116
-0.00719304
-0.00233233
-0.012471
0.00385443
0.0126709
-0.0154447
0.00401592
-0.0136027
0.00535917
0.00140398
-0.0111205
0.0005841
-0.0108741
0.000208831
0.0114964
-0.00217324
0.00324706
-0.00160619
0.0103849
-0.0119603
-0.00155049
0.000626664
-0.00951036
0.0111102
0.00981622
-0.00399555
-0.00147704
0.0109874
9.95637
-12.9949
3.06758
4.84051
12.8961
-17.6698
-21.5187
21.9492
-0.37767
4.81474
9.08592
-12.0875
-1.79142
12.3993
10.0754
-12.4853
17.264
15.9987
-1.07802
11.7566
12.3534
6.14127
-18.4692
11.1285
7.84677
-18.9468
-28.5154
18.1986
10.3818
6.97816
6.3394
5.253
-18.5341
12.4216
21.6958
-21.7434
23.5716
17.7402
10.9649
12.8055
38.0625
-36.7557
-1.23629
31.0942
-47.6689
16.629
-92.5463
58.6443
33.9697
18.8066
-14.1769
-2.60158
-2.01679
40.6079
32.8284
-35.3557
71.7249
64.9689
-13.3049
44.1732
1.41991
2.98432
0.687553
-5.12228
-9.13753
2.48165
2.50278
4.14331
3.71104
3.81196
0.0735137
-7.60177
1.38719
-2.18542
6.24955
-5.45949
3.94587
-0.550809
-1.98899
-7.59769
2.39888
-0.635283
1.46004
-4.52935
16.2156
13.9204
-17.2085
-23.4249
25.1736
20.2788
15.1783
4.58936
-10.6607
-10.1483
17.2827
9.36651
-16.4748
5.495
-6.43507
17.1866
-6.17189
2.52208
-19.0717
11.54
20.0786
7.60213
16.0104
-19.1556
37.3761
-4.72893
29.942
12.396
24.9104
30.9756
20.1897
32.0178
-5.98903
27.1069
-0.799332
11.4908
-3.89625
-1.54953
13.3928
-2.30922
6.20674
-0.10843
-14.199
11.4292
-3.18812
8.8353
-9.68465
18.7933
20.2978
-7.49293
-0.493956
19.4051
9.98003
-33.2045
22.9574
-9.91941
-5.1312
1.37112
-6.31861
14.4498
-0.00667009
-0.00838717
-0.00441189
-0.00749835
0.0152665
-0.00495773
-0.0104084
-0.0043081
-0.00299068
-0.00775624
-0.00905838
-0.010838
-0.013489
-0.00820295
-0.00702679
-0.00645067
-0.00738059
-0.00341166
-0.00123514
-0.00713744
0.0109849
-0.00321007
-0.00783753
-0.00274944
-0.00430638
-0.00860798
-0.00863506
-0.0103345
-0.00994163
-0.0108571
-0.00235727
-0.00983311
-0.00564133
0.0152588
-0.00975488
-0.00660821
0.0132125
-0.00677245
0.0152433
-0.00560002
-0.00970319
-0.00163708
0.0143926
-0.00709989
-0.00559261
-0.00709907
-0.0129734
0.0143493
-0.0137293
-0.00710453
-0.00762694
-0.0056373
-0.000923602
-0.00776692
-0.00753962
-0.00760929
-0.00629835
-0.00202311
0.0177722
-0.00470759
-0.00519596
-0.00795767
-0.0105097
0.00944415
-0.018029
-0.00815614
-0.0138009
-0.00981768
-0.00599403
-0.00749409
-0.0169375
0.000347653
-0.0113226
-0.008219
0.0140563
-0.0069465
-0.0121843
-0.00783486
-0.00966785
0.0046388
-0.0087078
-0.008957
-0.00481674
0.00323155
-0.00985167
0.00278559
-0.00464142
-0.00974015
-0.0117065
-0.0027234
-0.0103354
0.00934295
-0.0126431
0.00635589
-0.0133375
-0.00821225
-0.0134435
-0.0133284
-0.00714299
-0.0111671
0.00279612
-0.00840774
-0.00666396
-0.00905737
-0.00849782
-0.00585042
-0.00951709
0.0120113
-0.00904678
-0.00765988
0.0152043
-0.00491947
-0.00760766
-0.00366576
0.0155102
-0.00846381
-0.00653947
0.0101997
-0.00487589
-0.0147325
-0.00515766
0.00894962
-0.00842726
0.00279285
0.00496146
0.00450745
0.00274167
-0.00746886
0.53965
3.64847
-9.58712
5.39044
8.51289
-3.01793
-11.7495
6.24383
-13.3825
3.6446
4.89533
4.79554
5.99375
0.661102
2.77702
-9.4316
5.59713
4.95066
-10.0138
6.81662
7.28685
6.22453
4.71277
-0.354045
-4.55476
13.0206
-12.3598
3.88922
17.2016
-10.0296
-4.8362
-2.31779
-15.1488
18.8597
4.25083
-7.89478
7.06443
16.9998
-5.80586
-18.2237
-2.07361
11.8438
-14.3084
18.3451
-3.21013
0.850884
18.0742
4.06891
33.3339
-18.6898
-1.35329
-13.3209
-4.42117
-35.247
56.4414
-16.6479
-41.5941
87.7677
-6.85881
-39.2241
19.1077
-33.245
-13.9607
28.319
36.0353
36.1791
-38.8548
53.294
-21.6464
52.1692
3.17885
63.9253
-2.85852
9.28636
1.86876
-8.29649
2.39175
9.27261
0.877358
-12.5542
-11.4459
12.7074
7.13939
-8.32325
15.6588
-10.3964
2.17519
-7.46537
10.2971
-3.57925
-9.58699
0.00558175
12.666
11.4067
0.643154
-0.082714
7.54187
2.11235
-12.683
-19.0416
10.7272
11.9469
7.97313
3.33934
-10.658
0.747753
5.56768
8.59629
-14.9098
11.5357
-6.63702
2.62789
-7.86412
7.24898
-13.1497
7.3541
9.77968
5.3589
9.87976
12.703
-10.7966
37.4897
-7.82632
-10.1477
16.8136
4.04517
-4.89345
17.3036
23.0691
5.934
1.22394
18.2177
-7.58638
13.0453
6.48897
10.1336
2.48851
10.1903
7.68214
-14.698
28.5138
-1.1083
-16.3542
5.77539
2.99416
1.12834
-23.9846
15.0792
11.1855
-18.8412
14.1531
23.8028
-3.36208
-17.1658
19.4636
-12.8729
-14.7382
-16.5932
-13.6696
-6.41267
26.2767
-18.4006
-5.65731
33.7618
-28.0628
-27.5326
37.9603
5.93972
16.617
-17.2989
30.9659
13.7129
-18.3769
25.3302
32.4834
30.2959
42.3373
-3.9287
-38.408
-2.82067
-43.03
45.8323
-74.9214
-7.14039
82.1385
15.5969
-11.6139
-32.8274
28.8868
53.0531
31.5085
-42.0756
50.2872
54.559
-7.38995
29.981
57.3043
-40.6597
-40.4926
-57.756
98.1414
-11.844
70.6955
8.74328
-11.7752
0.554564
60.7659
25.138
-28.5139
20.3094
78.0939
86.6342
-8.25017
4.73256
6.02943
-0.133966
6.89509
-0.203186
-6.64109
14.6609
2.4025
-16.993
-0.891233
6.78548
-8.08431
-9.40207
-9.06091
10.2298
-11.1452
1.61473
-14.4726
-10.9866
18.829
42.1716
-27.2464
-21.061
42.6397
16.4882
23.069
4.02432
-10.4845
-26.3783
33.8168
11.6346
-19.0284
-15.2489
-10.3971
44.4798
-6.0141
-9.56354
-27.1995
7.48445
38.2386
12.1791
9.99136
-70.5677
63.3078
6.00214
36.6736
37.8411
44.869
42.6001
50.8431
22.8302
-10.4594
49.9483
18.7292
-4.41543
22.8933
2.02728
-0.119319
-19.4551
23.426
6.74685
-3.94615
29.3602
45.9472
-4.63174
-7.31886
19.2837
13.5289
-58.1613
63.5131
-5.00896
22.4069
19.7029
-12.9263
26.0608
-0.00874779
-0.0683315
0.107382
0.0731644
-0.00599447
-0.0532211
-0.0151516
-0.0127464
-0.0578402
0.0855388
-0.0486753
-0.00733138
0.0693583
-0.0587911
0.0686806
0.0714907
-0.0574594
-0.0619804
0.0815589
-0.00567093
-0.00439488
0.0460141
-0.0366549
0.0277695
-0.0196997
-0.00687037
0.00116787
0.0344899
-0.0291469
-0.00649252
-0.0278822
0.0350817
-0.00864778
-0.0342304
0.0313585
0.0201883
-0.0265543
-0.0279113
0.0314096
-0.00660667
-0.0123282
-0.00313148
-0.0396901
0.0550051
0.0317128
0.00266951
-0.0257569
-0.00904775
0.0125733
-0.00313467
0.00784102
-0.018368
-0.0308141
0.00438526
0.0405047
-0.0147357
-0.0432791
0.0261298
0.00393633
0.016055
-0.0283584
-0.0426223
0.0372912
-0.0139827
-0.00853378
-0.0351668
0.0460102
0.0382104
-0.0321096
-0.00853982
0.00261628
-0.0306546
0.0397769
-0.0119751
-0.0294517
0.0364595
-0.0101553
-0.0401413
0.0309352
0.023923
-0.0260689
-0.0352764
0.0365712
-0.00878039
0.0433718
-0.0457379
-0.00765304
-0.0575695
0.0522176
-0.0432673
0.0410138
0.00674229
-0.036383
0.0296936
0.0506306
0.0347054
-0.0424573
0.0371919
0.0445836
0.0383536
0.0428173
-0.042824
-0.0264856
0.0250853
0.0389298
0.028348
-0.033162
-0.0605593
0.0507014
-0.0480116
-0.00593674
0.00624778
-0.00105652
-0.00713732
-0.0473026
0.0303188
0.0467869
-0.0578482
0.0628072
-0.0429727
0.0485791
0.0333516
-0.0359731
-0.0290806
-0.0410165
0.038652
-0.0043316
-0.00873035
0.0596939
-0.00897152
0.00168885
-0.0397903
-0.0103373
-0.0270286
-0.0101545
-0.00179965
-0.00918302
0.0382665
-0.00752033
0.0310652
-0.0381581
-0.0360642
0.0301657
-0.00770467
-0.129413
0.0879893
0.0417588
-0.0010308
-0.112046
0.103903
0.00930578
0.0567569
-0.129314
0.0726327
0.0769163
-0.115069
0.0382676
-0.0460297
-0.125332
0.0421772
-0.126706
0.0796853
-0.0483488
-0.118265
-0.0926252
-0.00050533
0.111324
-0.0181663
-0.00140715
-0.0907662
0.13083
-0.038881
-0.0086931
0.00269976
-0.0901648
0.0960886
0.106375
0.000345343
-0.0916754
-0.0154547
0.0128243
-0.0924892
-0.013087
-0.0856746
0.0970048
0.0122624
0.00157378
-0.0821164
-0.11899
0.0656703
0.0535534
0.0031606
0.0416027
-0.110385
0.0657011
0.0777765
-0.104988
0.0273253
0.0344083
0.0411572
-0.0753751
-0.0778216
-0.102868
0.0619136
-0.139205
0.064621
-0.0683723
-0.129756
-0.0914646
0.0617983
0.0297521
0.00125354
0.0830685
-0.0919036
0.00761156
0.0312541
0.0462579
-0.0774303
0.0532671
-0.0768554
0.023739
-0.0382101
-0.0893931
0.0362221
-0.0914036
0.0544842
-0.0360395
-0.096167
-0.107015
-0.0184571
0.0137056
0.048789
-0.0588332
-0.119072
-0.0393778
-0.114469
0.0388714
0.0977355
-0.00986777
-0.0961959
0.00852453
0.00115338
-0.0840376
-0.0239848
-0.0682997
0.00131325
0.0124776
-0.106357
-0.112376
0.0934445
0.0722763
-0.0817485
0.0424785
-0.115651
0.0759779
-0.00223727
-0.124199
0.0676847
-0.106367
-0.0299165
-0.0324572
-0.114173
0.0821015
-0.104131
-0.0587815
-0.0601904
-0.0526471
0.00269225
-0.015795
0.101653
-0.0553247
0.0501114
-0.108873
-0.108883
0.0517061
-0.0588743
-0.118655
0.114164
-0.128282
-0.0133914
-0.0841203
0.0374646
-0.111464
-0.0542154
-0.00250316
0.00107718
-0.0691476
-0.081457
-36.1048
33.5731
-16.418
30.1815
-36.3406
-12.2897
12.191
-20.1294
16.1729
-8.24668
-6.58943
-32.2935
20.3493
-46.9606
-10.8813
-4.19645
-12.5841
-40.1653
22.706
-32.1612
-36.7963
29.8546
-10.6969
27.2264
-31.8755
-8.31361
10.2429
16.6286
-21.9463
-4.92052
-2.36547
22.4056
-32.1188
-41.0027
-8.25961
-5.53287
-8.24272
-36.4047
25.8023
-31.6927
-12.495
6.09867
5.82114
0.556821
8.38706
6.46393
-14.8424
-0.0165186
3.79812
2.91795
-7.97031
1.24684
1.67263
2.95907
3.91564
-8.54191
-13.579
-5.51113
6.59416
-5.87549
0.682693
-7.68116
3.84068
-9.76103
-14.5931
5.14703
13.5926
8.36538
6.38298
-14.0419
1.70894
3.68879
3.09032
-8.4902
8.03319
-1.4726
-0.319714
-11.3401
-5.23236
-8.01747
5.0452
-1.89725
4.68548
-8.20536
-7.8481
-45.6811
13.0726
-24.6334
-8.5636
-35.7933
-12.9579
35.6238
-34.7214
-11.5369
24.2331
5.56222
-37.6178
5.1463
22.1243
-8.52063
-6.51196
-9.31442
-4.46763
-7.84548
25.4451
-6.61016
-2.20301
-16.4169
-6.49275
-1.72359
-31.7204
-12.3992
-10.3855
-22.1859
-6.6297
-7.12612
-0.973243
-17.9471
10.3598
-22.5515
14.7801
13.6751
-18.8009
6.43689
-8.39889
5.66523
6.28574
-15.4046
8.1732
-24.7719
6.05167
-15.0065
-18.3362
5.93971
-11.3769
-6.26084
-20.3786
16.9509
-17.0957
-0.918968
-10.8197
-9.97544
-0.993288
-17.2255
0.0187612
0.0202651
-0.0389738
0.027462
0.0175413
-0.0450261
-0.00305052
0.0156702
0.0233107
-0.0359206
-0.0427514
0.0227573
0.020092
-0.0257084
0.0444805
0.0417376
-0.0400266
-0.0232557
0.0249668
0.0154269
0.0198054
0.0337276
-0.0535427
0.0501666
0.0185999
-0.0688509
-0.00647315
0.0346322
0.016789
-0.0449707
-0.0568622
0.0357674
0.0210899
-0.0407298
0.0604833
0.0617974
-0.0524037
-0.03525
0.038845
0.02007
0.0102564
-0.00264792
0.0238693
-0.031446
0.031489
-0.003192
0.009461
-0.037714
-0.0012862
0.0307233
0.00253885
-0.0319141
-0.0390082
-0.00388168
0.0294948
0.0134124
-0.0279264
0.0412917
-0.00307471
0.0379611
-0.0343573
-0.0276659
0.0299682
0.00901182
0.0296598
-0.0462339
0.0166522
0.0273848
-0.0546851
0.0273326
-0.00199198
-0.0457303
0.0244348
0.0232535
-0.0572146
0.023108
0.0341002
-0.0255213
0.0552094
0.0531002
-0.0512268
-0.0244209
0.0224091
0.0266839
0.049954
-0.0324502
-0.0016491
-0.0242975
0.0416247
-0.0243267
0.0471466
-0.0219527
-0.0325212
0.0545596
0.0304191
0.0472389
-0.0277014
0.0442073
0.0252961
0.0451715
0.0473655
-0.0461399
-0.0516307
0.0548702
0.0289015
0.0465631
-0.040853
-0.0288359
0.0411905
-0.0366584
0.0157259
0.00392448
0.00293781
0.016358
-0.0412928
0.0481668
0.0379343
-0.0235739
0.027248
-0.0221593
0.0230711
0.0308216
-0.030936
-0.0447841
-0.027136
0.026133
-0.0016846
0.0185496
0.0210413
0.0213362
-0.000931058
-0.0253185
0.0149404
-0.048046
0.016983
0.0027257
0.0212078
0.0290834
0.0142653
0.0441337
-0.032325
-0.0292436
0.0449077
0.0183813
5.32428
-3.85099
-11.8935
5.23504
9.48167
-13.8585
-14.3687
27.7321
-6.35802
-4.08962
0.139174
24.1043
-20.314
13.7175
-7.39241
-1.16199
18.8422
3.22318
-14.7337
7.69097
2.41934
11.8232
-20.0099
15.5323
-15.4355
-10.1119
-26.2986
36.3265
-5.71046
-15.2986
-3.01055
16.3235
2.01293
5.80886
9.13524
-12.4672
25.4246
2.65051
-8.79751
1.78792
-6.20108
-53.5892
46.0256
64.1831
-64.713
57.166
-69.2733
90.1997
66.7917
57.223
135.565
-21.2713
-171.435
22.9954
-37.3901
8.50462
151.195
-1.7011
21.7152
80.2723
10.0189
32.7407
-10.9877
-31.8537
-2.57476
11.2847
-11.0449
2.50454
-38.1789
-2.40255
-28.5687
69.7248
29.4456
7.93296
-24.4726
-12.9082
37.8887
-9.32363
-18.3932
39.3749
-3.91529
7.88837
12.2286
9.07917
20.8217
9.23034
-20.5447
-41.6831
14.9093
54.4902
30.57
3.07045
-33.51
-1.09895
-20.4334
3.93076
17.6507
17.1048
-9.11148
12.8831
-16.9045
10.2056
-20.4409
23.887
17.7199
-18.4037
-4.94169
7.16278
48.648
-20.2569
49.4146
3.47151
27.184
-23.7074
0.529415
-15.9607
7.53672
5.1813
41.7775
32.4138
3.25904
3.58434
11.7301
-54.2837
-55.9689
108.15
-55.1008
18.1614
44.5135
1.25294
-0.921988
-35.1013
1.10138
78.3985
1.19621
-6.7733
13.6166
-23.255
7.24811
-20.9599
30.6866
22.365
-8.47123
7.13381
-0.0103587
0.220823
-0.00481853
-0.205792
0.191523
-0.0159747
-0.0288381
-0.146842
-0.0244442
-0.0177424
0.193016
-0.151023
-0.143196
-0.0170749
0.202771
-0.042584
-0.163137
0.172895
-0.0202702
0.179542
-0.151251
-0.169159
0.198744
-0.0140634
-0.0163831
0.154967
-0.020616
-0.118077
0.105329
0.0159652
-0.121247
-0.0114034
0.149027
-0.13761
-0.0880091
0.130429
-0.0424211
-0.13621
0.0969381
0.0229545
0.114911
-0.145765
-0.103507
0.112383
-0.0140081
-0.0202775
0.168321
-0.134079
0.154441
-0.0311781
-0.123101
-0.0368731
0.149625
-0.112522
-0.105425
-0.055732
0.161423
-0.125408
0.140351
-0.0288113
0.155737
-0.126605
-0.118864
0.153868
-0.0130185
-0.0962821
0.168605
-0.0591455
0.144195
-0.0791326
-0.0649944
-0.0653077
-0.0865326
0.152024
-0.062789
0.137779
-0.0746793
-0.0871883
0.133636
-0.059376
0.137143
-0.0800591
-0.0718353
0.142791
0.140074
-0.139752
-0.0163679
-0.0308376
-0.141424
0.15445
-0.128875
0.160434
-0.048731
0.0119187
-0.0980623
0.12474
-0.0385948
0.157651
0.110533
-0.128151
0.112731
0.161916
-0.0394927
0.145744
0.141898
-0.126723
-0.0968373
0.129165
0.138622
0.149054
-0.138534
-0.166772
0.155814
-0.130521
-0.00805496
0.0217632
0.00751174
-0.0143076
-0.13072
0.131852
0.118502
-0.144776
0.180626
-0.107437
0.171573
0.134028
-0.0883942
-0.141871
-0.0913949
0.146951
-0.0462215
-0.00991982
0.174645
-0.00790982
-0.046059
-0.105609
-0.00922865
-0.147083
0.0407972
0.117941
0.110833
-0.148795
-0.141825
0.101028
-0.0167224
-0.0101071
0.00637626
-0.0245616
-0.0110021
0.0271514
-0.0237097
-0.0113983
-0.0156315
-0.0297449
-0.0289576
-0.0144131
-0.0124408
-0.0101466
-0.0399221
-0.0252706
-0.0225766
0.0139971
-0.0177085
0.0193549
-0.00727506
-0.0159234
0.0315511
0.00851219
-0.0270785
-0.0139971
-0.0271776
0.0132607
-0.026077
-0.0400966
-0.0119708
-0.00326061
-0.0177408
-0.0527413
0.01298
-0.024803
-0.0312301
0.0354714
-0.0111597
0.00596205
0.040378
-0.0390279
-0.00762103
0.0412408
-0.0412214
-0.00547386
-0.0138099
0.0504625
-0.0437863
-0.0416467
-0.0311868
0.0412931
-0.0283629
-0.00732898
-0.0506228
-0.0377338
-0.0327934
-0.0226667
0.00796349
-0.034944
-0.0311129
0.0589623
-0.0236426
-0.0408698
-0.0325701
-0.0264702
-0.0606162
-0.0302305
-0.0291129
-0.0236943
-0.0627445
-0.0330774
-0.0175878
-0.0406546
0.0330272
-0.0343073
-0.0225545
-0.0482457
-0.0245236
0.0325542
-0.0602331
-0.0207084
0.00728756
0.0221618
-0.0473613
0.0150309
0.00739636
-0.0258392
-0.0141023
-0.0126396
-0.0239392
-0.0230176
0.0428403
-0.0226351
-0.012054
-0.00550852
-0.0193779
-0.00948315
-0.029012
-0.0328033
-0.0401492
-0.026724
-0.0117965
-0.0241046
0.0168889
-0.0479115
-0.0523908
0.0071735
-0.0627521
0.0284089
-0.0570686
0.0466032
-0.0372606
-0.0316992
0.04822
-0.0571646
-0.031896
0.0305205
-0.037273
-0.0508484
-0.035174
0.0534918
-0.0360948
0.0173925
-0.00801583
-0.00929954
0.0213299
-0.0390936
0.0103422
-0.101019
0.0983395
-0.00786072
0.0855184
0.00254043
-0.0908236
0.00261415
0.00735166
-0.00632833
-0.0894864
0.08835
-0.100898
0.00559076
0.098925
-0.00372884
-0.0908953
0.100421
0.000660575
0.0844436
-0.0898945
-0.0925166
0.0919185
-0.00071879
-0.00482538
0.0825995
-0.0866256
0.00884693
0.0652372
-0.0609983
0.0160814
0.018275
0.0514256
-0.046338
-0.0759434
0.0789911
0.0171142
-0.0908863
0.0724802
0.0136414
0.0468035
-0.0724193
-0.0900452
0.086628
-0.0227822
0.0230296
-0.0576591
0.0573277
0.0340035
0.0232662
-0.0332237
0.0273467
-0.0182368
0.0216844
-0.0417135
0.0213375
0.049958
-0.0648355
0.0193841
0.0227516
0.0043434
-0.0350779
-0.0616583
0.0393742
-0.00137477
-0.106721
0.104566
0.0033901
0.0869409
-0.0895989
0.0192749
0.0159807
-0.0751958
0.0835318
-0.0978804
0.104506
0.0163069
-0.108854
0.0908914
0.0164427
0.0831282
-0.105111
-0.121518
0.114359
0.0925894
-0.0972303
0.00721104
0.00901903
-0.0875022
0.0720494
-0.0993776
0.0984215
0.00644652
0.00310483
-0.101079
0.0808588
0.0171334
0.0980329
0.0946923
-0.100089
0.106332
0.090411
0.00738318
0.0973239
0.0749641
-0.0896051
-0.0927021
0.0706471
0.077831
0.0276563
-0.0541665
-0.063754
0.0467261
-0.0706859
-0.0095538
-0.015589
-0.0156452
-0.0132771
-0.0661668
0.0488127
0.080345
-0.0893012
0.0807451
-0.113793
0.105508
0.099979
-0.108741
-0.0684816
-0.0896399
0.0827818
0.00884486
-0.0124651
0.0839568
-0.00762866
0.0127608
-0.093745
-0.0195583
-0.0422197
-0.0150296
0.0781236
0.0654614
-0.0623644
-0.0705455
0.0645338
-0.0583153
0.0543973
0.111113
0.0688083
-0.0579257
0.0743399
-0.0682956
-0.0622613
0.0569113
0.0733894
0.0633555
-0.0388877
0.0447922
0.0233665
-0.000140755
0.00193851
0.0900444
0.0207387
0.0425137
-0.0456351
-0.043522
0.0606673
0.0375398
0.0337357
0.00639036
-0.0329517
-0.0126672
0.0370819
0.00185657
-0.0268195
0.0210778
0.04531
-0.0261401
-0.0162321
0.00975962
0.00443446
0.0124072
-0.0192759
0.0499564
-0.0275373
-0.0429957
-0.0354904
0.0470517
0.0312948
0.0330636
-0.00843893
0.00389854
-0.0286752
-0.00724483
0.0327663
0.00634722
-0.03183
0.0142144
-0.0163059
0.0315152
-0.0294876
-0.019178
0.00160232
-0.0254991
0.00102579
0.0127498
-0.0224276
0.0382898
-0.0286593
-0.0312831
0.0361712
0.0410459
0.0420682
0.0237164
-0.0261591
-0.0251227
0.0204846
0.0318594
-0.0274514
0.0209369
0.0409795
-0.0256398
-0.00474835
0.01002
0.00895168
0.0282739
-0.00916984
0.0400874
-0.0254042
0.00733554
-0.00254894
-0.0593468
-0.00636107
0.00318815
0.0029833
0.00665843
0.0386563
-0.00858292
0.00843165
0.0554491
-0.0428911
-0.00539868
-0.0496006
0.0553591
0.00871124
0.00529768
0.0523458
0.0289742
0.00763396
0.0165749
0.00427647
0.0156543
-0.0559345
0.00338354
0.045829
-0.0439563
0.0436413
0.0348187
-0.0444586
0.0318533
0.00692105
-0.0390521
-0.0101556
0.0521994
0.00157491
0.0412472
0.0436704
-0.0115785
-0.00788
-0.0132035
0.041427
-0.0447589
-0.0398343
0.0454096
-0.0344923
-0.0374519
-0.0103581
-0.0422909
-0.00314164
-0.0264068
0.0225422
-0.0265326
0.0235206
-0.0277442
-0.0235968
-0.0442197
-0.037129
-0.0137951
-0.0283975
0.0177187
0.00134499
-0.0268646
0.0131725
0.00454049
0.00202043
-0.0200934
0.0025704
-0.0182526
-0.0120164
-0.0329198
-0.00791728
0.0143824
-0.0125069
0.0292856
0.000355336
0.0200385
-0.019817
-0.0286211
-0.00656058
-0.00691798
0.0167409
-0.000616951
-0.00798588
0.0418276
-0.00568375
-0.0247043
-0.0113881
-0.0370577
0.0563526
-0.0406469
0.0213889
0.00275981
0.0545047
-0.0307736
-0.0271919
-0.00761094
0.0319441
-0.0312086
0.0256601
0.00841136
-0.0118548
0.046794
-0.0232738
-0.0326467
-0.0057153
-0.000686947
0.0499451
-0.0245082
-0.045392
0.0200076
-0.0117829
-0.0405535
0.0111975
-0.00592865
0.00386443
-0.0419272
-0.0281392
0.00857421
-0.0131469
0.00487842
0.0169702
-0.0350334
-0.0418906
-0.0195732
-0.0489819
0.0371617
0.0417847
-0.0257055
-0.0305535
0.013584
0.0264148
-0.0272011
-0.0401891
-0.0531026
-0.0360792
0.0625261
-0.0629225
0.0130978
0.0297183
0.00878714
-0.0300368
-0.0730393
-0.0377744
0.0246584
-0.0132947
-0.00726535
-0.00585925
-0.0320257
0.0191406
-0.0381422
0.0307646
-0.00123067
0.0239225
-0.0321934
0.0306818
-0.0235189
0.0300194
0.011877
-0.0178968
0.0173985
0.0435893
-0.00843127
0.022751
0.0142327
-0.0108674
-0.00420049
0.0264745
0.0213739
0.0109992
0.0239028
-0.0415368
0.0140959
-0.00452387
-0.0166728
0.013322
0.0259591
-0.0333638
0.005189
0.0139346
0.0223939
-0.039492
-0.053485
0.046134
-0.0416294
-0.0136794
-0.0509801
0.00917566
-0.02645
-0.0218617
0.00576454
-0.0462897
-0.0312415
-0.0105376
-0.0368408
0.0111639
-0.0267128
0.0301957
-0.0437509
0.00487231
-0.0494226
-0.0521791
-0.00539517
-0.0465789
-0.0965151
-0.328134
0.333894
0.104995
-0.114861
-0.240636
0.250563
-0.260333
-0.100917
0.271065
0.259838
-0.0840854
-0.267444
0.214108
-0.00154089
-0.309016
-0.00730309
0.326466
0.176149
-0.0915
-0.110219
0.11136
-0.125055
0.124099
0.0949573
-0.0326567
0.0251697
-0.0874312
-0.0823985
0.0901503
0.0822948
-0.0901491
0.0886007
0.085076
-0.0903918
-0.083277
-0.00679979
-0.002664
-0.100644
-0.0122288
0.100412
0.00611763
0.07976
-0.0885184
-0.103585
-0.190148
0.183529
0.0925061
-0.116175
0.123355
-0.0992784
-0.110438
0.141237
-0.135508
0.145592
-0.115877
-0.104505
0.0344425
0.00648566
-0.144067
-0.0297206
0.156751
0.0226021
-0.117572
-0.0826161
0.180223
-0.189359
0.078343
0.122205
-0.120516
-0.07985
-0.128076
0.143831
-0.0928044
0.132253
-0.126766
-0.0820259
0.0893748
0.00740837
-0.179196
-0.00703933
0.174892
0.0436871
-0.0914273
-0.00373837
0.0989483
-0.209897
-0.232253
0.128032
0.00312094
0.144279
0.0069619
-0.235428
0.0910353
0.0660223
-0.003683
-0.153443
0.0868949
-0.186026
0.0950548
-0.236874
0.0908936
-0.186036
-0.00169623
-0.00812893
0.218325
0.161477
-0.0103869
-0.0447953
-0.0141649
0.149111
-0.0954481
-0.0146367
0.238184
-0.0940721
0.180871
0.147146
-0.107329
0.192687
-0.00491185
-0.205661
0.0974185
0.103087
0.0808726
0.0378459
-0.00896195
0.0248066
-0.195586
-0.0915005
-0.0941825
-0.161582
0.061275
-0.107356
0.01757
-0.10862
0.112426
-0.084787
-0.032144
-0.0979085
-0.160692
-0.0905999
-0.0818286
-0.127446
-0.0968456
0.210895
0.1192
-0.109956
-0.172859
0.170854
0.194719
-0.266395
0.183327
0.374921
-0.292415
0.219466
0.157046
-0.173969
0.3968
0.0125527
-0.00127292
0.224898
0.446734
-0.214946
0.179077
0.141708
-0.196236
0.222156
-0.190782
0.202849
0.138178
-0.170701
-0.274277
0.327058
0.117884
0.23053
-0.209565
0.14096
0.341593
-0.0454733
-0.092149
0.243306
0.405522
-0.219912
0.142768
0.127447
-0.270071
0.641293
-0.498694
-0.408925
-0.188442
0.497325
0.100124
-0.23521
0.772069
-0.626273
0.0892867
0.50264
-0.171747
-0.415676
0.0849592
0.630695
-0.301155
-0.202012
-0.338419
0.560297
0.656167
-0.454634
0.0825183
0.125723
0.251108
-0.207857
-0.221869
0.24046
0.133848
-0.14153
0.330674
-0.286297
0.0975048
0.250112
-0.234471
0.12293
0.358081
-0.0892288
-0.129491
0.266024
0.386781
-0.225561
0.11587
-0.0384644
0.389599
-0.228538
0.567562
-0.155625
0.390753
-0.0619348
-0.132958
0.349471
-0.0691201
-0.221805
-0.23903
0.422475
-0.271156
-0.197203
-0.0775478
-0.0658363
0.259102
0.261576
-0.121285
-0.462357
-0.185621
0.373521
0.319355
-0.168728
0.416655
0.139515
0.217125
0.181157
0.137987
0.39835
-0.143259
-0.381949
0.57457
-0.348559
0.414197
-0.225031
-0.229973
0.401842
0.182438
0.475016
-0.326854
-0.208123
0.119608
-0.293688
0.128551
-0.164602
0.466689
0.135733
0.203918
0.0993675
0.152367
0.128317
-0.493222
0.119177
-0.383931
0.317601
0.286773
-0.318798
0.120506
-43.1913
-6.70012
17.9089
-38.4903
-17.8039
22.5068
-18.2748
-5.60041
2.20066
-6.60893
-46.8343
-38.4342
-14.5016
-14.426
-33.0513
-25.0333
-36.4821
16.9157
-8.43786
24.0085
-8.82475
12.4689
4.44803
-0.758666
-0.853523
3.89176
-42.2708
-12.584
-8.52716
-9.73347
-26.6478
13.1934
-5.16516
8.51549
1.5301
-2.84081
5.38313
3.25766
4.01523
2.55054
3.01264
3.68101
-1.94884
-8.45447
5.22956
-7.12656
2.33417
-0.729349
-19.1705
10.6675
7.5
12.1315
-1.14375
6.10024
7.48558
-6.58526
-2.35305
-9.30704
10.2235
5.7653
-26.4393
-39.2785
14.9686
-17.1248
-16.1295
-9.46755
-16.1168
21.9079
-18.041
-14.2696
5.75166
-1.64382
-30.5202
-4.30295
-6.82278
-20.5899
-10.8036
-11.5564
0.718651
-14.8685
16.1949
-8.74539
-3.01593
-1.46861
-9.80193
-5.89707
-24.1814
-17.1607
-10.2725
-17.3013
-1.34919
-11.3797
-3.59883
-6.03687
-6.52932
5.74967
-7.84593
10.0399
-1.44168
8.54221
-9.12234
-18.5618
2.58861
-1.66469
-7.32763
7.90512
-7.93289
6.99208
-3.87534
1.76985
2.37578
-2.61609
0.136282
0.0588659
-0.195243
0.091514
0.130029
-0.221232
-0.203609
0.100363
0.103607
-0.0382435
0.10807
0.198446
-0.268631
0.121819
0.246423
-0.231851
0.213512
0.112093
0.0962118
0.122049
0.131113
0.0976644
-0.228808
0.134694
0.141133
-0.275701
-0.222523
0.136336
0.0863736
-0.026834
0.218908
0.0551245
-0.24726
0.113463
0.253155
-0.235414
0.248268
0.0808107
0.145411
0.106566
0.0521724
-0.182297
0.130858
0.152144
-0.1832
0.031751
-0.162507
0.163884
-0.000680673
-0.0346186
-0.251386
0.257069
0.0294356
0.0228377
0.229585
-0.199581
0.175177
0.0151471
0.180027
0.0278208
0.0659747
-0.0421273
0.296896
-0.320931
0.313576
-0.0402088
0.0514342
-0.324826
-0.347691
-0.0525137
0.359839
0.0405237
-0.0338375
0.401159
0.034736
-0.401895
0.0172841
0.370589
-0.321826
0.377392
-0.046583
0.00566403
0.331008
0.0352784
0.244809
0.117189
-0.23191
-0.212187
0.0764233
0.236591
0.0559564
0.332166
-0.279938
-0.077678
0.030143
0.325901
-0.278257
0.121459
0.0279869
0.095498
0.0313311
0.185013
-0.234586
0.272485
0.214985
-0.0298053
0.278938
-0.0652762
0.201839
-0.117972
0.194808
0.102108
0.208327
0.217767
0.0903971
0.243026
0.0318653
0.0625415
0.142412
0.0325914
0.257587
0.265491
0.0203928
-0.332801
-0.00207033
0.282975
-0.234263
0.0539724
0.212728
0.0709572
-0.289865
0.0112762
0.0751668
-0.285942
0.0329094
0.253302
0.0461256
-0.0489921
0.0677128
0.0338854
-0.158167
-0.24067
0.0358822
0.0485641
-0.095884
0.113512
-0.018439
-0.0206848
-0.0913206
0.110649
0.131418
-0.11551
-0.0167016
-0.0186365
-0.0517456
0.107707
-0.0386307
-0.0960989
-0.118327
0.117981
-0.117014
-0.106025
-0.0313195
-0.0917957
-0.0884083
-0.0333371
0.120466
-0.0411844
0.121093
-0.081034
0.152219
-0.0430114
-0.109858
-0.0208143
-0.045896
0.117625
-0.0519287
-0.0940597
-0.122421
0.127493
-0.135574
-0.0996815
-0.0440543
-0.0831917
-0.137952
0.167724
-0.0308275
-0.0370203
0.182479
-0.146169
0.233965
-0.171988
-0.0624831
-0.0420727
0.161302
-0.0740251
-0.0459176
-0.152461
-0.172522
0.186494
-0.189734
-0.163762
-0.0511158
-0.119579
-0.0301554
-0.0338091
0.104542
-0.0416667
-0.0510716
-0.0365165
0.10979
-0.0231992
0.126945
-0.0476534
-0.0339708
-0.0461024
-0.0437752
0.102091
-0.0220609
-0.0370902
-0.0649834
-0.0738343
0.107813
-0.0790121
-0.0374113
-0.068545
-0.0496358
-0.020772
-0.113995
-0.0937017
0.115814
0.144028
-0.119986
-0.140101
-0.0707408
-0.0888162
0.107044
0.0488298
-0.074146
-0.086209
0.110597
-0.0326508
0.016547
-0.0984219
0.0195207
-0.0434487
0.108022
-0.0950555
-0.127289
-0.0217049
-0.0986522
0.119301
-0.162628
0.0285118
-0.149422
-0.0898019
-0.136426
-0.155737
-0.108108
-0.144683
0.0237321
-0.128725
-0.0354838
-0.0768066
-0.0465335
-0.0490317
-0.0744113
0.101483
-0.0978223
-0.0521234
0.125924
-0.0621885
-0.0412893
-0.046278
0.132721
-0.0940427
-0.110561
0.112446
-0.049399
-0.131433
-0.0421415
0.127784
-0.108082
0.0301777
0.0454711
0.0481754
0.0285269
-0.0549303
-0.0236452
0.0802618
-0.0835592
0.0255234
0.13852
-0.0745759
-0.104756
0.0377827
-0.101305
-0.0685863
0.133714
0.0356943
-0.011132
-0.0628793
0.126198
-0.054293
-0.0296229
0.0932549
-0.0904534
0.0745287
0.0341042
-0.0321047
0.113579
-0.0590103
-0.111877
0.189016
-0.122896
0.0428212
0.243043
-0.19149
0.0674601
-0.201105
0.236182
0.083946
0.0408967
0.190154
-0.113616
-0.054489
0.118059
-0.177234
0.129027
0.0589085
-0.0554144
0.214163
-0.0848614
-0.124895
0.157965
0.0505308
0.228019
-0.201098
0.0826996
-0.205196
0.234397
0.0828734
0.0370508
-0.111945
0.181041
-0.0380763
0.0987078
-0.14752
0.127983
0.0612243
-0.0407675
0.176077
-0.0712631
-0.0214999
0.0879982
0.0013471
0.143944
0.00385386
-0.0398282
-0.0523942
0.000934326
0.153197
-0.0300063
0.153726
-0.0241741
-0.0964067
0.0369745
-0.0151931
0.0531325
-0.00722813
-0.108551
0.114673
0.0946518
-0.0622013
-0.109859
-0.110034
-0.0431322
0.0826737
-0.068102
0.083755
-0.0814915
0.0903626
-0.0755926
0.0844491
-0.100832
0.157516
-0.0105401
-0.0533781
-0.0117293
0.150621
-0.073755
0.0696259
0.0906303
0.0350214
0.0352743
0.0788342
0.0442515
0.129939
0.0615429
-0.177386
0.0863296
0.0466556
-0.0868903
0.123314
0.16223
-0.0985767
0.0443629
0.107538
-0.0120689
-0.0411212
0.134943
-0.0706362
0.132406
0.164897
-0.0771293
-0.0716391
-0.0721011
0.143409
-0.0717289
-0.077726
0.135657
-0.0728222
-0.084847
-0.0654315
-0.0797628
-0.0778063
0.111607
0.0445995
-0.0346057
-0.193138
-0.178521
-0.041108