/*--------------------------------*- C++ -*----------------------------------*\
| =========                 |                                                 |
| \\      /  F ield         | OpenFOAM: The Open Source CFD Toolbox           |
|  \\    /   O peration     | Version:  2506                                  |
|   \\  /    A nd           | Website:  www.openfoam.com                      |
|    \\/     M anipulation  |                                                 |
\*---------------------------------------------------------------------------*/
FoamFile
{
    version     2.0;
    format      ascii;
    arch        "LSB;label=32;scalar=64";
    class       surfaceScalarField;
    location    "1900";
    object      phi;
}
// * * * * * * * * * * * * * * * * * * * * * * * * * * * * * * * * * * * * * //

dimensions      [0 3 -1 0 0 0 0];

oriented        oriented;

internalField   nonuniform List<scalar> 
111136
(
-1.89899e+75
4.15099e+75
-2.25018e+75
-1.91536e+75
-1.96244e+75
3.87007e+75
3.55203e+75
-1.88409e+75
-1.67552e+75
4.79796e+73
-1.69899e+75
3.49168e+75
-1.84973e+75
-2.01572e+75
-3.54207e+75
3.6487e+75
-3.94026e+75
-1.57655e+75
-1.92544e+75
-1.96751e+75
-2.35296e+75
-2.11103e+75
4.46279e+75
-2.30884e+75
5.77462e+75
-3.46137e+75
4.68062e+75
-1.87529e+75
-2.8074e+75
-1.43182e+73
-1.69367e+75
4.51664e+75
-2.80604e+75
-2.60628e+75
-4.33923e+75
4.59093e+75
-4.91798e+75
-2.45145e+75
-1.90554e+75
-2.68723e+75
-2.14675e+75
3.69447e+75
-1.56179e+75
-1.49783e+75
4.1364e+75
-2.64264e+75
3.45635e+75
-2.23713e+75
-1.22964e+75
-1.76641e+73
3.25581e+75
-2.04401e+75
-1.20042e+75
-2.02914e+75
-3.60648e+75
3.48167e+75
-3.53072e+75
-2.12363e+75
-1.5067e+75
-2.19849e+75
-1.88706e+75
-3.58204e+73
3.44669e+75
-1.53618e+75
-1.38248e+75
-9.57255e+73
4.29571e+75
-2.81985e+75
3.29365e+75
-7.77177e+73
-2.14268e+75
-1.08747e+75
-1.33674e+74
3.71547e+75
-2.50456e+75
-1.08226e+75
-2.01173e+75
-3.49333e+75
3.59778e+75
-3.37971e+75
-2.20865e+73
-2.2534e+75
-1.38387e+75
-2.33898e+75
-3.56741e+75
-2.2662e+75
3.85764e+75
3.61386e+75
-1.96516e+75
-3.55592e+75
-1.91487e+75
-3.28007e+75
3.48473e+75
1.97346e+75
-2.19351e+75
-3.84177e+75
4.06016e+75
-1.70489e+75
-1.8752e+73
-1.849e+75
-5.88918e+73
-1.56124e+75
3.50928e+75
-3.53686e+75
-4.38371e+75
4.23889e+73
-3.93385e+75
2.25252e+75
-4.13205e+75
1.73986e+75
-3.71846e+75
-2.25708e+75
-3.9849e+75
-4.12122e+75
-2.2453e+75
-4.11629e+75
-1.01627e+73
-1.83221e+75
-1.7217e+75
-1.77509e+75
-1.5495e+75
-1.60982e+75
-2.33028e+75
3.59395e+75
-2.25253e+75
-1.42343e+75
3.17202e+75
-1.76758e+75
-1.41964e+75
-2.14103e+75
3.77293e+75
-1.95232e+75
-1.85698e+75
3.27966e+75
-2.27846e+75
-3.756e+75
-2.5115e+75
2.49885e+75
-2.49512e+75
-9.35387e+72
1.63284e+75
1.31713e+75
1.51713e+73
-2.42394e+75
1.38707e+75
-3.13503e+75
1.7259e+75
-2.94876e+75
1.35791e+75
1.58005e+75
2.12129e+75
1.16983e+75
-3.30815e+75
-2.92031e+74
1.12923e+75
-2.57692e+75
1.7219e+75
1.27856e+75
-1.57356e+75
1.67518e+75
-1.67209e+75
6.10668e+74
-2.49083e+75
1.05723e+75
1.45628e+75
-3.14432e+75
1.68221e+75
-3.29654e+75
1.51717e+75
1.76538e+75
1.75018e+75
-2.93042e+75
1.1532e+75
-2.28499e+72
-2.96956e+75
1.23182e+75
1.74111e+75
1.60543e+75
-2.03977e+75
1.8801e+75
-1.69324e+75
1.14727e+75
-3.2019e+75
1.20265e+75
8.44517e+74
2.44997e+75
-3.3041e+75
-3.33411e+75
2.05572e+75
1.27389e+75
2.9968e+75
-4.11196e+75
1.10279e+75
-1.99073e+74
2.3467e+75
-3.01959e+75
8.70303e+74
9.0842e+74
-2.50014e+75
2.42959e+75
-2.42743e+75
6.73807e+74
-3.37636e+75
1.24162e+75
9.85276e+74
-2.20938e+74
-2.54574e+75
1.77451e+75
-2.77293e+75
-8.95313e+73
9.90487e+74
1.86804e+75
2.03819e+75
-9.23756e+73
-2.64291e+75
6.9951e+74
-1.70891e+74
-2.71049e+75
7.92586e+74
2.08409e+75
9.0145e+74
-1.85931e+75
1.93966e+75
-1.7549e+75
-1.1673e+74
4.84902e+74
-2.51202e+75
7.68851e+74
-1.84655e+75
1.45036e+75
1.74955e+75
2.05296e+75
1.03718e+75
-1.92706e+75
9.90492e+74
-1.65676e+75
1.79115e+75
-1.27748e+75
1.31086e+75
-1.92972e+75
1.88951e+75
-2.95832e+75
1.04795e+74
9.92292e+74
1.51498e+74
-3.00273e+75
1.82128e+75
-1.86275e+75
-1.69698e+75
2.88911e+72
-1.6629e+75
-1.22606e+75
-1.70932e+75
2.99262e+75
-1.96848e+75
1.09518e+75
-1.80735e+75
-2.10692e+75
1.18112e+75
-2.15402e+75
3.08029e+74
4.58561e+74
-2.70029e+75
6.40554e+74
-2.53039e+75
-2.84857e+75
8.19607e+74
1.93373e+75
4.44264e+74
-2.47934e+75
2.17655e+75
8.01241e+74
-2.67934e+75
9.51065e+74
2.01424e+75
7.13885e+74
9.38837e+74
1.86637e+75
9.21355e+74
-1.83233e+75
9.85065e+74
-9.36813e+74
1.28038e+75
1.52234e+74
3.21053e+75
2.72454e+75
1.1918e+74
1.01033e+75
1.04639e+76
-7.88148e+75
-4.61675e+75
2.0061e+75
-1.84891e+75
9.35136e+75
-9.27001e+75
1.71121e+75
2.47034e+75
1.02726e+76
-1.04457e+76
-2.37221e+75
-9.93946e+75
1.2179e+76
-3.19488e+75
9.58242e+74
1.34346e+75
7.25293e+75
1.87032e+75
8.09205e+75
-8.63433e+75
7.90238e+74
-3.48158e+75
1.13627e+76
7.55736e+75
-3.75186e+74
-9.15559e+75
1.91441e+75
9.75353e+74
-8.9338e+75
5.67536e+75
2.16442e+75
2.80931e+75
8.54558e+74
-8.6754e+75
4.93559e+75
-1.21978e+76
1.0359e+75
8.44226e+75
2.67458e+75
-3.83766e+75
9.18115e+75
2.18295e+75
7.3301e+75
-1.02834e+76
-3.5719e+75
5.18197e+74
6.51667e+75
8.90282e+75
3.38639e+75
-1.20673e+76
-2.81256e+74
3.0091e+74
3.87417e+75
-8.66917e+75
4.47335e+75
4.60382e+75
-9.28745e+75
3.92091e+75
8.06735e+74
-1.56267e+76
3.59173e+75
9.52183e+75
2.53446e+75
-4.67408e+75
1.03857e+76
3.23505e+75
7.09901e+75
-1.15073e+76
-5.87358e+75
6.43473e+74
5.89169e+75
1.45074e+76
-1.4521e+76
-2.18731e+74
1.83929e+74
7.72115e+74
-1.52304e+76
1.25719e+76
1.81271e+75
1.60394e+75
-1.77946e+76
1.24157e+76
3.75394e+75
-1.81358e+76
1.63268e+76
1.99568e+75
-2.48543e+74
-1.705e+75
1.59041e+76
3.19321e+74
1.36631e+76
-1.46364e+76
-2.79593e+75
5.54957e+74
1.24754e+76
8.84042e+75
-1.41089e+75
1.89647e+75
2.0456e+75
-1.98107e+75
1.02546e+76
-6.74926e+74
1.15789e+76
1.22075e+75
-1.05879e+76
-3.28063e+75
1.20659e+76
1.77768e+75
-8.73447e+74
1.17361e+76
-2.02908e+75
1.24904e+76
-4.97572e+74
1.60843e+75
1.12868e+76
8.58995e+75
-1.04235e+76
-1.27191e+76
1.04506e+76
4.22538e+75
7.48644e+75
-1.09338e+76
2.17337e+74
9.46635e+75
-1.16988e+76
9.54696e+75
-2.99692e+75
-2.66251e+75
7.76307e+75
-1.05866e+76
9.32318e+75
1.36173e+76
-2.67867e+75
-7.07794e+74
-8.68609e+74
-2.06928e+75
5.11773e+74
-3.68643e+75
-1.35664e+76
-4.9984e+75
7.70832e+74
1.5908e+75
1.1484e+76
5.21075e+74
1.20059e+76
2.11869e+75
-4.19646e+75
1.01766e+76
-1.122e+76
9.83069e+75
-2.6713e+75
9.42057e+75
4.83483e+75
6.56272e+75
1.44162e+76
-9.89996e+74
-1.00829e+75
1.31441e+76
9.48704e+75
2.20647e+75
-2.19329e+75
2.14008e+74
2.15454e+75
-2.37316e+75
7.4056e+74
1.74099e+75
-2.48733e+75
-2.5951e+75
2.60078e+75
-3.85443e+74
2.59788e+75
2.04005e+75
-2.20998e+75
1.74531e+72
2.77635e+75
2.07659e+75
6.01222e+74
-2.72331e+75
9.01729e+74
2.07464e+75
-2.96012e+75
5.22595e+74
1.02187e+75
1.49846e+75
-3.0419e+75
-3.26424e+75
8.41175e+74
2.38072e+75
-1.11498e+75
3.19455e+75
2.66167e+75
-2.88109e+75
-5.20798e+74
4.64511e+74
2.68238e+75
1.65635e+75
9.94776e+74
-2.67921e+75
7.96763e+74
6.95936e+74
1.4247e+75
-2.98837e+75
8.42917e+74
1.64902e+75
-2.51341e+75
-3.30001e+75
8.07722e+74
2.45734e+75
-1.18225e+75
2.15828e+75
5.4847e+74
2.34428e+75
-2.75424e+75
-1.15662e+75
2.0336e+75
3.25839e+75
-3.2558e+75
3.49196e+74
-3.26742e+75
2.87259e+75
6.03819e+74
-3.6793e+75
3.05778e+75
-3.89946e+75
3.89987e+75
-4.3738e+74
3.69645e+75
3.43351e+75
-3.54992e+75
-2.2026e+74
3.81554e+75
2.82014e+75
-7.27886e+74
-3.70654e+73
-7.94354e+74
2.51916e+75
-5.34251e+74
3.11132e+75
-2.53273e+75
-9.88907e+74
3.47911e+75
1.71193e+74
2.65625e+75
-7.29562e+73
2.90402e+75
7.46769e+73
2.41641e+75
2.36187e+75
-2.56629e+75
-3.21664e+75
3.07714e+75
1.16007e+75
2.48984e+75
-2.76228e+75
-6.83236e+74
2.17515e+75
-2.37603e+75
2.86919e+75
-6.0443e+74
5.01105e+73
1.68985e+75
-3.00359e+75
2.73089e+75
2.89882e+75
-4.18984e+74
-1.57185e+74
5.48095e+74
-3.63494e+74
-3.18705e+75
-4.92792e+74
7.49304e+74
2.13854e+75
3.00352e+75
-1.69347e+72
-1.03271e+75
2.69508e+75
-2.68393e+75
3.03446e+75
-5.499e+74
3.26179e+75
8.09105e+74
2.28848e+75
3.1463e+75
-1.59594e+74
-5.55416e+74
3.38344e+75
2.26699e+75
1.61624e+76
-3.84076e+76
2.19559e+76
-3.62438e+76
1.58347e+76
2.02852e+76
2.75705e+76
1.20082e+76
-3.99461e+76
-3.85651e+75
1.2766e+76
-3.09897e+76
2.17873e+76
1.46601e+76
-2.0135e+76
2.15525e+76
-2.16196e+76
5.45465e+75
-2.96734e+76
1.13559e+76
1.74982e+76
-3.96949e+76
2.22477e+76
-4.18444e+76
1.66306e+76
2.51039e+76
2.42641e+76
-3.85037e+76
1.40397e+76
-6.04001e+74
-3.67845e+76
1.44093e+76
2.29625e+76
1.84135e+76
-2.57564e+76
2.47436e+76
-2.34653e+76
1.07435e+76
-3.73519e+76
1.15207e+76
9.00545e+75
3.33029e+76
-4.26568e+76
-4.08723e+76
2.9981e+76
1.07576e+76
4.01398e+76
-4.73744e+76
6.24145e+75
-5.35164e+75
3.05926e+76
-3.22704e+76
6.95505e+75
8.66448e+75
-3.15089e+76
3.16777e+76
-3.22827e+76
6.84942e+74
-3.79483e+76
8.52138e+75
9.1822e+75
-3.64805e+75
-2.87556e+76
2.28822e+76
-3.28515e+76
-2.4108e+75
9.60729e+75
2.54863e+76
2.78611e+76
-4.01368e+75
-3.02113e+76
6.17409e+75
-3.75233e+75
-2.65047e+76
5.5727e+75
2.43648e+76
8.04897e+75
-2.38893e+76
2.48563e+76
-2.25137e+76
-2.32658e+75
-6.83389e+74
-2.72661e+76
4.63631e+75
-2.37911e+76
1.66838e+76
2.28899e+76
2.69564e+76
9.92853e+75
-2.51187e+76
1.01938e+76
-1.9921e+76
2.23014e+76
-1.35813e+76
1.33501e+76
-2.49736e+76
2.50226e+76
-3.60151e+76
1.82968e+75
1.00744e+76
2.28702e+75
-3.63311e+76
2.43376e+76
-2.395e+76
-2.30785e+76
-6.43194e+74
-2.28747e+76
-1.12179e+76
-2.74337e+76
3.56206e+76
-2.613e+76
1.2027e+76
-2.52144e+76
-2.60203e+76
1.03155e+76
-2.70102e+76
5.02357e+75
2.2039e+75
-3.261e+76
2.81731e+75
-2.67959e+76
-3.46718e+76
6.92673e+75
2.59275e+76
5.17244e+74
-3.07361e+76
3.01627e+76
8.59891e+75
-3.40567e+76
8.93801e+75
2.80603e+76
6.25249e+75
9.32604e+75
2.53474e+76
5.56539e+75
-2.51875e+76
9.13605e+75
-8.54929e+75
1.10091e+76
2.51739e+75
3.81682e+76
3.38203e+76
2.58195e+75
1.10951e+76
1.25583e+76
-1.10924e+76
-9.07183e+75
7.60466e+75
-8.42304e+75
1.08902e+76
-9.28879e+75
6.75554e+75
9.71807e+75
9.79792e+75
-8.73281e+75
-1.06759e+76
-1.36561e+76
1.78015e+76
-1.08233e+76
6.60267e+75
2.69348e+75
4.91147e+75
4.91487e+75
3.24408e+75
-8.97273e+75
2.59363e+75
-1.13525e+76
1.55598e+76
7.711e+75
-8.47915e+75
-7.98718e+75
8.83896e+75
-5.06569e+75
3.61477e+75
-8.35245e+75
9.90469e+75
1.19646e+76
-4.7547e+75
7.1387e+74
-7.80924e+75
-1.60648e+76
-7.48641e+75
1.08208e+76
1.27118e+76
-4.76382e+75
2.33828e+75
1.0168e+76
1.38156e+74
-9.88153e+75
-5.92401e+75
-7.75955e+75
6.20762e+75
5.71805e+75
9.48455e+75
-6.82589e+75
-8.27572e+75
-4.94228e+75
1.10192e+76
6.71627e+74
-6.61049e+75
1.11942e+76
-1.20043e+75
-5.55104e+75
-4.36895e+75
-1.18637e+76
1.21148e+76
6.38468e+75
-6.61365e+75
-5.58702e+75
-1.61856e+75
1.30674e+76
-4.07932e+75
-6.3599e+75
-6.70504e+75
-6.7442e+75
4.18335e+74
2.37629e+76
-2.26283e+76
-8.80245e+75
7.79638e+75
-7.62115e+75
-2.11848e+76
1.77946e+76
1.10702e+76
1.22267e+76
-2.15973e+76
1.70198e+76
-7.66374e+75
-2.85628e+76
2.81732e+76
-6.81208e+75
7.33896e+75
-3.84553e+72
1.72256e+76
6.68867e+75
1.16324e+76
-1.9181e+76
-1.08285e+75
-1.01787e+76
2.28464e+76
4.03357e+75
-4.89971e+74
7.36559e+75
8.817e+75
-1.30214e+75
2.43946e+75
1.08852e+75
1.12015e+76
5.5246e+75
-1.55554e+76
-3.18663e+75
7.78826e+75
1.10236e+76
-1.14945e+76
1.70238e+76
-1.46397e+75
1.2908e+76
-8.05346e+75
9.58049e+75
5.99621e+75
6.46349e+74
-9.59768e+75
-1.38697e+76
3.23323e+75
4.95904e+75
-1.19602e+75
-8.40728e+75
8.78314e+75
-2.29997e+74
-9.66363e+75
8.72039e+75
-9.48825e+75
-1.2869e+76
8.16408e+75
-8.76436e+75
3.94673e+74
1.46633e+76
-2.05279e+75
-9.95439e+75
1.42458e+75
-1.2816e+76
-8.60848e+75
-4.74516e+75
-7.01386e+75
-5.12192e+75
-9.38251e+75
9.59815e+75
1.40284e+76
-8.88751e+75
1.70511e+76
1.07384e+76
-3.68799e+75
7.23781e+75
-1.68782e+75
8.77838e+75
-1.4359e+76
1.28946e+76
6.50521e+75
3.35435e+75
1.19418e+76
8.45198e+75
6.56413e+75
1.53501e+76
7.64181e+75
2.30881e+75
-8.35641e+75
2.85899e+75
3.17505e+75
1.91998e+75
2.37179e+75
-7.20774e+75
2.89452e+75
-5.40701e+75
2.77685e+75
1.14014e+75
1.46974e+75
1.62835e+75
3.41532e+75
-7.56966e+75
2.50881e+75
4.55532e+75
4.68074e+75
-6.93617e+75
4.06509e+75
2.40633e+75
4.37208e+75
1.92635e+75
3.02237e+75
2.5578e+75
1.40298e+75
-6.60731e+75
2.6249e+75
9.32052e+74
-5.49715e+75
2.35439e+75
2.17745e+75
-4.53637e+75
7.32827e+74
1.06221e+75
2.7029e+75
7.65706e+74
8.68759e+74
-4.90041e+75
3.20643e+75
4.33438e+75
3.78115e+75
-5.5775e+75
3.25521e+75
2.00425e+75
3.73958e+75
7.91236e+74
2.45032e+75
3.29392e+75
-3.18515e+75
-6.50865e+73
-6.60968e+73
-9.74514e+73
-3.02656e+75
6.54088e+74
2.40296e+75
-1.74572e+75
-5.93939e+74
-1.04746e+75
3.376e+75
-1.67816e+75
-2.36957e+75
1.08457e+74
3.91236e+75
2.4842e+75
3.55506e+75
-2.76493e+75
2.90869e+75
-5.3173e+74
1.99397e+75
-1.27979e+74
3.15248e+75
4.53674e+75
-7.11152e+74
-5.32758e+75
1.48395e+75
5.32811e+74
-1.28225e+75
-3.59476e+75
4.31089e+75
-2.49955e+75
-2.20864e+75
6.39642e+74
4.05455e+75
-3.58047e+75
-1.51469e+75
2.69592e+74
4.80573e+75
3.11718e+75
5.39645e+75
-3.98373e+75
5.07504e+75
-1.42788e+75
1.3264e+75
4.85032e+74
3.8978e+75
4.35378e+75
4.63702e+75
-6.63985e+75
-4.81945e+75
3.62248e+75
3.95852e+75
4.32268e+75
4.80503e+75
-5.73508e+75
-3.39985e+75
3.92667e+75
4.47505e+75
-5.03384e+75
1.21291e+75
-1.25443e+75
4.37594e+75
-5.93581e+74
1.48779e+75
-6.16621e+75
5.21239e+75
3.88954e+75
2.14352e+75
4.36645e+74
4.3457e+75
-3.37347e+75
2.62235e+75
1.45738e+75
-8.7053e+74
3.31284e+75
1.16497e+75
3.05866e+75
5.19015e+75
4.27788e+75
2.66695e+75
1.64243e+75
3.56728e+75
1.02372e+74
3.10721e+75
7.3416e+74
3.00707e+75
1.07832e+75
7.45826e+74
2.43908e+75
-4.36317e+75
1.72936e+75
4.13944e+74
-4.35606e+75
3.67298e+75
7.67011e+74
3.86003e+75
-3.17798e+75
2.47915e+75
3.23031e+75
-3.98433e+75
3.33803e+75
3.86909e+75
2.90521e+75
-2.94379e+75
2.52775e+75
7.03575e+74
-2.4867e+74
-8.0827e+74
3.69852e+74
3.42453e+75
-1.08842e+76
2.1556e+76
-1.07561e+76
1.59812e+75
-3.67361e+75
1.66482e+76
-1.45886e+76
2.03701e+76
-9.11909e+75
-1.1333e+76
-1.18168e+76
-8.44227e+75
2.02271e+76
-1.97288e+76
-9.03837e+75
1.78754e+76
-7.36852e+75
-1.08151e+76
-2.08794e+76
-7.8944e+75
5.45611e+75
4.20388e+75
4.37921e+75
-1.41316e+76
9.4448e+75
-1.02149e+76
1.58471e+76
-1.51631e+76
2.32867e+74
4.32092e+75
8.87657e+75
-1.36772e+76
-1.54891e+76
3.46852e+75
5.47328e+75
6.63362e+75
-6.62539e+75
1.30642e+76
-1.03189e+75
1.62506e+76
-1.3635e+76
-7.05193e+75
4.47687e+75
9.29114e+75
-6.42432e+75
1.96544e+76
-1.32687e+76
1.38816e+75
1.19102e+76
3.74062e+75
-1.70883e+76
2.06731e+76
-4.00048e+75
-1.66861e+76
-1.40867e+76
1.87978e+76
-4.5333e+75
-1.85032e+76
-4.9676e+75
1.7181e+76
-3.56456e+75
-1.35495e+76
-1.90744e+76
-2.00471e+75
-5.94625e+75
-1.22871e+76
1.81509e+76
4.25028e+74
-1.78814e+76
1.78411e+76
-3.67509e+74
1.8093e+76
-1.24218e+76
-5.86829e+75
-1.25841e+76
1.78363e+76
-5.34296e+75
-1.67559e+76
-4.80119e+75
1.54805e+76
-4.55493e+75
-1.18514e+76
-1.74498e+76
-3.96017e+75
-1.90425e+74
-1.59987e+76
1.26667e+76
1.77946e+76
-2.00549e+76
-6.96243e+75
-1.7916e+76
-7.11184e+75
1.64802e+76
1.44621e+75
-1.43814e+76
1.20977e+75
1.15572e+76
1.17468e+75
1.6492e+76
-1.78382e+76
1.105e+76
9.31248e+74
1.70339e+76
-5.98035e+75
2.78104e+75
-1.45907e+76
-1.42457e+76
3.26248e+75
1.32403e+76
5.4913e+75
-1.43906e+76
-1.26298e+75
-5.34295e+75
-1.34895e+76
-1.28236e+74
-1.48113e+76
-9.81735e+75
-1.21575e+75
-1.48268e+76
2.24525e+75
1.24218e+76
-1.94135e+76
-1.94344e+76
6.42968e+74
-1.73818e+76
4.27818e+75
-1.66757e+76
1.89055e+76
-6.53287e+75
-6.52758e+75
1.7736e+76
-1.99958e+76
-5.0806e+75
5.53944e+75
-3.39876e+75
-1.51084e+76
7.49471e+74
1.4333e+76
3.05323e+75
1.34995e+76
-1.38092e+75
-9.7141e+74
1.51471e+76
-1.02182e+75
1.23785e+75
-6.66169e+75
-3.61063e+75
-5.79342e+75
7.27628e+74
-3.64345e+75
8.07433e+75
4.29867e+74
-5.58667e+75
-3.03058e+75
-2.64293e+75
-1.94958e+74
-6.38332e+75
-3.39467e+75
-5.71541e+75
-5.45159e+75
-3.80489e+75
-2.67682e+75
-5.72716e+75
-8.07391e+73
4.42034e+74
-5.28582e+75
-3.87024e+75
-3.73919e+75
-3.86727e+74
-5.16658e+75
7.00769e+75
-3.25637e+75
-6.30068e+74
-3.1684e+75
-3.04171e+75
-7.46438e+75
-1.57056e+75
-4.48026e+75
-6.58821e+75
-4.4708e+75
-3.76982e+75
-4.48568e+75
-5.17911e+75
-1.95257e+75
-5.68729e+74
6.17625e+75
-3.69367e+75
-2.16592e+75
-2.35343e+75
5.46134e+75
-1.50982e+75
-1.81774e+75
2.55247e+75
-1.26262e+75
-1.47723e+75
-3.43164e+73
4.511e+74
5.29219e+75
-2.31863e+75
-3.61814e+75
-2.49314e+75
-4.78678e+75
6.5791e+75
-3.48377e+75
-1.42046e+75
-1.60804e+75
-2.80242e+75
-2.57376e+75
-2.79138e+75
-5.28231e+74
-6.00957e+75
-6.83282e+75
-2.65152e+74
-3.40376e+75
6.80981e+75
1.31407e+75
-3.25119e+75
-4.95224e+75
1.99223e+75
-3.80982e+75
-6.09613e+75
-2.85123e+75
-8.60301e+75
-9.94865e+75
2.2787e+74
-1.89375e+75
-4.73684e+75
-5.04907e+75
-6.73206e+75
-3.52317e+75
9.01818e+75
-3.28172e+75
-5.42485e+75
-3.06185e+75
-7.59756e+75
7.95629e+74
-3.56237e+75
-8.95246e+75
-6.48035e+75
3.34558e+75
-3.6661e+75
2.44949e+75
-6.46221e+75
-7.09067e+75
-5.07888e+75
-3.77313e+75
-2.8086e+75
-8.27891e+75
3.78634e+75
-4.43903e+75
-2.6712e+75
4.29821e+75
-5.00783e+75
-2.69707e+75
-1.07561e+75
-7.74117e+75
-9.09518e+75
-6.08777e+74
-2.86278e+75
-5.95669e+75
1.37872e+75
-2.45094e+75
-4.43677e+75
-2.46819e+75
-5.69798e+75
-6.34393e+75
-2.91232e+75
7.00346e+75
-1.80222e+75
-3.92426e+75
7.84404e+75
-1.57731e+75
-4.94522e+75
-1.72689e+75
7.84295e+75
-2.45904e+75
-1.30977e+75
6.80544e+75
-3.39e+75
-8.73215e+75
-2.509e+75
3.02128e+75
-2.01411e+75
8.94843e+74
4.26657e+75
5.18763e+75
1.31094e+75
-2.24878e+75
5.77052e+75
-9.27857e+74
8.17434e+74
-6.60774e+75
6.3208e+75
-7.25062e+74
1.03454e+75
1.25693e+75
5.09585e+75
-1.3543e+75
-5.34463e+74
7.81854e+75
1.0992e+75
5.16089e+75
-3.32777e+74
9.43394e+74
-7.56653e+74
-6.9037e+74
5.59929e+75
6.10839e+75
7.38808e+75
-8.03767e+75
-7.2331e+74
1.37738e+75
-9.09758e+75
-9.84206e+74
8.41117e+75
1.69042e+75
1.05911e+75
-7.72532e+75
-6.03046e+74
7.26049e+75
2.16473e+74
-1.1288e+76
1.00653e+76
1.11175e+75
6.92623e+75
-1.10843e+75
1.58918e+75
-1.28559e+75
-8.81537e+74
7.99994e+75
-8.8682e+75
7.76436e+75
4.64497e+75
1.59565e+75
-1.72381e+75
-5.52319e+75
1.49896e+75
-1.41015e+75
5.56992e+75
2.14449e+75
-2.28826e+75
4.19912e+75
-1.40107e+75
1.4979e+75
9.48621e+75
3.28265e+75
-4.13471e+72
1.48374e+75
-3.40528e+74
-1.87281e+75
4.57215e+75
6.40889e+75
1.04575e+76
1.28176e+75
7.84345e+74
-1.31338e+76
1.55606e+75
1.10436e+76
5.2944e+74
-6.70162e+73
6.36819e+74
1.18643e+76
2.7839e+75
1.3836e+76
-3.05203e+74
1.20707e+76
-2.22549e+75
6.24816e+74
-2.61775e+75
1.54264e+75
1.29937e+76
1.02831e+76
-7.24679e+74
5.90844e+75
1.15525e+75
1.30408e+75
4.39683e+75
-5.80475e+74
8.29722e+75
-1.67267e+75
1.17376e+75
-8.5302e+75
9.5049e+75
-1.93425e+75
1.0326e+75
-7.749e+75
-3.0878e+74
7.37624e+75
-3.39106e+74
-1.0071e+76
1.21414e+75
-2.11463e+75
-1.28824e+75
-8.37711e+74
9.68828e+73
-1.86456e+75
-5.7084e+75
-7.77054e+74
-1.26391e+75
6.64548e+75
-8.43959e+74
-1.35044e+75
7.53806e+75
-1.4246e+75
-1.23287e+75
6.05951e+75
-8.32777e+74
-8.84955e+74
3.98509e+74
5.65158e+75
9.02028e+75
-1.06216e+76
1.02624e+76
1.03785e+75
9.45996e+75
1.24149e+75
8.60788e+75
8.14757e+75
9.31426e+74
8.75994e+75
6.39892e+75
1.40008e+75
9.57417e+75
-4.77575e+74
8.88606e+75
-7.03554e+75
7.77045e+75
1.84661e+74
7.69852e+75
1.03254e+76
-2.26981e+74
9.61775e+75
-2.24191e+74
3.33347e+74
-1.138e+74
-1.72568e+74
-2.922e+74
4.6226e+74
3.45455e+74
-2.54022e+74
-1.00118e+74
8.50509e+72
-2.28353e+74
2.49066e+74
-3.89357e+73
-2.16595e+74
-3.32811e+74
3.13376e+74
-3.94014e+74
-1.99571e+74
-1.27687e+74
-2.49519e+74
-4.35488e+74
-2.76382e+74
7.09773e+74
-4.10046e+74
1.16577e+75
-7.58812e+74
8.45762e+74
-2.56503e+74
-5.9666e+74
1.69034e+73
-2.64509e+74
9.17252e+74
-6.781e+74
-4.90216e+74
-7.83811e+74
8.30489e+74
-9.02947e+74
-5.0843e+74
-2.59128e+74
-5.66795e+74
-3.44208e+74
4.26455e+74
-8.64036e+73
-1.38673e+74
6.05535e+74
-4.72444e+74
4.07096e+74
-4.0517e+74
-1.33514e+73
2.24552e+73
4.41003e+74
-4.53226e+74
-1.62953e+73
-3.37303e+74
-4.73209e+74
4.58991e+74
-4.79455e+74
-3.58477e+74
-9.60068e+73
-4.32222e+74
-3.34223e+74
3.31467e+71
3.22391e+74
-2.33307e+72
-1.54392e+74
1.02298e+73
7.73981e+74
-6.38578e+74
4.61842e+74
1.63258e+73
-4.89943e+74
-7.83289e+71
-8.83624e+71
5.59015e+74
-6.7462e+74
1.005e+74
-3.66419e+74
-4.72928e+74
4.93644e+74
-5.51112e+74
2.55438e+73
-4.42891e+74
-3.46653e+73
-5.34211e+74
-4.88876e+74
-3.41032e+74
5.32953e+74
3.96625e+74
-2.56998e+74
-4.02236e+74
-2.67904e+74
-3.44758e+74
3.71481e+74
3.66739e+74
-4.17091e+74
-6.59252e+74
6.99481e+74
-1.56379e+74
-1.37894e+73
-3.21181e+74
-9.91554e+72
-1.40631e+74
4.87657e+74
-4.24592e+74
-6.21697e+74
1.79607e+73
-7.02241e+74
3.93231e+74
-6.52985e+74
1.81115e+74
-4.40214e+74
-3.58462e+74
-5.85518e+74
-6.04438e+74
-4.06041e+74
-6.20886e+74
6.68764e+72
-2.96314e+74
-1.15623e+74
-2.79991e+74
-6.82871e+73
-1.70522e+74
-4.8108e+74
4.72706e+74
-3.91601e+74
-7.33122e+73
4.01393e+74
-3.48694e+74
-5.50421e+73
-3.04497e+74
4.49475e+74
-3.31955e+74
-3.11369e+74
4.88086e+74
-4.43566e+74
-6.55983e+74
-5.34093e+74
4.43392e+74
-4.93264e+74
-1.65452e+73
1.62451e+74
1.37469e+74
-1.55012e+73
-5.36688e+74
-2.37884e+74
3.12326e+73
1.81654e+74
-1.23899e+74
-1.52758e+74
2.53589e+74
3.77734e+74
-1.03932e+74
-2.89587e+74
-5.05018e+73
-1.63193e+74
-7.58145e+73
2.76141e+74
-1.69761e+74
-2.59104e+74
1.83611e+74
-2.95675e+74
-1.25717e+74
-1.9197e+74
-4.53379e+73
-6.81426e+73
-2.65905e+74
3.11353e+74
-3.16088e+74
-2.72696e+71
2.97105e+74
4.10065e+74
-4.47969e+74
2.42371e+73
-3.28149e+72
-3.49259e+74
3.24334e+72
3.31119e+74
-1.4846e+73
-3.72562e+74
3.10022e+74
-3.33464e+74
-2.01064e+73
-3.69218e+74
5.4549e+73
-7.77983e+73
5.53905e+74
-4.89876e+74
-5.35828e+74
5.09889e+74
1.04351e+73
6.63058e+74
-6.72068e+74
-3.39582e+72
4.13717e+73
6.11697e+74
-6.47145e+74
-1.93665e+73
-1.78637e+73
-5.23261e+74
4.56165e+74
-5.55029e+74
-2.96688e+73
-4.56394e+74
7.74561e+73
-1.78657e+74
-4.51299e+73
-1.11526e+74
3.22782e+74
-3.64122e+74
-4.57452e+72
-1.90823e+73
3.74376e+74
5.60354e+74
4.90712e+73
-5.74978e+74
-5.12473e+73
2.66329e+73
-3.33737e+74
-7.8244e+73
3.5215e+74
-9.38446e+73
-4.06307e+74
3.16369e+74
-4.80801e+74
2.03699e+73
-8.61723e+73
-2.99826e+74
-8.68695e+72
-3.10423e+74
-8.64419e+73
2.34317e+74
3.40893e+74
-6.95473e+73
-3.85113e+74
-1.23886e+74
-3.19186e+74
2.72548e+74
5.15335e+73
-7.07866e+72
-4.12715e+74
3.57437e+74
-2.71227e+74
2.40856e+73
-7.80483e+73
2.38184e+73
-2.45233e+74
3.09778e+74
-3.48123e+74
-3.55695e+74
1.29007e+73
-3.72635e+74
-1.63303e+73
-4.38305e+74
3.8483e+74
-4.70855e+74
-2.48002e+73
-4.16269e+74
-3.83916e+74
-3.56561e+73
-4.39837e+74
4.10233e+73
-9.83867e+73
-3.34194e+74
-1.48609e+74
-2.22968e+74
-3.71051e+74
-5.79832e+73
4.88938e+74
-5.35709e+73
-3.92192e+74
4.20529e+74
-1.16541e+74
-2.72445e+74
-7.84586e+73
4.2914e+74
-6.22567e+73
-1.84883e+73
5.2627e+74
2.77554e+73
-4.51731e+74
1.55303e+73
2.56635e+70
6.44596e+73
-2.00884e+73
4.44491e+74
4.30285e+74
3.65483e+72
-2.09231e+73
-2.40724e+76
5.23945e+76
-2.83061e+76
-2.41848e+76
-2.59373e+76
5.00661e+76
4.47244e+76
-2.422e+76
-2.052e+76
5.09118e+74
-2.09033e+76
4.33403e+76
-2.29232e+76
-2.5734e+76
-4.37668e+76
4.54318e+76
-4.99812e+76
-2.00423e+76
-2.32821e+76
-2.53229e+76
-2.95461e+76
-2.61401e+76
5.56601e+76
-3.0224e+76
7.67356e+76
-4.65716e+76
6.04557e+76
-2.22723e+76
-3.82575e+76
3.23753e+74
-1.95265e+76
5.88339e+76
-3.95201e+76
-3.27624e+76
-5.42235e+76
5.73928e+76
-6.3015e+76
-3.08867e+76
-2.307e+76
-3.34431e+76
-2.5554e+76
4.44701e+76
-1.91165e+76
-1.85186e+76
5.21061e+76
-3.38536e+76
4.7604e+76
-3.03723e+76
-1.7474e+76
-3.00064e+74
4.18437e+76
-2.89756e+76
-1.26468e+76
-2.89815e+76
-4.45795e+76
4.78574e+76
-4.76303e+76
-2.65661e+76
-1.83712e+76
-2.66193e+76
-2.36024e+76
-7.22007e+74
4.36165e+76
-1.94611e+76
-1.5937e+76
-9.85925e+74
5.38753e+76
-3.71231e+76
4.36982e+76
-1.36995e+75
-3.01473e+76
-1.24955e+76
-2.12613e+75
4.18569e+76
-3.05497e+76
-9.29648e+75
-2.83643e+76
-4.0325e+76
4.47639e+76
-4.33582e+76
-1.12336e+75
-2.83981e+76
-1.42062e+76
-2.80779e+76
-4.54321e+76
-2.94225e+76
4.87656e+76
4.60491e+76
-2.72391e+76
-4.33024e+76
-2.50161e+76
-4.08994e+76
4.48452e+76
2.50002e+76
-2.76058e+76
-4.65647e+76
4.90421e+76
-2.13608e+76
-3.47029e+74
-2.37794e+76
-6.36259e+74
-1.95432e+76
4.41188e+76
-4.52175e+76
-5.56225e+76
5.99075e+74
-4.78054e+76
3.15344e+76
-5.39611e+76
2.15854e+76
-4.90379e+76
-3.01839e+76
-4.93347e+76
-5.27277e+76
-2.7764e+76
-4.90082e+76
1.72032e+74
-2.29124e+76
-2.06727e+76
-2.31852e+76
-1.85159e+76
-1.78435e+76
-2.9742e+76
4.26318e+76
-2.74016e+76
-1.66349e+76
4.32885e+76
-2.53265e+76
-1.78587e+76
-2.5127e+76
4.40938e+76
-2.68577e+76
-2.74973e+76
4.22004e+76
-2.77945e+76
-4.67057e+76
-3.08631e+76
2.85258e+76
-3.04131e+76
-2.45962e+74
2.05714e+76
1.50881e+76
8.75667e+73
-3.15311e+76
-3.00979e+76
2.80774e+76
1.96221e+76
2.38929e+76
-2.72153e+76
2.1424e+76
1.96989e+76
-3.9115e+76
3.71278e+76
-1.58e+76
-3.12659e+76
2.83723e+76
1.84219e+76
-4.40211e+76
-2.65332e+75
1.64755e+76
-4.67173e+75
-4.87519e+76
2.99905e+76
-3.38157e+76
-2.63001e+76
2.09677e+76
2.57437e+76
1.76278e+76
3.14374e+76
-2.74454e+76
2.573e+76
2.9921e+76
-3.88088e+76
-2.02985e+76
1.86809e+76
3.06414e+76
-2.92963e+76
-4.11598e+76
-8.70315e+75
2.36057e+76
-5.66524e+75
-5.59049e+76
2.66597e+76
-3.59075e+76
-4.26261e+76
2.02965e+76
2.78135e+76
2.36774e+76
2.60922e+76
-4.54781e+76
2.62847e+76
1.33815e+76
-4.97548e+76
-3.61227e+75
2.89243e+76
2.45707e+76
-5.02434e+76
-4.61756e+76
-2.00545e+76
2.3597e+76
-2.35133e+76
-4.97582e+76
2.6051e+76
-4.7006e+76
-3.24897e+76
-1.68939e+76
2.616e+76
2.29062e+76
2.19657e+76
-2.12376e+76
3.18276e+76
-3.26107e+76
3.42542e+76
-1.46009e+76
2.38494e+76
-4.34945e+76
-2.40432e+76
2.85724e+76
3.04458e+76
-3.50863e+76
-5.16453e+76
-5.3952e+75
2.43509e+76
-9.46114e+75
-2.02338e+76
-6.04845e+76
3.07778e+76
-3.56744e+76
-4.79875e+75
-4.24496e+76
2.00197e+76
2.24402e+76
-5.32652e+76
-8.26664e+75
-4.64017e+76
-5.65074e+75
2.06415e+76
3.00814e+76
-4.54394e+76
-7.73811e+75
2.27956e+76
2.73242e+76
1.93408e+76
-5.17928e+76
1.59265e+76
2.34895e+76
2.58114e+76
-6.99375e+75
-5.02004e+75
-1.76033e+76
-9.18863e+75
5.40412e+76
-1.13844e+76
-3.3039e+76
-8.5858e+75
-3.35696e+76
-2.33019e+76
-2.45059e+76
-3.92586e+76
-9.72857e+75
1.27891e+76
-5.23968e+76
3.10293e+76
-5.10764e+76
2.86973e+76
2.70135e+76
-5.61431e+76
1.4051e+76
-5.54071e+76
2.69427e+76
2.17864e+76
-4.17262e+76
3.23977e+76
-3.63211e+76
2.95415e+76
-5.74486e+76
-4.07031e+76
1.65352e+76
-4.30137e+76
-3.03347e+76
-3.51561e+76
5.59083e+76
-4.12304e+76
1.23806e+76
-2.95557e+76
-2.84573e+76
1.66423e+76
-4.23496e+76
-3.1048e+75
2.12825e+75
3.16511e+74
-2.65209e+75
1.70562e+75
8.52796e+74
-2.71505e+75
1.84646e+75
1.9099e+75
-2.63872e+75
-7.38241e+74
-3.26655e+75
-2.73123e+75
2.30286e+75
-1.36607e+75
-3.25324e+75
-2.4905e+75
2.78847e+72
1.08837e+75
-9.56247e+73
4.30701e+74
-2.62716e+75
2.03385e+75
-2.0168e+74
6.01803e+74
-2.44645e+75
5.80613e+74
-9.46065e+73
-2.23276e+75
-1.58506e+75
-2.79096e+75
-2.6419e+75
9.51921e+74
-2.00136e+75
-2.19908e+74
-2.62007e+75
-2.76824e+75
1.47932e+75
1.29094e+75
-3.27378e+74
2.30073e+75
6.86175e+74
-2.66134e+75
2.30874e+75
7.19406e+74
-3.04775e+75
9.56611e+74
1.52597e+75
-2.48016e+75
-1.91609e+75
-2.99526e+75
2.12018e+75
-3.25431e+75
9.99928e+74
-2.04861e+75
-2.99813e+75
-2.12188e+75
1.40271e+75
5.61222e+73
7.71222e+74
-2.1929e+75
1.21107e+75
1.15086e+75
-2.37922e+75
1.01489e+75
-1.96613e+75
-7.68628e+74
-2.05733e+75
-2.02166e+75
1.2962e+75
-1.05275e+75
-1.86992e+75
-2.56172e+75
-1.40192e+75
1.42697e+75
-1.50715e+75
-2.67488e+75
-9.42888e+74
-2.53452e+75
2.151e+75
-1.22704e+75
-2.26136e+75
7.4299e+73
-1.1913e+75
-1.45997e+75
-1.75273e+75
1.26567e+74
-2.56879e+75
-3.05602e+75
1.63552e+75
1.04378e+75
-2.37272e+75
1.75372e+75
-3.00731e+75
1.03505e+75
-4.74204e+72
-3.24529e+75
1.73067e+75
-2.96311e+75
-1.58429e+75
-2.15816e+75
-2.54381e+75
9.51396e+74
-2.95687e+75
-1.41368e+75
-1.26504e+75
-1.13162e+75
4.81168e+72
-1.4954e+75
2.67964e+75
-1.52366e+75
1.03757e+75
-2.45007e+75
-2.66264e+75
1.36162e+75
-1.131e+75
-3.02985e+75
2.32948e+75
-2.32305e+75
-1.71247e+75
-2.16727e+75
2.03885e+75
-2.74605e+75
-1.0987e+75
1.87298e+74
9.94237e+73
-7.31398e+74
-2.34819e+75
2.25472e+75
-1.14425e+75
-1.10847e+75
-1.07845e+75
2.36735e+75
-1.30115e+75
-1.18995e+75
2.41168e+75
-1.22089e+75
3.30459e+74
2.77692e+75
-1.41882e+75
-1.70296e+75
2.27524e+75
1.03835e+75
-1.0714e+75
1.19396e+75
2.39729e+75
-1.03678e+75
2.39832e+75
2.69843e+75
-1.23533e+75
-1.45748e+75
-1.80412e+75
-1.51275e+75
3.31e+75
-1.59524e+75
-1.45888e+75
3.03506e+75
4.06368e+74
-1.30593e+75
-1.49573e+75
2.42833e+75
3.03396e+75
1.1771e+75
-1.51109e+75
1.22667e+75
3.13755e+75
-1.56162e+75
2.76146e+75
2.75615e+75
-1.42892e+75
-1.32874e+75
-1.38202e+75
-1.72735e+75
3.0813e+75
-1.86649e+75
-1.30228e+75
3.1204e+75
3.55118e+74
-2.19688e+75
-1.24552e+75
3.04339e+75
3.01791e+75
1.4411e+75
-1.71052e+75
1.62714e+75
3.05429e+75
-1.28695e+75
2.80582e+75
2.78565e+75
6.56961e+74
-1.39691e+75
-2.04952e+75
-1.43816e+75
6.34044e+74
-1.87762e+75
2.67097e+75
-2.27401e+75
5.99848e+74
-9.80887e+74
2.61991e+75
1.02838e+75
-1.4264e+75
-2.04433e+75
2.4525e+75
3.48407e+75
1.21421e+75
-1.91847e+75
1.42164e+75
6.1701e+74
3.33567e+75
-1.11311e+75
2.47501e+75
1.06814e+75
2.51512e+75
-1.21665e+75
-1.45833e+75
2.564e+75
1.31249e+75
3.08351e+75
1.29594e+75
-1.61186e+75
-2.78974e+75
3.28175e+75
1.13416e+75
-1.60757e+75
-1.27366e+75
-3.91291e+74
2.73282e+75
-3.34225e+74
-1.33354e+75
-1.85317e+75
1.41276e+75
1.28097e+75
5.27809e+74
1.45094e+75
-2.9398e+75
1.47401e+75
1.21112e+75
1.35618e+75
2.66107e+75
1.35475e+75
1.62718e+75
2.56571e+75
1.2505e+75
-3.62289e+74
2.83047e+75
-1.16048e+75
2.99205e+75
-1.04884e+75
-1.18965e+75
2.95369e+75
-1.3874e+75
3.1283e+75
-1.18708e+75
-1.80855e+75
2.76231e+75
-1.33875e+75
2.58629e+75
-2.01364e+75
3.37639e+75
2.75633e+75
-1.65217e+75
2.57311e+75
1.95393e+75
2.43685e+75
-3.10295e+75
2.82929e+75
-4.19435e+74
1.45903e+75
1.28842e+75
-3.95219e+74
2.84414e+75
3.21273e+77
-6.66293e+77
-5.18408e+77
8.71e+77
1.31435e+78
1.64941e+77
-3.7126e+77
-1.14329e+78
-2.52454e+77
-5.74679e+75
-2.88211e+77
5.35613e+77
-6.4409e+77
-6.51525e+76
-4.44322e+77
1.13809e+78
-6.61518e+77
1.55638e+77
8.26057e+77