/*--------------------------------*- C++ -*----------------------------------*\
| =========                 |                                                 |
| \\      /  F ield         | OpenFOAM: The Open Source CFD Toolbox           |
|  \\    /   O peration     | Version:  2506                                  |
|   \\  /    A nd           | Website:  www.openfoam.com                      |
|    \\/     M anipulation  |                                                 |
\*---------------------------------------------------------------------------*/
FoamFile
{
    version     2.0;
    format      ascii;
    arch        "LSB;label=32;scalar=64";
    class       surfaceScalarField;
    location    "500";
    object      phi;
}
// * * * * * * * * * * * * * * * * * * * * * * * * * * * * * * * * * * * * * //

dimensions      [0 3 -1 0 0 0 0];

oriented        oriented;

internalField   nonuniform List<scalar> 
138336
(
1.49588e-06
-1.93268e-06
-3.35986e-07
7.72789e-07
-3.95501e-07
1.64416e-06
-2.02715e-06
7.7849e-07
-1.85102e-06
1.41751e-06
-3.11267e-07
7.44779e-07
7.30925e-07
1.47323e-06
-1.83685e-06
-3.67307e-07
2.269e-06
1.11912e-06
-1.89223e-06
1.1253e-06
7.4819e-07
2.18149e-06
-3.31444e-07
1.45577e-06
1.73961e-06
-4.8644e-07
-2.0736e-06
8.20432e-07
-5.70715e-07
-1.95996e-06
1.65737e-06
8.73307e-07
-1.91846e-06
-4.81712e-07
1.62668e-06
7.73495e-07
7.91666e-07
-5.11169e-07
-1.90742e-06
1.62693e-06
2.57792e-06
1.14828e-06
-1.98659e-06
1.17575e-06
8.31453e-07
2.41911e-06
-4.7917e-07
1.67641e-06
1.35702e-06
-1.76176e-06
-3.07981e-07
7.12715e-07
-3.86552e-07
-1.75677e-06
1.43134e-06
7.11979e-07
-1.65883e-06
-3.1643e-07
1.29813e-06
6.77125e-07
6.83479e-07
-1.62149e-06
-3.5642e-07
1.29443e-06
2.09136e-06
9.87344e-07
-1.72169e-06
9.85655e-07
7.19157e-07
1.98707e-06
-3.16251e-07
1.3139e-06
1.36738e-06
6.83597e-07
-1.67206e-06
-3.78912e-07
-4.32196e-07
7.02273e-07
-1.70886e-06
1.43878e-06
-1.58529e-06
6.67871e-07
-3.81177e-07
1.29859e-06
6.52914e-07
-1.55028e-06
-3.93046e-07
1.29041e-06
2.05648e-06
9.26757e-07
-1.61586e-06
9.26173e-07
6.98115e-07
1.9532e-06
-3.7353e-07
1.29409e-06
1.15028e-06
2.45265e-06
-1.95877e-06
-1.80036e-06
2.16835e-06
1.04952e-06
2.18846e-06
1.03572e-06
-1.75095e-06
-1.54562e-06
2.30272e-06
1.02121e-06
-1.7783e-06
-3.83237e-07
-7.30882e-07
2.26439e-06
-7.27827e-07
-4.23068e-07
-1.85344e-06
1.03756e-06
1.17499e-06
7.91227e-07
7.53063e-07
1.03849e-06
-2.29352e-06
1.06676e-06
7.45054e-07
3.72721e-07
1.05471e-06
7.40917e-07
1.56406e-06
1.87533e-06
1.83795e-06
1.51347e-06
7.34577e-07
1.05789e-06
-7.14637e-07
2.0878e-06
-3.2365e-07
2.0694e-06
-3.50077e-07
-4.03187e-07
2.12667e-06
-9.52066e-07
1.97809e-06
-3.58154e-07
-1.72313e-06
1.37298e-06
-3.64489e-07
1.38383e-06
-1.67876e-06
2.09967e-06
1.38076e-06
-9.56114e-07
1.31271e-06
1.72596e-06
1.4392e-06
-2.15503e-06
1.46502e-06
-7.20338e-07
3.79415e-07
4.23219e-07
-7.17716e-07
1.43146e-06
1.39429e-06
-3.42621e-07
-6.4166e-07
-4.10005e-07
-3.71471e-07
1.45487e-06
-6.43322e-07
-4.40073e-07
-5.88595e-07
1.48328e-06
-4.5211e-07
-4.42578e-07
-4.26425e-07
1.43626e-06
-3.83233e-07
-6.26599e-07
9.81758e-07
1.04615e-06
-6.33619e-07
1.04994e-06
-4.3965e-07
9.88415e-07
-3.68694e-07
1.44976e-06
1.50605e-06
-3.69016e-07
-6.78565e-07
-4.58473e-07
-3.41976e-07
-7.13187e-07
-4.75154e-07
1.53032e-06
-7.20652e-07
-3.83526e-07
-5.03661e-07
1.60784e-06
-4.51172e-07
-3.52084e-07
-7.10211e-07
1.51347e-06
1.04813e-06
1.1591e-06
-7.01174e-07
1.18134e-06
-4.75186e-07
1.06386e-06
-3.55933e-07
1.52455e-06
1.66357e-06
-5.90409e-07
-5.89668e-07
-4.83492e-07
-5.01171e-07
-6.99481e-07
-5.48056e-07
1.74871e-06
-5.88158e-07
-7.79181e-07
-5.56783e-07
1.92412e-06
-5.20208e-07
-6.69819e-07
-5.40881e-07
1.73091e-06
1.16289e-06
1.14622e-06
-6.4554e-07
1.18781e-06
-5.26088e-07
1.18978e-06
-5.63768e-07
1.78943e-06
1.48415e-06
-4.4129e-07
-3.94384e-07
-6.48475e-07
-3.64865e-07
-4.39177e-07
-6.92954e-07
1.497e-06
-6.76994e-07
-4.77663e-07
-4.26931e-07
1.58159e-06
-4.48347e-07
-3.73956e-07
-6.82933e-07
1.50524e-06
1.04153e-06
1.11358e-06
-6.70957e-07
1.13088e-06
-4.5421e-07
1.05678e-06
-3.91553e-07
1.51067e-06
1.09723e-06
1.01659e-06
-6.58946e-07
-6.10544e-07
1.0368e-06
1.05702e-06
1.00502e-06
1.07231e-06
-6.41081e-07
-1.49033e-06
1.04917e-06
1.12499e-06
-6.83828e-07
-3.83905e-07
4.51711e-07
1.02942e-06
4.55309e-07
-3.70111e-07
-6.68505e-07
1.09022e-06
1.11909e-06
-4.7152e-07
-4.66373e-07
1.16346e-06
-1.07162e-06
1.19685e-06
-5.08747e-07
4.35408e-07
1.09306e-06
-4.91665e-07
1.50538e-06
6.43126e-07
6.83078e-07
1.54825e-06
-4.69718e-07
1.15971e-06
4.64652e-07
1.05876e-06
-4.66385e-07
1.02641e-06
-3.95388e-07
-3.7074e-07
1.05655e-06
-1.13046e-06
1.10117e-06
-4.48373e-07
-6.33652e-07
1.5571e-06
-4.58798e-07
1.48298e-06
-6.58033e-07
1.08467e-06
1.56141e-06
-1.1769e-06
1.60825e-06
7.03177e-07
1.51683e-06
-1.09729e-06
1.59465e-06
4.97801e-07
4.18067e-07
4.05575e-07
4.80485e-07
1.58924e-06
-7.86912e-07
4.16943e-07
-5.63093e-09
3.756e-07
-9.90489e-09
-8.01757e-07
4.22462e-07
3.892e-07
3.81677e-07
-7.99695e-07
4.20599e-07
-2.58093e-09
4.14811e-07
-7.90377e-07
-5.66186e-09
3.81229e-07
-3.70051e-07
-7.94903e-07
3.78043e-07
-8.01767e-07
4.21811e-07
-3.74698e-07
-5.39415e-09
-7.94788e-07
-8.16798e-07
-1.2086e-08
4.26922e-07
4.01961e-07
-7.09634e-09
4.25352e-07
4.13646e-07
-8.31902e-07
4.01964e-07
2.25329e-09
4.14493e-07
-8.18711e-07
4.20665e-07
-6.00541e-09
4.05301e-07
-8.1996e-07
-3.9484e-07
-8.25805e-07
4.03847e-07
-8.23622e-07
4.21686e-07
-3.98613e-07
-6.52722e-09
-8.2027e-07
-8.08781e-07
3.86474e-07
4.19173e-07
3.13447e-09
7.41746e-09
3.94742e-07
4.09423e-07
-8.11582e-07
3.90409e-07
4.09177e-07
1.04653e-08
-8.10051e-07
4.1133e-07
3.89647e-07
5.86905e-09
-8.06845e-07
-3.94358e-07
-8.02448e-07
3.88025e-07
-8.01434e-07
4.14494e-07
-3.97478e-07
6.35968e-09
-8.08503e-07
-7.94579e-07
4.13567e-07
-4.93773e-09
3.8595e-07
-4.77989e-09
4.15768e-07
3.9615e-07
-8.07138e-07
3.88201e-07
4.11656e-07
1.66438e-09
-8.01521e-07
4.11551e-07
-2.92655e-09
3.88489e-07
-7.97113e-07
-3.82622e-07
-7.9874e-07
3.86782e-07
-8.02968e-07
4.15566e-07
-3.85041e-07
-2.14721e-09
-7.99808e-07
-8.12111e-07
-3.81083e-07
3.91437e-07
3.83404e-07
-3.81797e-07
-8.01302e-07
-3.77094e-07
-7.96875e-07
3.83592e-07
8.05121e-07
-3.88046e-07
-8.11633e-07
3.94559e-07
-6.9751e-09
-4.19246e-07
-3.8589e-07
-4.18359e-07
-8.53533e-09
3.9441e-07
-8.03988e-07
-8.15179e-07
4.22011e-07
4.19138e-07
-8.1319e-07
3.94227e-07
-8.0862e-07
4.16647e-07
2.91938e-09
-8.07648e-07
4.22931e-07
-8.07402e-07
-3.93666e-07
-3.94792e-07
-8.10365e-07
4.19618e-07
-8.1093e-07
-4.16094e-07
-3.84415e-07
-7.92174e-10
-3.7967e-07
-3.63869e-09
-4.98767e-09
-3.90878e-07
8.00164e-07
-3.90397e-07
1.88858e-09
3.85799e-07
-8.00706e-07
-1.18744e-09
-7.97858e-07
3.8728e-07
-3.87822e-07
-8.05589e-07
8.0347e-07
-8.0422e-07
-3.95496e-07
-8.08572e-07
3.97864e-07
-8.11742e-07
-4.16618e-07
-9.46838e-10
-9.70401e-10
-4.14013e-07
-8.1048e-07
-8.06285e-07
4.14502e-07
3.91784e-07
4.13995e-07
-8.09699e-07
3.95704e-07
3.83883e-07
-8.20716e-07
4.36833e-07
5.90646e-09
-8.59148e-07
4.23806e-07
4.29436e-07
-7.92547e-07
-4.20173e-07
4.06435e-07
-3.78552e-07
-8.21394e-07
4.07128e-07
-8.16063e-07
-8.23222e-07
4.20787e-07
4.02435e-07
4.19795e-07
4.13858e-07
-8.33653e-07
4.02076e-07
4.17053e-07
-8.1913e-07
-1.13172e-08
4.41554e-07
4.34207e-07
-8.64444e-07
-8.15984e-07
-4.21676e-07
4.14438e-07
-3.96189e-07
-8.59721e-07
4.26727e-07
-8.53833e-07
-8.04068e-07
3.92441e-07
4.11627e-07
4.0969e-07
4.0846e-07
-8.1815e-07
4.30612e-07
4.39527e-07
-8.70138e-07
-1.75805e-08
4.34571e-07
4.46294e-07
-8.63285e-07
-8.07008e-07
-4.25442e-07
4.28382e-07
-3.97318e-07
-9.03283e-07
4.6026e-07
-8.69989e-07
-8.29875e-07
-1.46065e-08
4.28305e-07
4.16176e-07
4.36082e-07
-2.54675e-08
4.0792e-07
-8.18535e-07
4.08098e-07
-1.97796e-08
4.10036e-07
-7.98355e-07
-2.33849e-08
3.90418e-07
3.7631e-07
-7.43343e-07
-8.44071e-07
-3.82308e-07
3.96504e-07
-3.90577e-07
-1.74116e-08
-8.02829e-07
3.97135e-07
-7.85307e-07
-4.33471e-07
-8.03222e-07
4.26994e-07
4.07878e-07
-8.09e-07
-4.19595e-07
-8.58544e-07
-4.2486e-07
4.24256e-07
8.66427e-07
-8.70711e-07
-4.23266e-07
4.2755e-07
4.03974e-07
7.61049e-09
-8.45055e-07
-4.21189e-09
4.36832e-07
4.37206e-07
-4.25924e-07
-3.82436e-07
-4.06815e-09
-4.25089e-07
8.06234e-07
-3.8918e-07
-4.19545e-07
-3.89455e-07
-8.30983e-07
-3.96508e-07
-4.08324e-07
-8.16053e-07
-4.18143e-07
7.94753e-09
-8.54409e-07
4.26867e-07
-8.51228e-07
4.11761e-07
4.29019e-07
-8.77752e-07
4.22144e-07
-8.71433e-07
4.29509e-07
4.32654e-07
-8.50057e-07
4.2535e-07
-8.44498e-07
4.3289e-07
-8.60803e-07
-8.51423e-07
4.20225e-07
-8.57087e-07
-4.36391e-07
-8.6645e-07
8.66357e-07
-8.47078e-07
1.10268e-08
-4.34068e-07
-4.29551e-07
1.4145e-08
-8.51797e-07
6.55193e-07
-4.16287e-07
-5.81527e-07
-6.46184e-07
7.12853e-07
-5.18779e-07
4.35824e-07
7.16353e-07
-4.97251e-07
-6.54926e-07
-4.49716e-07
6.78414e-07
-6.11931e-07
2.23654e-07
6.28455e-08
4.89298e-08
-4.71459e-07
2.19272e-07
-6.06142e-07
7.04026e-07
8.29867e-07
-7.57579e-07
-6.61957e-07
-9.89617e-07
-7.93424e-07
1.00386e-06
6.95598e-07
-9.41904e-07
-7.46295e-07
9.92601e-07
-6.14495e-07
-7.83956e-07
8.5757e-07
2.04263e-07
6.18362e-08
-7.55183e-09
-7.77802e-07
2.24916e-07
-7.77574e-07
9.12962e-07
8.23113e-07
5.49179e-07
-6.11433e-07
-7.60859e-07
-9.38319e-07
6.91664e-07
-7.42125e-07
9.8878e-07
6.46845e-07
-7.57072e-07
-8.76179e-07
9.86406e-07
-5.84576e-07
5.0211e-07
-7.56396e-07
8.38863e-07
2.003e-07
4.55735e-08
5.7724e-07
1.56564e-08
-7.53676e-07
2.39802e-07
-7.78805e-07
9.02304e-07
6.99453e-07
-4.61405e-07
-6.32433e-07
-6.82306e-07
-5.00316e-07
7.5569e-07
4.27436e-07
-5.06585e-07
-6.75597e-07
7.54746e-07
-4.51721e-07
-6.33163e-07
7.10928e-07
2.38498e-07
6.94021e-08
6.2066e-08
-5.05874e-07
2.53129e-07
-6.35448e-07
7.42631e-07
5.28859e-08
1.93582e-07
4.71733e-07
1.99633e-07
4.49862e-08
2.21656e-07
6.13697e-08
-7.3571e-07
2.17396e-07
6.99399e-08
-6.707e-07
5.16457e-07
2.07128e-07
5.05059e-07
-6.7805e-07
4.8665e-08
4.19495e-08
-6.05947e-07
-6.031e-07
3.6541e-08
-1.9363e-07
3.13477e-09
-7.51408e-07
7.46744e-07
4.41128e-08
-5.91224e-07
7.9575e-07
-5.46672e-07
-5.84924e-07
8.22237e-07
-6.22166e-07
4.36831e-08
5.20796e-07
2.02769e-07
-6.7858e-07
2.27421e-07
-6.27456e-07
-6.80233e-07
2.49857e-07
-5.83139e-08
2.47884e-07
-6.96155e-07
4.52249e-07
7.44127e-07
-6.75581e-07
7.28335e-07
4.57772e-07
2.28041e-07
7.96061e-07
-5.52453e-08
8.05239e-07
-5.1911e-07
8.05509e-07
-2.17303e-07
9.12102e-07
5.91506e-07
7.81795e-07
7.64302e-07
6.08175e-07
8.53367e-07
1.64977e-06
-1.9844e-06
-9.64067e-07
1.2987e-06
-1.90483e-06
1.61334e-06
-9.51232e-07
1.24273e-06
-8.44383e-07
1.42668e-06
-1.67675e-06
1.09446e-06
1.12881e-06
1.42624e-06
-1.71649e-06
-8.38556e-07
2.87471e-06
-2.72818e-07
-9.52125e-07
-2.79886e-07
1.24976e-06
2.58944e-06
-1.73345e-06
1.46517e-06
1.59963e-06
-1.86158e-06
-9.22166e-07
1.18412e-06
-1.83044e-06
-9.49948e-07
1.19478e-06
1.5856e-06
-8.09901e-07
-1.64694e-06
1.08686e-06
1.36997e-06
1.0612e-06
-1.56172e-06
-8.2364e-07
1.32416e-06
2.80961e-06
-2.64732e-07
-9.45245e-07
-2.6589e-07
1.24506e-06
2.43904e-06
-1.64257e-06
1.36325e-06
1.22484e-06
-7.33483e-07
-1.46664e-06
9.7528e-07
-1.48405e-06
-7.20085e-07
9.81711e-07
1.22243e-06
-7.10088e-07
-1.4614e-06
9.6615e-07
1.20534e-06
9.61058e-07
-7.03669e-07
-1.44082e-06
1.18343e-06
2.22007e-06
-2.56252e-07
-7.38973e-07
-2.56794e-07
9.92808e-07
2.17287e-06
-1.46807e-06
1.20599e-06
1.24237e-06
9.92585e-07
-1.49132e-06
-7.43638e-07
-1.45888e-06
9.81095e-07
-7.53179e-07
1.23096e-06
-7.1438e-07
9.46138e-07
-1.41303e-06
1.18128e-06
9.573e-07
-1.44216e-06
-7.22255e-07
1.20711e-06
2.21618e-06
-2.29414e-07
-7.44394e-07
-2.31459e-07
9.88756e-07
2.16066e-06
-1.43278e-06
1.21482e-06
-2.61512e-07
2.80609e-06
-9.31242e-07
-8.76007e-07
2.57725e-06
-2.74571e-07
2.50174e-06
-2.45904e-07
-8.29598e-07
-1.35899e-06
2.39424e-06
-2.2999e-07
-8.05264e-07
-1.71088e-06
-1.09763e-06
2.547e-06
-1.12172e-06
-1.6226e-06
-8.34024e-07
-2.42574e-07
-2.71653e-07
1.21616e-06
1.07291e-06
-2.40383e-07
-2.52857e-06
-2.69158e-07
1.15079e-06
1.73405e-06
-2.7455e-07
1.11775e-06
1.40289e-06
8.72457e-07
8.33233e-07
1.43674e-06
1.16978e-06
-2.58597e-07
-1.00764e-06
2.26334e-06
-1.53027e-06
2.26057e-06
-1.51389e-06
-1.50052e-06
2.25162e-06
2.41293e-07
2.13209e-06
-1.42724e-06
-7.55791e-07
1.23814e-06
-1.48999e-06
1.2622e-06
-7.50443e-07
2.22988e-06
1.25531e-06
2.49416e-07
1.179e-06
7.37067e-07
1.27417e-06
-2.25044e-06
1.26119e-06
-1.01419e-06
1.53052e-06
1.46511e-06
-9.78508e-07
1.22367e-06
1.1254e-06
-2.65709e-07
-7.03787e-07
-1.55907e-07
-7.09533e-07
1.13047e-06
-2.66731e-07
-1.54209e-07
-1.50647e-07
1.14178e-06
-2.70208e-07
-7.20928e-07
-2.65343e-07
1.13707e-06
-7.18046e-07
-1.53683e-07
8.61885e-07
4.1814e-07
-1.54622e-07
4.18231e-07
-2.65879e-07
8.66307e-07
-7.1351e-07
1.13389e-06
1.1346e-06
-7.12417e-07
-2.68347e-07
-1.53835e-07
-7.13438e-07
-2.71157e-07
-1.52917e-07
1.13751e-06
-1.51129e-07
-7.26575e-07
-2.73915e-07
1.15162e-06
-2.71392e-07
-7.24486e-07
-1.52164e-07
1.14804e-06
8.66135e-07
4.21877e-07
-1.53413e-07
4.22795e-07
-2.70098e-07
8.69866e-07
-7.19381e-07
1.14153e-06
1.16685e-06
-1.49149e-07
-2.73354e-07
-7.44345e-07
-7.4301e-07
-1.52803e-07
-2.74829e-07
1.17064e-06
-1.56932e-07
-2.74747e-07
-7.70348e-07
1.20203e-06
-2.73896e-07
-1.51393e-07
-7.66388e-07
1.19168e-06
8.95091e-07
4.22795e-07
-1.51038e-07
4.25781e-07
-2.73701e-07
9.10579e-07
-7.6168e-07
1.17943e-06
1.15423e-06
-2.63566e-07
-7.35693e-07
-1.54973e-07
-7.41728e-07
-2.6953e-07
-1.51914e-07
1.16317e-06
-1.53489e-07
-2.6802e-07
-7.66682e-07
1.18819e-06
-2.6445e-07
-7.7313e-07
-1.53422e-07
1.191e-06
8.92915e-07
4.15644e-07
-1.54327e-07
4.16208e-07
-2.65021e-07
9.09716e-07
-7.58522e-07
1.17243e-06
4.19479e-07
8.64948e-07
-1.53953e-07
-1.50128e-07
8.74178e-07
4.17732e-07
8.73705e-07
4.16226e-07
-1.52859e-07
-1.14359e-06
8.75328e-07
4.2042e-07
-1.5216e-07
-7.17612e-07
2.67075e-07
8.70016e-07
2.66152e-07
-7.2299e-07
-1.53523e-07
4.16867e-07
4.20422e-07
-2.6789e-07
-2.69779e-07
4.20621e-07
-8.76572e-07
4.2438e-07
-2.74383e-07
7.26314e-07
4.19768e-07
-2.71904e-07
1.13942e-06
1.51013e-07
1.50265e-07
1.14854e-06
-2.71214e-07
4.22234e-07
2.67437e-07
8.84324e-07
-7.34028e-07
8.84937e-07
-7.32277e-07
-7.35858e-07
8.86747e-07
-4.18111e-07
9.09634e-07
-7.59543e-07
-1.50135e-07
1.16066e-06
-7.43092e-07
1.15167e-06
-1.50791e-07
8.93344e-07
1.15494e-06
-4.19631e-07
1.17787e-06
1.51181e-07
1.15619e-06
-8.85823e-07
1.1574e-06
2.69616e-07
7.34289e-07
7.43328e-07
2.707e-07
1.16521e-06
-8.19728e-07
2.758e-07
-1.38875e-06
1.93707e-06
-7.62908e-07
2.43353e-07
-1.41752e-06
2.25955e-07
-7.89768e-07
-1.46333e-06
-1.32868e-06
-7.29051e-07
2.20882e-07
-2.18362e-06
1.11433e-06
2.49562e-07
1.13624e-06
-1.38279e-06
-2.10658e-06
-7.44389e-07
-6.96865e-07
1.76387e-06
2.15307e-07
-1.28231e-06
1.6434e-06
2.03716e-07
-1.1933e-06
-6.5382e-07
2.09116e-07
1.76912e-06
-1.27941e-06
-6.98833e-07
-1.16715e-06
1.62859e-06
1.81558e-07
-6.43e-07
-1.90249e-06
9.97691e-07
2.07937e-07
9.94652e-07
-1.25374e-06
-1.86002e-06
1.69055e-06
-6.56249e-07
-7.57305e-07
1.824e-07
-1.49869e-06
1.99104e-06
1.86393e-07
-1.43996e-06
-7.37471e-07
8.66265e-08
-1.29789e-06
-7.48701e-07
-1.32521e-06
1.14471e-07
-6.96684e-07
-2.19279e-06
1.25183e-06
1.83654e-07
1.24665e-06
-1.4484e-06
-2.05998e-06
-7.26697e-07
-6.51607e-07
-1.1911e-06
1.70646e-07
1.5876e-06
-1.12404e-06
1.57862e-07
-6.21427e-07
1.33044e-07
-1.18876e-06
-6.53144e-07
-1.08117e-06
1.24022e-07
-5.93131e-07
-1.76234e-06
9.62978e-07
1.47752e-07
9.74489e-07
-1.14922e-06
-1.73405e-06
-6.26519e-07
1.078e-06
-2.07631e-06
2.35405e-07
2.11732e-07
-2.19603e-06
1.19453e-06
-1.96037e-06
1.03363e-06
1.9769e-07
6.80804e-07
-1.8513e-06
9.83932e-07
1.86559e-07
1.82889e-06
1.23441e-06
-1.9853e-06
1.29623e-06
1.71348e-06
2.01733e-07
1.04934e-06
1.07809e-06
-1.39053e-06
-1.20204e-06
9.79341e-07
2.0417e-06
1.1023e-06
-1.37488e-06
-1.92414e-06
1.19426e-06
-1.46615e-06
-7.03634e-07
-2.03578e-07
-2.15122e-07
-7.29486e-07
-1.39824e-06
1.09709e-06
1.34083e-06
-2.10507e-06
-1.90842e-06
1.65512e-06
-1.79523e-06
-1.07685e-06
-1.89021e-06
1.80318e-07
-6.92925e-07
-6.78758e-07
1.72859e-07
-1.94264e-06
-7.28409e-07
-1.09098e-06
-6.84766e-07
-1.74785e-07
-6.41102e-07
1.98597e-06
-6.97275e-07
1.29467e-06
-1.83942e-06
-1.73894e-06
1.24364e-06
-6.70089e-07
-2.89542e-07
-1.09889e-06
6.52184e-07
7.36244e-07
-1.07357e-06
-3.15587e-07
6.6748e-07
7.21676e-07
7.59654e-07
-3.05593e-07
-1.12456e-06
6.70502e-07
5.80507e-07
-2.21774e-07
-1.04089e-06
6.82153e-07
3.27907e-07
-1.32698e-06
7.09528e-07
-1.41976e-06
6.74095e-07
3.57502e-07
-1.10397e-06
-3.02602e-07
-2.84747e-07
-9.89904e-07
6.18713e-07
6.55939e-07
-8.97391e-07
-2.71289e-07
5.65237e-07
6.03443e-07
6.89003e-07
-1.0083e-06
-3.22994e-07
6.4229e-07
5.37769e-07
-9.28922e-07
-2.4258e-07
6.33732e-07
2.6715e-07
-1.1853e-06
6.334e-07
-1.24203e-06
6.11791e-07
2.78005e-07
-9.25533e-07
-2.75024e-07
-3.12402e-07
7.92419e-07
-1.14156e-06
6.61539e-07
-1.08758e-06
7.69555e-07
-3.77357e-07
6.9538e-07
7.88287e-07
-3.72252e-07
-1.0888e-06
6.72761e-07
5.83582e-07
6.83434e-07
-2.34578e-07
-1.03244e-06
3.21631e-07
-1.38551e-06
7.51475e-07
-1.47822e-06
7.12268e-07
3.35505e-07
-1.13743e-06
-3.54424e-07
-1.80298e-07
5.06224e-07
-9.42575e-07
6.16649e-07
-9.28274e-07
5.17762e-07
-2.04081e-07
6.14593e-07
6.42561e-07
5.23258e-07
-2.04721e-07
-9.61097e-07
4.7289e-07
-1.49149e-07
-9.1013e-07
5.86389e-07
3.13319e-07
-1.10588e-06
6.12258e-07
-1.14431e-06
5.29355e-07
3.09927e-07
-9.42912e-07
-1.91823e-07
-1.27942e-06
2.85531e-07
6.78305e-07
7.33457e-07
3.20809e-07
-1.35986e-06
3.29983e-07
-1.21239e-06
6.60631e-07
2.50502e-07
2.98661e-07
-1.17849e-06
6.29326e-07
-1.01241e-06
-5.77045e-07
3.10038e-07
-5.81559e-07
-9.93215e-07
6.66673e-07
-1.24479e-06
-1.36261e-06
6.58241e-07
5.52694e-07
-1.18296e-06
-2.80875e-07
-1.3894e-06
6.61978e-07
1.10298e-06
-1.49089e-06
7.08719e-07
-2.88149e-07
-7.64427e-07
-6.60988e-07
-3.55092e-07
6.93641e-07
-1.29695e-06
-5.77957e-07
3.61341e-07
-1.14324e-06
3.19988e-07
-1.02615e-06
-9.6214e-07
3.01413e-07
1.22277e-06
3.32196e-07
-1.03171e-06
6.90123e-07
-2.26644e-07
-1.04144e-06
-2.34681e-07
6.67466e-07
3.28662e-07
-3.37125e-07
1.25793e-06
-2.42297e-07
-6.50003e-07
-2.31538e-07
-2.96058e-07
-3.23788e-07
-6.03753e-07
1.0181e-06
9.82835e-07
-5.74909e-07
-2.42077e-07
1.53646e-06
-7.54943e-07
-3.3468e-07
-4.46834e-07
-4.40861e-07
1.56449e-06
-7.66342e-07
-3.57284e-07
-3.43167e-07
1.54082e-06
-7.52094e-07
-4.45559e-07
-7.55256e-07
1.55428e-06
-3.54534e-07
-4.4449e-07
7.87718e-07
1.0976e-06
-3.48863e-07
1.10399e-06
-7.57132e-07
7.88173e-07
-4.45827e-07
1.549e-06
1.60303e-06
-4.42799e-07
-7.91562e-07
-3.68668e-07
-4.51109e-07
1.64333e-06
-8.23426e-07
-3.68797e-07
-3.55044e-07
-4.52826e-07
1.59307e-06
-7.852e-07
-8.02081e-07
-4.56927e-07
1.6219e-06
-3.62895e-07
8.11679e-07
1.16606e-06
-3.74706e-07
1.16126e-06
-8.0069e-07
8.06134e-07
-4.42159e-07
1.61235e-06
1.54336e-06
-3.40099e-07
-7.57293e-07
-4.45968e-07
-4.49602e-07
-3.44096e-07
1.56028e-06
-7.66585e-07
-3.35444e-07
1.54332e-06
-7.59838e-07
-4.48038e-07
-7.59944e-07
-3.45999e-07
1.55408e-06
-4.4814e-07
7.86877e-07
1.0976e-06
-3.41121e-07
1.09962e-06
-7.62342e-07
7.85603e-07
-4.47943e-07
1.54978e-06
1.58202e-06
-7.58385e-07
-3.76533e-07
-4.47098e-07
-4.52356e-07
-7.82151e-07
1.61217e-06
-3.77661e-07
-3.67808e-07
-7.61575e-07
1.57806e-06
-4.4868e-07
-7.69903e-07
1.60851e-06
-3.86319e-07
-4.52284e-07
8.28533e-07
1.14346e-06
-3.89975e-07
1.143e-06
-7.66826e-07
8.23762e-07
-4.50206e-07
1.59896e-06
1.13107e-06
8.03456e-07
-3.70037e-07
-3.467e-07
7.89625e-07
1.09789e-06
8.06531e-07
1.1186e-06
-3.7085e-07
-1.5932e-06
8.22992e-07
1.15226e-06
-3.82053e-07
-4.42564e-07
7.74016e-07
7.99617e-07
7.59731e-07
-4.45381e-07
-3.73805e-07
1.12088e-06
1.132e-06
-7.71342e-07
-7.83312e-07
1.14938e-06
-7.99075e-07
1.12072e-06
-7.74473e-07
4.4694e-07
1.10144e-06
-7.58759e-07
1.57881e-06
3.52806e-07
3.53338e-07
1.56526e-06
-7.65516e-07
1.11953e-06
7.5423e-07
7.89747e-07
-4.46082e-07
8.05307e-07
-4.45095e-07
-4.47821e-07
8.17933e-07
-1.1112e-06
7.98847e-07
-4.49227e-07
-3.54844e-07
1.55644e-06
-4.47362e-07
1.57134e-06
-3.56697e-07
8.01938e-07
1.55109e-06
-1.11289e-06
1.56574e-06
3.61515e-07
1.60579e-06
-7.95944e-07
1.57257e-06
7.61386e-07
4.48585e-07
4.50431e-07
7.72166e-07
1.58411e-06
-3.18933e-07
-7.24225e-07
-1.50382e-07
1.19354e-06
-1.28686e-07
-3.34673e-07
-6.14332e-07
1.07769e-06
1.06101e-06
-2.68746e-07
-5.72185e-07
-2.20081e-07
-6.22604e-07
-3.54807e-07
-1.67529e-07
1.14494e-06
-9.44019e-07
-5.27734e-07
1.15282e-06
-4.48995e-07
-6.23709e-07
-9.09575e-07
-2.40762e-07
-2.97558e-07
-3.43476e-07
-5.81726e-08
-5.80334e-07
9.81983e-07
-3.23641e-08
-5.64947e-07
-3.56465e-07
9.53776e-07
9.51495e-07
-8.05614e-08
-5.37653e-07
-3.3328e-07
-5.63174e-07
-5.61254e-08
-3.64317e-07
9.83617e-07
-9.12684e-07
-4.06396e-07
9.75605e-07
-3.92705e-07
-5.52344e-07
-9.0467e-07
-6.49004e-08
-3.4588e-07
-2.67141e-07
9.41227e-07
-5.10627e-07
-1.63459e-07
-1.02012e-07
9.11364e-07
-5.12661e-07
-2.96691e-07
8.71698e-07
-5.08612e-07
-6.03061e-08
-3.0278e-07
-4.99613e-07
9.37553e-07
-1.21638e-07
-3.16301e-07
-7.97516e-07
-3.87763e-07
9.18139e-07
-3.83911e-07
-5.15617e-07
-7.96219e-07
-9.11565e-08
-3.08432e-07
-3.80513e-07
-5.69338e-07
-1.18143e-07
1.06799e-06
-7.29133e-08
-5.6414e-07
-3.66235e-07
1.00329e-06
1.0152e-06
-5.28564e-07
-1.28709e-07
-3.57924e-07
-5.63096e-07
-1.04586e-07
-3.88119e-07
1.0558e-06
-9.46708e-07
-4.72835e-07
1.03903e-06
-4.59705e-07
-5.59917e-07
-9.22919e-07
-1.13012e-07
-3.67428e-07
-4.45722e-07
-9.31609e-07
1.04266e-06
1.01201e-06
-8.23844e-07
-4.56915e-07
-9.39863e-07
-5.05912e-07
1.09097e-06
3.54188e-07
-9.30111e-07
-4.2393e-07
9.99853e-07
-1.36769e-07
5.79593e-07
-8.88546e-07
5.77687e-07
-8.08828e-08
1.01466e-06
-4.43059e-07
-4.18812e-07
-5.70969e-07
-5.70777e-07
-4.15459e-07
8.55322e-07
-3.99166e-07
-5.36717e-07
1.396e-07
-4.16395e-07
-5.4705e-07
-3.21773e-07
-9.85585e-07
-9.57451e-07
-2.97687e-07
-5.48297e-07
-3.99817e-07
5.44774e-07
-8.00535e-07
-2.01154e-07
-9.23657e-07
-1.51593e-07
-8.69473e-08
-9.01122e-07
4.39956e-07
-8.36725e-07
-1.31794e-07
1.0297e-06
-3.17303e-07
-1.67624e-07
-3.37015e-07
9.83879e-07
-8.61226e-07
-2.75703e-07
4.3287e-07
-3.32042e-07
-9.71855e-07
-3.44726e-07
8.23159e-07
-3.10961e-07
5.33337e-07
1.09099e-07
1.04981e-07
5.32441e-07
-3.34433e-07
-4.57375e-07
2.1329e-07
6.61027e-07
-4.20775e-07
-4.54451e-07
2.14106e-07
6.6112e-07
6.71775e-07
-4.71466e-07
2.20289e-07
2.09854e-07
-4.70064e-07
6.82673e-07
-2.48098e-07
-8.83321e-07
6.74045e-07
-8.84293e-07
2.15419e-07
-2.51657e-07
-4.64174e-07
-4.50502e-07
-4.30232e-07
2.197e-07
6.61034e-07
-4.41257e-07
-4.54645e-07
2.27995e-07
6.67906e-07
6.77331e-07
-4.39208e-07
-4.70486e-07
2.32362e-07
2.20415e-07
-4.35238e-07
-4.77426e-07
6.92249e-07
-2.32441e-07
-8.97409e-07
6.79348e-07
-9.01895e-07
2.28197e-07
-2.39481e-07
-4.37514e-07
-4.64045e-07
-4.90983e-07
6.8016e-07
2.29996e-07
-4.27364e-07
6.83641e-07
-4.92083e-07
2.35806e-07
6.85847e-07
-5.12574e-07
2.35903e-07
2.30406e-07
6.91457e-07
-5.1244e-07
-2.60047e-07
-9.16915e-07
6.8598e-07
-9.22469e-07
2.35058e-07
-2.72016e-07
-5.08638e-07
-4.87291e-07
2.10493e-07
7.0372e-07
-4.30094e-07
2.11028e-07
-4.94558e-07
7.13624e-07
7.04428e-07
2.22489e-07
-5.12423e-07
2.11821e-07
-5.12275e-07
7.25806e-07
-2.82428e-07
-9.22462e-07
7.17599e-07
-9.25436e-07
2.12914e-07
-2.88955e-07
-5.09963e-07
-8.88339e-07
-2.41792e-07
6.75679e-07
6.79332e-07
-2.5056e-07
-9.00238e-07
-2.62142e-07
-9.00664e-07
6.92742e-07
4.67145e-07
-2.60251e-07
-9.0843e-07
7.01536e-07
-4.27974e-07
-2.12769e-07
-2.47597e-07
-2.12816e-07
-4.28173e-07
6.82549e-07
-9.03131e-07
-8.91121e-07
2.19097e-07
2.19285e-07
-9.14774e-07
2.43253e-07
-9.16055e-07
2.33593e-07
4.28331e-07
-9.05462e-07
2.2657e-07
-4.63669e-07
-6.75049e-07
-6.81898e-07
-4.69649e-07
2.22931e-07
-9.08294e-07
-2.18669e-07
-2.58638e-07
-2.6816e-07
-4.29159e-07
-2.68243e-07
9.17079e-07
-2.77944e-07
6.90471e-07
-4.89521e-07
-4.80821e-07
6.97065e-07
-2.69508e-07
-4.8394e-07
9.21926e-07
-5.08413e-07
-6.95761e-07
-4.87256e-07
2.56129e-07
-4.88543e-07
-2.27801e-07
4.29841e-07
4.24617e-07
-2.22323e-07
-4.93466e-07
-1.58404e-06
-4.26311e-07
1.14829e-06
8.62059e-07
8.49759e-07
-1.56179e-06
-4.20629e-07
1.13266e-06
-4.26343e-07
-1.59451e-06
1.15639e-06
8.64459e-07
1.16091e-06
-1.59718e-06
-4.28989e-07
8.65263e-07
-4.30553e-07
-7.28155e-07
-4.25334e-07
-7.22315e-07
1.14152e-06
-4.30106e-07
8.62858e-07
-1.57876e-06
-1.55074e-06
8.43454e-07
-4.1764e-07
1.12493e-06
8.39298e-07
-4.15766e-07
1.11979e-06
-4.17024e-07
8.4602e-07
1.13129e-06
1.12868e-06
8.41984e-07
-4.16578e-07
-4.23583e-07
-7.1041e-07
-4.16747e-07
-7.08488e-07
1.1242e-06
-4.24265e-07
8.42531e-07
-1.60693e-06
-4.26956e-07
1.16147e-06
8.72421e-07
8.6393e-07
-4.21426e-07
1.15057e-06
-4.2267e-07
1.17721e-06
8.88796e-07
1.16873e-06
-4.28159e-07
8.8133e-07
-4.44005e-07
-7.37356e-07
-4.25572e-07
-7.39497e-07
1.15942e-06
-4.50183e-07
8.81559e-07
-1.60539e-06
1.17362e-06
-4.29017e-07
8.60791e-07
8.47941e-07
1.14937e-06
-4.19249e-07
-4.24865e-07
1.17432e-06
8.62717e-07
1.17832e-06
-4.25298e-07
8.55485e-07
-4.27784e-07
-7.51864e-07
-4.25743e-07
-7.48101e-07
1.16826e-06
-4.2599e-07
8.52446e-07
-7.16226e-07
-4.25749e-07
-4.19813e-07
-4.25471e-07
-4.33702e-07
-7.35333e-07
-4.30103e-07
-7.41054e-07
-4.26025e-07
1.56975e-06
-4.25184e-07
-7.25873e-07
-4.18691e-07
8.49589e-07
-1.14051e-06
-4.25304e-07
-1.15465e-06
8.49708e-07
-4.20472e-07
-7.3504e-07
-7.14131e-07
1.13184e-06
1.13834e-06
-7.21544e-07
4.27925e-07
-7.20247e-07
1.13834e-06
-8.54093e-07
-7.30792e-07
1.15118e-06
-1.56026e-06
4.20824e-07
4.20617e-07
-1.57329e-06
1.14002e-06
-7.24746e-07
-1.16734e-06
-4.34406e-07
8.66413e-07
-4.28161e-07
8.60724e-07
8.4874e-07
-4.2524e-07
7.41286e-07
-4.34603e-07
8.67634e-07
-4.27158e-07
-1.60245e-06
8.62267e-07
-1.59036e-06
-4.26637e-07
-4.34527e-07
-1.59215e-06
7.43033e-07
4.18957e-07
4.30897e-07
-1.16321e-06
-8.54516e-07
-8.54704e-07
-1.14837e-06
3.92669e-07
-5.56949e-07
-4.77381e-07
6.63098e-07
3.73142e-07
-5.62307e-07
-4.73933e-07
-4.96993e-07
4.23752e-07
-5.70081e-07
-5.60007e-07
4.24718e-07
-4.91311e-07
-1.73722e-07
1.05166e-06
-4.85273e-07
1.05406e-06
-5.64687e-07
-1.41962e-07
4.15109e-07
3.62093e-07
6.75017e-07
-5.64246e-07
-4.72864e-07
6.84016e-07
3.56142e-07
-5.67219e-07
-4.72939e-07
-4.83818e-07
6.71328e-07
3.80972e-07
-5.68482e-07
-5.67468e-07
6.70304e-07
3.76312e-07
-4.79149e-07
-2.04383e-07
1.04269e-06
-4.76218e-07
1.04713e-06
-5.67497e-07
-1.91492e-07
6.66719e-07
3.71819e-07
4.22607e-07
-5.05248e-07
-5.95924e-07
6.8958e-07
-4.95699e-07
3.93334e-07
-5.87215e-07
-5.09699e-07
4.03978e-07
-6.07467e-07
-6.01791e-07
-5.08489e-07
4.00069e-07
-1.79523e-07
1.10939e-06
-5.07257e-07
1.10797e-06
-5.97911e-07
-1.93578e-07
4.04692e-07
4.28541e-07
-5.69124e-07
-5.07893e-07
6.65741e-07
-5.71169e-07
3.9898e-07
-4.93552e-07
-5.13492e-07
-5.88826e-07
4.09363e-07
-5.79108e-07
4.10944e-07
-5.14769e-07
-1.50118e-07
1.09113e-06
-5.12469e-07
1.0874e-06
-5.71775e-07
-1.58937e-07
4.14969e-07
1.04448e-06
-1.91578e-07
-4.79763e-07
-5.02874e-07
-1.55158e-07
1.08178e-06
-1.44712e-07
1.07176e-06
-5.02331e-07
-3.94589e-07
-1.75045e-07
1.06036e-06
-4.90731e-07
6.49458e-07
5.64544e-07
-1.69519e-07
5.61692e-07
6.53782e-07
-4.83827e-07
1.07076e-06
1.05016e-06
-5.66722e-07
-5.63533e-07
1.05879e-06
1.7687e-07
1.07033e-06
-5.75874e-07
-6.59114e-07
1.08416e-06
-5.80206e-07
3.89719e-07
4.90924e-07
4.92905e-07
3.97841e-07
-5.66032e-07
1.06762e-06
5.82854e-07
-1.60014e-07
-1.38444e-07
6.58595e-07
-1.694e-07
-1.0974e-06
-1.75255e-07
-5.08499e-07
4.22848e-07
4.2382e-07
-5.1064e-07
-1.63911e-07
4.189e-07
-1.09196e-06
4.08217e-07
4.95926e-07
3.93467e-07
1.77808e-07
3.96825e-07
5.81904e-07
-6.7026e-07
-6.73968e-07
5.75164e-07
3.97122e-07
-1.25314e-06
4.21582e-07
5.60273e-07
4.32283e-07
-1.36297e-06
6.07695e-07
5.56402e-07
-1.26703e-06
4.6805e-07
2.66305e-07
-1.27217e-06
4.49511e-07
5.56356e-07
-9.93962e-07
-8.24458e-07
5.65277e-07
-8.36703e-07
-1.00468e-06
4.46527e-07
-1.28498e-06
-1.45104e-06
4.67467e-07
6.0622e-07
5.29366e-07
-1.54868e-06
6.47065e-07
6.4614e-07
5.79441e-07
-1.46016e-06
2.57709e-07
6.16437e-07
-1.54242e-06
6.68272e-07
-1.11169e-06
-9.62149e-07
6.22794e-07
-9.36747e-07
-1.22673e-06
5.22293e-07
-1.51734e-06
-1.28083e-06
5.49409e-07
5.27337e-07
5.8238e-07
5.6749e-07
-1.35459e-06
5.46047e-07
5.81966e-07
-1.27716e-06
1.67671e-07
5.34802e-07
5.60359e-07
-1.26283e-06
-1.10764e-06
-7.22592e-07
5.4941e-07
-7.17087e-07
-1.09797e-06
5.43047e-07
-1.26901e-06
-1.27551e-06
2.26601e-07
4.95857e-07
5.53056e-07
5.70869e-07
2.14573e-07
-1.38257e-06
5.97131e-07
5.41779e-07
1.79167e-07
5.52395e-07
-1.27334e-06
1.75301e-07
5.39102e-07
-1.27919e-06
5.64783e-07
-1.09564e-06
-7.31835e-07
5.51958e-07
-7.42874e-07
2.18106e-07
-1.07936e-06
5.22822e-07
-1.28045e-06
-9.14559e-07
-1.06252e-06
6.14106e-07
5.69966e-07
-1.05912e-06
-7.77879e-07
-1.03782e-06
-7.8424e-07
5.49884e-07
1.38892e-06
-1.1681e-06
-8.16935e-07
5.96119e-07
4.47628e-07
-2.80503e-07
-1.08168e-06
-2.67388e-07
5.03867e-07
6.04549e-07
-8.01337e-07
-9.1884e-07
2.77518e-07
-8.29182e-07
1.14412e-06
-8.06981e-07
-5.12123e-07
-7.78533e-07
-1.40416e-06
-5.96367e-07
-6.04346e-07
-1.35057e-06
-8.10789e-07
-2.12315e-07
-1.05281e-06
4.87244e-07
-1.03157e-06
4.73928e-07
5.18585e-07
-1.12095e-06
7.23998e-07
-1.075e-06
5.30172e-07
5.48133e-07
-1.25947e-06
4.99018e-07
-1.28477e-06
5.48081e-07
-1.08355e-06
-1.28193e-06
7.22528e-07
-1.26273e-06
-5.63657e-07
-1.38647e-06
1.12887e-06
-1.36836e-06
-2.04202e-07
-5.28321e-07
-5.65222e-07
-2.10241e-07
-1.33912e-06
-5.28914e-07
-7.52094e-07
5.86863e-07
-4.56372e-07
-6.13983e-07
5.14586e-07
-4.28213e-07
-6.58557e-07
-6.27371e-07
-5.35017e-07
-1.17402e-06
1.19019e-07
1.32025e-07
-7.19183e-07
-1.13206e-06
-4.85451e-07
-4.85781e-07
5.27897e-07
-4.84694e-07
5.18107e-07
-5.29163e-07
-3.98949e-07
4.14356e-07
5.09794e-07
-5.32249e-07
-3.91901e-07
-4.53065e-07
5.20208e-07
-5.07217e-07
-9.50211e-07
2.47796e-08
1.79662e-08
-4.5007e-07
-9.42485e-07
5.142e-07
-5.10163e-07
-4.6478e-07
4.75632e-07
-5.21479e-07
5.0369e-07
4.23155e-07
-5.30938e-07
-3.95906e-07
4.37854e-07
-5.34986e-07
-4.11479e-07
-4.74767e-07
4.63893e-07
-5.01788e-07
-9.52202e-07