/*--------------------------------*- C++ -*----------------------------------*\
| =========                 |                                                 |
| \\      /  F ield         | OpenFOAM: The Open Source CFD Toolbox           |
|  \\    /   O peration     | Version:  2506                                  |
|   \\  /    A nd           | Website:  www.openfoam.com                      |
|    \\/     M anipulation  |                                                 |
\*---------------------------------------------------------------------------*/
FoamFile
{
    version     2.0;
    format      ascii;
    arch        "LSB;label=32;scalar=64";
    class       volVectorField;
    location    "1400";
    object      U;
}
// * * * * * * * * * * * * * * * * * * * * * * * * * * * * * * * * * * * * * //

dimensions      [0 1 -1 0 0 0 0];

internalField   nonuniform List<vector> 
60096
(
(-1194.79 417.502 1487.24)
(-130.164 -136.135 -1078.19)
(-1431.48 235.033 992.138)
(-1164.63 837.774 363.834)
(-1050.01 90.6796 481.626)
(-1050.62 -258.548 60.8595)
(-1122.66 136.588 592.113)
(-1492.91 205.683 431.92)
(-182.077 -761.253 -4807.1)
(-1533.47 1319.89 -11693.8)
(188.061 -148.858 -3951.6)
(-385.261 456.743 -4034.96)
(-266.07 -627.223 -4855.37)
(-596.915 19.5667 -7870.27)
(85.1548 -179.634 -2922.07)
(114.533 -330.268 -4641.09)
(-1398.69 -647.73 -1030.06)
(-832.92 12.9661 -2119)
(-2226.47 -980.599 -882.549)
(-917.403 -109.693 -834.354)
(-1294.07 -231.387 -805.164)
(-1197.46 -405.421 -1845.08)
(-1232.5 -330.805 -811.34)
(-1184.99 -515.088 -1342.52)
(-1096.69 884.836 -447.973)
(-694.79 -51.9574 -1220.81)
(-583.039 509.071 -94.6012)
(-1103.72 566.879 84.1177)
(-1064.74 470.741 -438.644)
(-574.253 401.118 -379.948)
(-1166.9 498.399 -134.189)
(-718.61 460.594 -261.518)
(-611.995 75.9764 -1355.6)
(-1450.07 152.175 418.334)
(-796.847 535.837 -235.013)
(-192.198 135.069 -1212.34)
(-306.816 802.124 -21.6495)
(-1360.18 533.531 317.404)
(32.0067 440.224 -1260.48)
(-854.546 423.027 -137.713)
(-462.361 -297.234 -3589)
(-311.481 386.639 -2047.83)
(-411.846 -188.926 -3080.2)
(-1201.53 -248.235 -1304.02)
(-591.236 29.2198 -2698.63)
(-179.612 115.118 -2284.22)
(-906.653 34.5259 -2557.79)
(-664.397 204.783 -2066.64)
(-1264.88 157.815 79.303)
(-737.454 401.367 -74.8317)
(-235.743 322.635 -447.44)
(-655.005 632.543 111.415)
(-1171.33 232.822 -22.9818)
(-1022.46 425.793 33.9434)
(-1070.23 485.745 -30.4912)
(-675.845 865.96 -77.6488)
(-1231.05 -133.041 -1403.43)
(-328.688 369.514 -785.217)
(-178.453 330.127 -1030.28)
(-608.34 10.0251 -2332.83)
(-925.769 141.065 -1248.94)
(-600.436 193.51 -1045.23)
(-648.857 406.783 -1306.52)
(-198.682 214.661 -1028.87)
(561.845 -295.506 -14773.4)
(682.02 -446.705 -3292.31)
(888.02 1273.41 -1682.37)
(815.854 -224.695 -12615.2)
(624.473 -211.226 -14122.6)
(659.095 -582.214 -8149.63)
(835.893 -253.751 -14010.1)
(688.51 -255.771 -10006.8)
(294.94 -316.341 -330.163)
(543.413 263.354 -566.756)
(618.315 94.3707 -408.064)
(305.599 -40.6634 -619.337)
(447.66 -327.795 -543.901)
(580.193 200.436 -450.899)
(608.971 156.415 -501.384)
(559.406 230.354 -532.966)
(400.184 556.467 1066.03)
(874.749 -447.779 307.636)
(-12.4728 -155.775 34.5958)
(-84.5118 211.458 -2238.6)
(361.176 -137.483 75.973)
(795.596 -354.585 622.705)
(204.612 -637.727 -465.675)
(889.916 -462.133 419.374)
(859.55 -437.177 -10177.2)
(61.1348 -1351.32 -6982.4)
(-45.0389 301.92 -8143.96)
(434.738 348.886 -7980.36)
(716.95 -669.67 -9664.1)
(322.07 -777.873 -10263.6)
(867.048 -187.544 -8868.92)
(108.942 -438.397 -9471.39)
(692.348 -146.983 -2152.38)
(411.564 1008.32 -3830.72)
(722.908 -327.663 -11788.2)
(430.637 -395.002 -3959.31)
(800.99 -581.56 -2948.92)
(560.598 -43.8601 -9799.19)
(829.3 -742.96 -4132.31)
(787.859 -620.411 -10118.1)
(-43.5998 85.0086 980.273)
(-126.189 -136.975 -1350.4)
(540.953 107.689 -217.893)
(645.519 -772.619 2041.44)
(718.268 -290.429 856.462)
(226.837 95.5638 33.8805)
(676.015 -218.633 -111.904)
(673.604 -89.016 -543.79)
(657.085 364.676 -3855.76)
(686.754 -289.221 -11332.1)
(1435.98 -1052.12 -3909.88)
(570.559 199.379 -6183.9)
(518.545 400.467 -5183.95)
(310.411 -286.723 -10652.5)
(25.4984 523.431 -6761.99)
(311.761 -293.237 -10552.8)
(-941.238 15.3666 -1403.49)
(-372.001 -282.559 -3465.61)
(167.651 -1422.45 -1732.24)
(336.117 92.4798 -393.875)
(860.558 293.149 1794.09)
(235.72 -492.931 -2205.17)
(1202.24 -325.944 104.929)
(-298.988 -282.885 -1487.1)
(-284.286 220.224 680.263)
(-349.088 244.955 621.77)
(-283.939 203.642 748.781)
(-306.254 262.906 712.477)
(-311.775 237.574 679.77)
(-328.849 215.223 708.188)
(-294.064 241.514 694.029)
(-324.926 211.481 760.196)
(-406.155 273.787 559.839)
(-337.911 179.529 465.831)
(-346.236 160.541 571.281)
(-390.915 294.121 517.875)
(-380.126 297.886 576.696)
(-393.791 224.395 567.769)
(-398.931 310.985 580.712)
(-408.95 199.011 590.423)
(-247.178 167.619 770.118)
(-266.385 80.6522 657.648)
(-206.577 114.377 842.689)
(-236.859 67.5498 748.159)
(-253.881 156.088 735.737)
(-284.953 134.509 717.653)
(-230.9 95.2662 751.016)
(-276.313 73.4182 762.49)
(-272.053 277.004 689.16)
(-361.208 286.884 601.367)
(-272.254 141.68 714.051)
(-267.263 231.626 622.453)
(-288.158 300.206 645.856)
(-295.8 240.994 691.775)
(-254.19 258.971 674.537)
(-331.1 168.907 709.869)
(-354.758 280.482 631.052)
(-291.187 229.478 750.569)
(-326.538 296.88 706.101)
(-366.855 326.297 638.208)
(-351.301 296.405 675.25)
(-321.834 235.088 715.418)
(-365.798 297.273 665.458)
(-320.608 251.894 742.154)
(-375.077 217.03 694.076)
(-354.309 265.102 630.376)
(-310.685 116.653 670.047)
(-300.613 204.84 778.104)
(-381.999 219.323 700.755)
(-390.345 208.392 683.754)
(-328.384 204.271 702.642)
(-338.058 215.907 713.348)
(-258.903 205.859 765.869)
(-262 274.675 713.471)
(-351.3 327.913 652.703)
(-252.077 148.461 726.438)
(-266.9 197.192 749.265)
(-294.905 209.502 706.028)
(-298.333 216.238 763.128)
(-325.381 227.454 710.392)
(-276.035 164.389 752.241)
(-275.767 99.7781 709.764)
(-379.729 179.269 635.2)
(-293.494 99.384 636.663)
(-289.577 170.889 757.538)
(-303.387 150.577 705.925)
(-292.715 186.689 646.687)
(-328.378 164.446 622.46)
(-167.763 302.262 182.679)
(-26.9108 291.346 432.247)
(-88.349 303.526 387.36)
(-45.85 175.496 414.296)
(-120.08 245.223 299.514)
(-97.2542 290.555 341.205)
(-30.6578 231.705 362.245)
(-63.8297 247.14 430.37)
(24.204 200.128 575.532)
(9.946 203.8 703.847)
(40.3823 169.676 734.845)
(9.76734 125.809 723.339)
(23.3502 194.949 632.162)
(40.2017 249.399 633.591)
(4.94638 142.84 678.596)
(-5.69647 190.239 714.004)
(-64.3775 169.262 524.695)
(-3.55783 145.479 735.837)
(-104.861 51.4531 706.459)
(-24.4848 72.3864 711.554)
(-26.4386 150.996 600.915)
(-60.63 75.4912 680.087)
(-55.3695 80.2516 610.827)
(-31.9804 87.7154 727.14)
(57.4119 64.8082 634.752)
(41.3691 103.199 783.706)
(55.4775 41.9561 765.225)
(35.367 47.0123 736.545)
(25.8498 70.3477 711.586)
(91.6148 84.4266 727.755)
(44.5032 -13.4763 726.898)
(93.8056 -4.18991 839.306)
(-1.78907 234.079 495.072)
(-83.5835 209.545 471.369)
(-23.3612 154.551 504.327)
(18.58 158.667 648.101)
(7.08665 216.863 546.647)
(-40.7529 160.142 480.523)
(30.9536 155.053 589.486)
(6.77267 153.431 571.647)
(-30.1713 297.94 556.15)
(70.2026 187.795 649.035)
(-8.413 164.511 643.474)
(-102.071 204.033 553.195)
(-18.3984 266.366 585.1)
(13.9115 202.354 661.55)
(-5.11444 257.055 581.015)
(7.57674 202.278 621.483)
(-39.8952 179.608 490.589)
(38.6666 84.3385 561.323)
(33.8562 73.4928 693.908)
(-7.12064 74.2865 674.051)
(-10.8009 148.921 584.356)
(61.9231 107.872 603.843)
(11.888 86.9766 668.524)
(59.9437 51.8916 690.683)
(-73.4122 166.683 552.483)
(-22.7432 74.6424 752.2)
(59.3241 100.79 772.056)
(-20.4299 138.044 725.512)
(-56.1541 136.746 654.296)
(-10.6015 101.561 636.354)
(5.86051 187.521 653.914)
(32.9669 122.854 734.861)
(-396.684 -6.9395 676.317)
(-399.783 151.15 511.965)
(-370.913 155.598 504.568)
(-381.281 35.8102 661.733)
(-381.552 26.1461 644.401)
(-392.278 83.3998 583.302)
(-429.793 64.0472 603.519)
(-370.833 145.901 473.99)
(-359.242 231.054 426.414)
(-283.878 145.588 437.882)
(-358.39 267.118 343.96)
(-409.435 316.312 461.562)
(-388.365 230.827 468.355)
(-389.606 236.887 411.751)
(-391.046 262.171 402.173)
(-360.269 304.411 344.961)
(-331.729 435.999 268.41)
(-355.028 427.892 259.69)
(-226.009 906.414 143.038)
(-320.596 573.471 275.069)
(-333.8 496.149 199.348)
(-361.29 573.751 226.828)
(-336.879 625.848 214.346)
(-304.515 777.409 153.98)
(-440.055 240.168 565.153)
(-370.787 346.723 517.128)
(-365.857 372.841 445.019)
(-329.897 279.31 622.208)
(-376.084 258.198 600.792)
(-416.474 347.808 489.586)
(-372.915 245.547 593.181)
(-375.018 387.067 447.9)
(-422.032 175.072 499.798)
(-367.799 197.143 393.559)
(-409.979 168.821 562.976)
(-372.203 269.397 505.706)
(-422.906 156.506 506.562)
(-395.114 128.273 470.036)
(-395.795 238.047 494)
(-429.531 189.075 473.894)
(-380.828 201.929 410.15)
(-435.573 349.167 433.15)
(-370.482 342.852 273.391)
(-389.253 282.014 312.225)
(-370.008 229.385 373.364)
(-383.742 284.607 404.209)
(-366.311 223.443 337.964)
(-375.757 311.521 325.507)
(-388.077 287.839 432.219)
(-405.525 156.398 572.095)
(-377.962 286.814 418.752)
(-367.313 375.233 428.356)
(-407.606 215.463 464.012)
(-378.232 220.121 447.844)
(-400.942 310.495 354.583)
(-383.855 293.093 422.458)
(-362.684 436.096 254.293)
(-378.01 527.15 292.991)
(-396.724 398.023 382.937)
(-352.473 409.851 231.043)
(-397.904 404.899 276.748)
(-430.428 411.188 284.232)
(-362.992 328.203 344.669)
(-407.584 362.126 353.548)
(487.971 -40.659 659.584)
(380.613 532.712 546.902)
(589.059 3.06838 402.413)
(910.704 -130.411 758.486)
(489.699 20.2701 596.005)
(518.691 -81.5782 431.819)
(563.163 -1.17062 654.431)
(548.34 11.9187 463.556)
(730.695 956.051 -158.911)
(898.071 -500.008 -17483.5)
(1288.01 2.90504 -1043.93)
(1050.3 165.056 611.371)
(-104.433 -1918.42 -422.148)
(1100.84 -535.682 -7177.49)
(432.128 1560.26 315.453)
(1197.72 -371.854 -5808.01)
(538.331 117.645 -9.59481)
(590.105 -84.1124 -385.821)
(427.465 197.697 -546.916)
(627.274 148.736 -173.167)
(524.638 -33.9167 -135.301)
(400.476 81.9673 -365.207)
(498.168 54.5677 -190.419)
(415.93 -13.5031 -410.547)
(972.51 41.1009 899.809)
(361.336 559.033 111.704)
(757.497 207.135 128.026)
(645.212 466.569 -45.6569)
(776.384 235.55 600.122)
(779.139 241.352 509.339)
(755.054 6.53231 571.291)
(399.243 82.3349 204.797)
(535.876 -8.03079 300.677)
(506.889 8.90912 320.112)
(987.708 223.258 734.635)
(217.118 -1070.21 371.729)
(724.572 -235.792 222.579)
(606.694 -36.5306 456.619)
(1102.92 313.645 286.921)
(786.409 -113.462 690.721)
(518.03 -126.431 375.907)
(1035.98 -935.012 333.023)
(437.443 25.8363 729.929)
(729.231 71.3798 243.109)
(696.245 369.185 353.42)
(746.791 -714.617 -225.99)
(590.119 351.207 484.66)
(680.205 -548.767 -253.434)
(437.982 199.65 229.068)
(800.276 16.4061 629.975)
(350.183 93.8557 900.382)
(617.72 32.948 131.074)
(715.549 158.342 400.544)
(716.286 13.3155 729.229)
(581.061 86.8851 -21.28)
(736.468 -50.5909 166.359)
(464.509 191.598 264.142)
(641.644 -69.2122 -77.6764)
(770.204 606.269 159.678)
(79.372 71.5156 196.719)
(188.897 246.929 -19.5984)
(690.749 111.289 117.911)
(461.414 -139.668 -564.165)
(658.152 236.672 -548.589)
(-86.7841 -761.816 -1096.9)
(-1155.68 -1847.68 -1356.78)
(-199.339 -1949.61 -583.953)
(-507.432 -725.232 -4228.49)
(-304.271 -914.848 -1985.51)
(-982.7 -1342.08 -1700.68)
(-248.033 -1390.65 -3676.84)
(-978.115 -1861.11 -3032.46)
(-2478.43 -2162.45 -1496.95)
(-2754.06 -1358.85 -707.925)
(-1498.95 -1051.75 -930.83)
(-1178.33 -112.284 -2564.75)
(-2135.35 -1480.28 -1511.26)
(-1930.62 -1432.27 -1421.15)
(-896.122 -481.432 -2557.68)
(-1860.62 -876.41 -1752.13)
(-1265.27 -330.582 969.984)
(-1614.12 -192.6 978.646)
(-1198.94 297.39 1558.98)
(-472.561 304.838 683.498)
(-1189.8 -376.903 650.943)
(-1691.12 -96.7292 1127.95)
(-730 -6.22801 161.951)
(-1281.08 219.825 1227.73)
(-313.113 255.34 -8830.77)
(-1099.55 -182.67 -5322.51)
(585.521 91.045 -3174.84)
(-1061.39 875.883 -12261.8)
(-538.323 603.391 -9832.88)
(-695.619 -122.361 -6968.45)
(-722.937 663.858 -10587.1)
(-105.522 59.3653 -6483.39)
(-1461.55 -1551.31 -2587.58)
(-1121.17 -1407.6 -1445.96)
(-967.749 -631.639 -6792.3)
(-1012.26 -292.112 -5067.81)
(-1147.6 -698.721 -4128.25)
(-1141.75 -971.949 -4509.4)
(-1082.39 -374.54 -4532)
(-1105.88 -635.271 -5382.32)
(-1385.31 -1588.59 -2710.04)
(-957.861 -137.991 -3576.97)
(-1052.51 -765.048 -869.303)
(-583.7 -888.278 65.7357)
(-1797.45 -1627.75 -3473.66)
(-1114.04 -448.029 -3222.37)
(-1569.86 -1593.86 -1628.65)
(-1480.02 -1422.05 -1570.4)
(-1333.91 85.4871 -1126.15)
(-518.246 -252.168 -7184.94)
(-907.23 -144.268 -5366.06)
(181.617 440.428 -2434.7)
(-627.874 118.632 -401.825)
(-300.271 -5.55195 -4669.13)
(6.5462 219.952 -1384.23)
(-248.338 40.0723 -5296.92)
(-1167.63 125.591 -402.318)
(-705.919 156.504 -1971.91)
(-905.285 53.5156 -2994.71)
(-1445.25 -195.359 333.962)
(-1371.68 -232.792 -582.762)
(-620.596 -54.1072 -1703.69)
(-1153.35 -32.3613 -952.223)
(-669.01 -81.783 -1552.57)
(-261.564 33.5805 777.76)
(-237.948 123.261 628.595)
(-253.654 148.732 689.752)
(-248.297 79.2438 750.216)
(-178.497 124.662 714.362)
(-209.977 112.32 631.799)
(-239.816 165.518 794.693)
(-276.158 145.649 690.022)
(-314.149 74.5245 562.884)
(-245.083 65.097 556.894)
(-294.859 -3.80132 636.361)
(-215.11 -25.3586 559.314)
(-264.834 80.1682 537.995)
(-289.851 79.6037 553.113)
(-249.174 16.8294 597.4)
(-301.682 5.4298 605.789)
(-282.986 88.9898 709.213)
(-329.589 16.1107 681.406)
(-298.751 5.23962 722.853)
(-250.43 11.572 704.667)
(-247.144 60.9964 675.541)
(-313.386 18.9085 660.837)
(-250.744 50.0742 712.898)
(-301.322 5.82796 689.071)
(-228.073 11.0307 725.409)
(-166.328 -68.5843 647.851)
(-203.702 -19.7808 691.382)
(-164.626 -58.9986 696.316)
(-183.439 0.312356 669.373)
(-189.96 -4.46019 673.811)
(-170.109 -13.2609 717.352)
(-184.301 -29.2457 673.651)
(-251.65 109.942 616.899)
(-218.125 137.438 664.509)
(-204.999 97.1981 688.688)
(-226.635 40.0122 671.891)
(-262.489 81.172 654.348)
(-240.276 119.386 640.369)
(-271.652 48.9882 670.109)
(-246.801 76.8809 663.177)
(-328.624 108.135 615.61)
(-226.069 9.79945 644.284)
(-297.308 30.8444 642.604)
(-300.585 100.236 661.162)
(-310.334 76.9956 627.733)
(-268.021 24.6222 621.782)
(-318.839 92.267 689.113)
(-269.558 63.4886 658.442)
(-224.063 137.853 692.535)
(-223.172 95.2562 720.581)
(-198.782 12.042 656.214)
(-212.882 49.1879 737.594)
(-249.849 78.4402 713.364)
(-248.759 71.8006 696.226)
(-222.014 66.2227 686.816)
(-238.355 58.0807 708.259)
(-298.049 88.6323 703.019)
(-239.716 13.2522 681.47)
(-216.436 -17.1828 619.441)
(-296.996 8.62945 628.272)
(-253.285 66.7395 676.463)
(-252.818 16.745 667.119)
(-260.59 37.376 652.775)
(-264.272 15.4589 652.82)
(-272.05 72.2547 694.989)
(-272.522 122.163 697.873)
(-309.609 102.689 707.998)
(-300.138 88.971 677.191)
(-282.164 79.5084 675.092)
(-300.985 102.896 710.741)
(-306.162 84.1369 659.704)
(-312.138 119.502 671.737)
(-237.42 123.529 749.02)
(-239.65 156.664 821.747)
(-252.118 158.645 749.295)
(-258.583 111.072 722.815)
(-240.926 135.27 718.363)
(-256.366 155.09 720.362)
(-252.477 113.837 719.534)
(-268.63 156.428 750.158)
(-311.608 168.474 655.16)
(-289.178 203.01 743.35)
(-265.93 195.13 661.271)
(-323.96 232.699 643.927)
(-305.565 186.968 668.028)
(-299.553 177.127 723.239)
(-319.749 211.852 642.802)
(-309.8 182.512 737.411)
(-318.25 89.6077 609.418)
(-334.192 172.625 591.62)
(-386.594 238.73 612.106)
(-364.93 135.275 542.074)
(-334.11 83.8103 595.687)
(-339.644 174.019 616.797)
(-364.367 128.038 528.453)
(-401.421 194.686 621.471)
(-285.603 130.481 708.283)
(-317.209 112.932 676.978)
(-303.283 73.294 666.549)
(-309.209 148.218 659.683)
(-310.733 135.145 661.63)
(-321.103 134.205 689.656)
(-314.92 147.398 683.655)
(-333.143 147.011 680.561)
(-269.589 132.546 739.498)
(-288.779 118.908 706.877)
(-279.211 187.914 769.289)
(-296.842 136.055 732.832)
(-280.874 128.568 722.242)
(-286.851 139.417 737.288)
(-291.477 155.81 734.794)
(-288.759 169.008 737.326)
(-356.891 135.452 647.934)
(-329.825 85.3972 602.09)
(-350.825 160.685 626.598)
(-378.802 214.579 592.703)
(-363.75 149.004 669.107)
(-348.811 152.828 657.459)
(-356.292 168.67 639.066)
(-354.475 172.479 670.38)
(-324.056 152.271 669.177)
(-363.423 200.09 679.399)
(-307.949 137.353 701.789)
(-288.541 189.314 750.619)
(-334.139 165.008 715.899)
(-349.244 167.978 687.462)
(-308.651 176.258 720.478)
(-317.647 192.567 732.699)
(-467.775 972.781 100.633)
(-151.031 179.516 282.614)
(-135.808 224.71 382.416)
(-333.005 514.995 274.063)
(-287.658 621.74 160.671)
(-253.815 384.982 328.99)
(-248.329 551.701 201.853)
(-162.189 252.884 338.08)
(-207.09 -66.6655 360.392)
(-184.087 43.1731 438.579)
(-350.309 77.0501 475.804)
(-164.067 -133.705 481.701)
(-176.909 -87.9728 397.649)
(-257.419 57.652 448.88)
(-175.314 -80.5703 411.373)
(-257.759 21.8765 478.553)
(-340.693 128.458 466.092)
(-416.868 56.3447 575.377)
(-425.929 38.1119 578.859)
(-350.985 40.0739 533.839)
(-322.746 95.1435 414.85)
(-403.208 58.7704 558.052)
(-327.627 41.1339 528.258)
(-391.917 11.1306 582.81)
(-213.833 236.494 313.554)
(-138.66 -82.1679 432.512)
(-190.029 4.11186 585.759)
(-66.6357 70.865 356.835)
(-129.497 151.395 314.878)
(-127.393 -69.609 508.877)
(-85.1099 120.714 341.096)
(-61.7415 -58.9899 492.025)
(-147.848 108.869 300.631)
(-196.684 152.328 471.024)
(-268.557 369.329 295.066)
(-132.78 -14.8119 318.133)
(-138.874 78.0887 337.849)
(-161.783 178.151 486.968)
(-172.832 23.3233 336.546)
(-165.383 138.127 461.158)
(-193.06 -55.7844 349.321)
(-178.224 -143.556 388.159)
(-343.468 58.169 432.174)
(-223.659 50.2455 439.453)
(-214.458 -49.3142 371.298)
(-212.034 -109.172 394.291)
(-289.143 9.99471 442.197)
(-287.515 -37.9777 458.137)
(-201.941 143.62 481.307)
(-206.94 304.782 292.692)
(-110.298 -45.7639 411.441)
(-206.812 35.1568 546.038)
(-199.056 71.8129 499.863)
(-95.1234 41.2466 475.507)
(-197.121 46.5271 485.884)
(-83.377 -13.78 491.835)
(-265.637 15.4858 516.321)
(-238.111 -32.7914 553.727)
(-181.106 -160.782 489.269)
(-332.887 35.2619 479.218)
(-244.828 -22.9757 472.915)
(-261.763 -64.8554 537.721)
(-281.102 -34.5464 441.885)
(-298.8 -97.1065 510.318)
(430.291 -80.3627 691.445)
(679.917 -82.935 832.456)
(471.112 122.113 590.431)
(397.568 -31.0464 889.763)
(445.743 -89.2963 732.166)
(452.948 16.8654 604.606)
(391.752 -38.3862 865.184)
(476.528 86.1095 640.977)
(802.601 301.641 708.309)
(706.427 -12.2536 864.288)
(823.652 -67.148 243.335)
(856.85 516.657 1201.55)
(889.703 280.769 981.66)
(793.673 6.80926 521.802)
(905.979 319.845 1036.15)
(715.336 154.496 499.142)
(565.764 98.305 170.342)
(603.846 108.645 -135.066)
(380.796 238.608 -465.318)
(652.419 135.138 531.233)
(697.463 100.733 266.984)
(512.694 95.1389 -66.8709)
(581.727 114.036 346.288)
(468.607 164.211 -105.872)
(247.173 76.7021 1194.62)
(820.719 463.925 1602.74)
(602.58 277.001 1227.17)
(135.451 271.666 1586.81)
(271.594 94.6878 1235.04)
(584.301 248.296 1244.81)
(344.841 124.062 1432.66)
(605.089 319.553 1423.42)
(741.19 9.44763 878.35)
(566.686 118.951 640)
(379.576 11.864 969.346)
(778.12 228.987 1236.46)
(701.164 127.862 980.486)
(426.256 82.1687 745.214)
(784.506 159.389 1144.1)
(482.319 152.831 879.288)
(740.735 59.868 646.612)
(805.454 336.991 1022.43)
(645.169 24.4135 192.694)
(479.739 80.8442 260.462)
(746.54 250.993 710.252)
(834.468 257.764 835.073)
(676.898 5.17022 435.16)
(838.33 92.7564 647.801)
(559.941 130.474 675.981)
(392.234 16.4139 1110.46)
(768.204 326.484 1371.66)
(527.733 258.364 1041.9)
(534.83 142.196 810.121)
(480.329 161.17 940.447)
(578.616 197.656 871.724)
(496.729 178.52 1075.92)
(495.537 160.772 338.43)
(598.947 205.221 596.096)
(817.412 427.802 1056.09)
(580.481 148.13 146.323)
(550.1 124.927 369.511)
(588.391 151.144 595.895)
(754.994 155.314 673.836)
(798.027 249.068 919.37)
(-341.178 833.148 130.096)
(-169.817 488.447 80.8422)
(-200.689 203.692 272.868)
(-201.699 158.796 259.714)
(-335.278 756.559 188.801)
(-253.858 521.758 161.141)
(-291.267 516.25 291.03)
(-288.69 372.982 325.587)
(-198.095 705.459 74.0086)
(-230.472 947 76.854)
(-317.394 523.878 262.809)
(-275.653 331.21 191.417)
(-197.327 777.268 183.772)
(-256.467 848.636 102.683)
(-301.656 537.191 237.147)
(-347.198 647.516 198.156)
(-342.519 194.01 407.307)
(-373.333 242.866 422.429)
(-436.735 -48.8931 567.117)
(-386.223 108.369 492.524)
(-343.759 140.026 481.812)
(-415.283 203.744 443.374)
(-381.188 68.8499 511.257)
(-435.8 143.784 549.57)
(-174.078 -40.7468 303.436)
(-288.822 213.924 336.285)
(-341.939 142.261 384.445)
(-259.334 74.3635 430.63)
(-248.432 63.2391 414.934)
(-291.407 146.175 320.266)
(-282.767 81.3585 388.6)
(-336.532 167.642 393.632)
(-126.11 588.899 186.205)
(-161.425 131.033 419.215)
(-133.576 45.7072 296.1)
(-187.347 150.746 241.82)
(-238.152 406.43 242.221)
(-167.681 287.5 320.105)
(-225.421 158.483 206.178)
(-187.569 161.563 288.947)
(-211.55 633.57 120.642)
(-254.984 224.434 254.686)
(-366.841 502.475 280.286)
(-288.129 320.429 284.443)
(-284.484 466.365 258.859)
(-268.857 357.417 259.567)
(-245.301 382.133 290.201)
(-263.572 295.041 337.646)
(-217.326 130.525 431.401)
(-204.138 17.4801 278.79)
(-264.025 150.294 240.187)
(-333.466 71.8788 388.512)
(-268.825 57.0024 429.482)
(-246.644 43.3989 301.463)
(-323.682 59.9058 370.405)
(-252.563 46.9231 304.93)
(-333.141 239.682 344.996)
(-394.845 178.906 441.154)
(-315.254 250.57 284.757)
(-392.925 353.403 305.587)
(-320.664 151.571 404.431)
(-339.637 152.647 391.285)
(-369.169 263.998 313.477)
(-403.499 201.641 345.923)
(-303.091 644.859 122.326)
(-174.02 418.911 288.364)
(-330.129 629.126 108.166)
(-166.344 507.828 296.925)
(-247.296 559.028 205.788)
(-217.962 459.513 184.627)
(-296.134 641.118 211.564)
(-305.582 557.475 252.869)
(-47.822 193.495 404.627)
(-119.018 -60.9755 612.827)
(-73.3052 230.572 469.529)
(-66.158 159.387 636.162)
(-26.4916 145.93 563.084)
(-69.7747 95.9063 616.844)
(-80.3549 152.472 653.176)
(-49.7791 122.372 633.101)
(-243.237 504.771 130.69)
(-133.144 361.979 291.418)
(-198.23 356.652 151.853)
(-141.504 417.178 391.628)
(-183.725 435.067 239.912)
(-172.423 385.76 257.872)
(-171.825 413.281 221.507)
(-180.33 318.832 277.979)
(-57.1224 416.205 482.838)
(-18.8076 239.382 622.95)
(-90.9313 412.002 545.594)
(-34.1098 256.781 666.046)
(-14.0168 314.022 581.205)
(-8.37322 271.445 666.542)
(-31.7164 294.887 569.614)
(-29.0358 327.601 613.136)
(-133.187 348.84 372.466)
(-261.5 525.074 223.442)
(-99.4633 434.975 373.318)
(-34.7118 270.152 563.006)
(-185.443 391.222 393.75)
(-230.009 431.087 365.416)
(-78.0274 326.294 447.593)
(-82.0873 388.213 433.397)
(-117.653 247.887 379.814)
(-59.1419 227.196 553.762)
(-130.346 300.904 436.157)
(-246.14 483.597 225.257)
(-188.167 269.416 473.215)
(-149.29 233.327 469.285)
(-212.996 428.333 303.594)
(-153.296 331.477 361.199)
(-239.001 510.118 241.316)
(-128.071 466.943 411.443)
(-35.4424 271.716 555.74)
(-121.516 408.266 475.525)
(-135.041 450.87 371.681)
(-124.369 409.913 513.014)
(-77.3311 391.361 401.295)
(-81.1826 346.606 498.527)
(-249.276 453.555 279.387)
(-106.568 380.209 511.982)
(-43.6908 227.904 646.335)
(-138.057 240.304 441.339)
(-182.661 382.37 355.229)
(-47.9677 340.029 545.231)
(-169.851 294.583 426.37)
(-71.9252 283.227 525.268)
(-167.4 -74.0665 630.01)
(9.02427 65.8745 686.774)
(-147.573 125.558 467.242)
(-103.473 51.5977 651.463)
(-49.0491 74.2551 621.582)
(-31.2979 32.2224 619.856)
(-91.9584 87.5072 536.704)
(-82.2843 85.1702 572.236)
(2.67411 167.196 654.344)
(-40.9856 262.734 638.404)
(-45.0403 264.592 483.865)
(23.1618 144.778 540.539)
(33.3851 149.917 587.548)
(-28.8767 245.373 566.867)
(-11.0277 134.238 538.542)
(0.165283 213.78 495.817)
(-158.986 338.099 402.092)
(-119.534 364.305 345.323)
(-225.612 515.115 198.243)
(-153.884 427.371 331.632)
(-182.021 372.427 369.731)
(-176.059 390.981 394.819)
(-223.515 416.277 280.237)
(-225.167 492.431 243.754)
(-63.2872 65.2064 599.207)
(46.947 180.118 462.765)
(-56.1037 251.556 489.968)
(64.6875 103.463 515.286)
(-41.5341 152.403 509.989)
(-47.8458 138.136 519.438)
(-29.4989 237.623 461.784)
(30.2468 247.903 425.892)
(17.5765 78.2573 591.798)
(-111.499 169.584 498.408)
(-76.1532 86.7304 582.065)
(-7.39517 88.5392 550.857)
(-35.6655 74.1239 581.175)
(-71.914 123.777 615.101)
(2.37405 29.7898 655.334)
(-82.3758 77.659 587.264)
(-16.4146 148.093 551.485)
(-17.0381 91.8861 573.071)
(-57.13 279.08 419.054)
(-97.1484 177.981 527.955)
(-15.9901 117.576 530.393)
(-29.1364 145.105 526.358)
(-76.4275 186.371 499.855)
(-43.9608 203.985 458.244)
(-144.001 227.227 476.446)
(-133.293 142.007 520.014)
(-43.5743 174.403 474.564)
(-123.32 353.022 368.925)
(-161.887 170.009 495.36)
(-65.8758 133.617 504.514)
(-105.741 238.427 421.225)
(-96.1872 181.33 493.854)
(-127.673 238.231 420.557)
(-87.6326 354.716 336.216)
(27.7136 181.04 451.614)
(-78.0999 276.67 376.979)
(-136.846 263.872 459.562)
(-101.773 236.826 437.723)
(-72.8871 202.184 463.019)
(-60.7006 220.2 457.331)
(-825.846 322.647 -1382.74)
(-1370.3 -8.34186 -5469.63)
(-1903.15 -318.639 -2826.84)
(-767.113 -115.471 -4096.44)
(-824.185 -217.448 -1713.55)
(-1812.62 -209.282 -1983.29)
(-1000.73 -94.5437 -3156.06)
(-2083.45 -138.916 -3806.51)
(-693.601 -192.971 -1972.82)
(712.426 -171.074 481.652)
(-922.734 25.2403 -776.84)
(178.787 -431.718 -787.81)
(104.631 481.878 2.05988)
(626.084 -69.0117 218.677)
(228.634 -58.6614 -107.365)
(757.816 -549.534 499.587)
(-1571.24 82.2473 -1687.27)
(-1480.46 460.551 -845.914)
(-1938.31 727.461 -235.733)
(-1390.51 169.611 -2565.34)
(-1589.47 239.299 -1681.01)
(-1893.22 402.376 -1174.49)
(-1608.82 194.144 -1635.86)
(-1959 616.171 -1129.71)
(-18.5833 -75.5918 -5348.23)
(-311.301 213.132 -7781.09)
(-880.861 -327.77 -3976.11)
(628.281 -294.3 -7228.82)
(-267.034 9.23884 -6203.41)
(-432.373 -266.048 -5291.64)
(25.2241 -29.8772 -6579.97)
(-561.126 -38.1334 -5445.47)
(-1360.04 239.508 -6006.88)
(-1451.31 -74.1244 -2724.28)
(-1127.35 -183.547 -4424.38)
(-141.057 454.895 -6704.02)
(-1291.56 319.101 -6082.34)
(-1750.11 49.9252 -3980.85)
(-435.273 269.989 -6473.85)
(-521.631 -112.876 -4931.56)
(-1463.12 -38.6902 -3034.56)
(-287.726 -314.971 -2054.46)
(-1176.79 381.07 -1926.86)
(-1661.04 -30.2807 -2220.92)
(-833.247 169.221 -2145.77)
(-218.095 -37.8999 -2017.32)
(-1161.01 433.443 -2262.88)
(-1206.6 110.485 -2643.23)
(-1398.42 -193.913 -2948.6)
(-409.769 -340.303 -4912.67)
(-266.305 408.482 -7197.29)
(-1106.48 -227.15 -3676.76)
(-977.141 -262.972 -3335.12)
(-701 -176.642 -5001.66)
(-982.225 -138.805 -3420.39)
(-415.592 -198.313 -5326.83)
(-1674.97 89.0608 -2317.19)
(-1544.48 -47.3689 -3189.42)
(-452.118 -259.421 -3613.73)
(-1192.12 411.065 -1723.76)
(-1700.11 -10.3996 -2503.28)
(-1039.79 -141.396 -3082.16)
(-1368.2 35.5827 -2861.22)
(-692.138 -197.159 -2941.47)
(49.5004 -651.962 -1052.96)
(139.294 -1213.85 -3185.33)
(-512.203 -1371.72 -1556.36)
(735.525 -306.76 -2180.67)
(-118.299 -1583.29 -1534.25)
(-44.9746 -1871.3 -3364.54)
(343.142 -1375.5 -2834.47)
(571.597 -1007.03 -3684.95)
(-179.637 195.189 -7400.2)
(-63.6283 764.134 -12338.5)
(420.286 203.821 -3616.4)
(1010.13 1009.15 -8245.57)
(-94.179 277.136 -8230.06)
(254.271 704.626 -9390.99)
(520.659 197.035 -8227.85)
(236.939 339.479 -9163.25)
(-1255.37 -401.315 127.238)
(-621.372 -540.713 817.869)
(-1016.24 419.198 1259.67)
(-1263.16 -314.42 -137.904)
(-1241.43 118.015 189.198)
(-954.272 -75.9179 431.057)
(-1069.64 35.3787 673.016)
(-776.255 -177.59 843.178)
(137.535 158.39 -874.975)
(1235.23 423.354 -3874.28)
(-27.6357 -805.036 -47.1001)
(1022.39 567.631 -1033.6)
(1278.82 2.30579 -1906.47)
(1084.33 275.121 -2396.9)
(1152.01 -140.057 -1702.47)
(998.085 110.449 -2585.96)
(-1094.4 -1821.87 -3946.34)
(-1374.88 -792.451 -1132.23)
(151.674 -128 -3720.08)
(1556.46 808.72 -4536.77)
(1046.01 -336.47 -4588.71)
(989.776 -777.237 -4150.63)
(696.126 341.344 -5273.58)
(571.73 -117.633 -4649.21)
(-25.5051 -519.139 -4534.12)
(722.895 589.388 -6545.38)
(415.571 64.8181 -2568.56)
(-925.096 -481.284 -1455.16)
(622.084 153.882 -5115.16)
(503.713 591.307 -5770.44)
(-516.978 -731.441 -2018.96)
(84.1576 310.117 -2536.03)
(-1118.01 -640.872 -332.47)
(54.8799 -1653.62 -151.167)
(1024.96 385.334 -4396.61)
(148.322 -385.215 -771.215)
(-663.741 -405.474 -976.822)
(890.326 -534.479 -2040.1)
(-633.302 -135.419 -999.566)
(916.548 -191.07 -3068.77)
(-313.802 -101.133 -1311.09)
(182.364 -496.449 -1956.05)
(774.022 473.633 -5306.47)
(277.626 -291.819 -3366.94)
(60.9319 -323.903 -1825.67)
(268.145 155.998 -1583.37)
(188.726 -178.386 -2993.53)
(262.842 419.085 -2880.22)
(692.701 116.481 -1694.58)
(83.3568 74.671 -4809.12)
(651.932 239.562 -639.155)
(281.57 64.6306 -323.975)
(481.92 265.106 -1734.18)
(727.597 -192.239 -1838.67)
(108.821 286.595 -286.938)
(427.777 -283.003 -1209.59)
(-1269 215.693 -5710.04)
(-1618.67 284.035 -14428.6)
(-257.464 -836.581 -6058.38)
(-873.29 382.856 -3805.43)
(-955.185 220.444 -5241.49)
(-933.358 -692.122 -5303.01)
(-596.107 -269.999 -5161.11)
(-788.494 -431.492 -5238.14)
(447.715 -132.113 -112.357)
(1606.39 -483.186 -933.578)
(-919.95 171.897 1349.13)
(-80.0942 324.111 579.902)
(1173.57 -59.0158 269.02)
(361.824 209.333 923.963)
(-246.744 112.632 1018.25)
(-520.386 24.7044 1331.67)
(-9.85464 232.246 273.542)
(-744.037 38.3118 -1865.67)
(-79.3725 378.21 -387.078)
(-643.868 22.6563 755.494)
(-8.85945 146.957 356.749)
(-226.412 -46.7943 -317.317)
(-213.537 161.517 263.827)
(-379.021 17.6755 -282.57)
(-156.639 203.883 -4651.75)
(455.247 -393.779 -792.01)
(226.308 125.491 -348.586)
(-267.802 124.587 -2715.57)
(-213.473 184.591 -3573.41)
(429.029 -516.907 -522.679)
(-216.637 132.713 -2879.93)
(304.724 37.4088 -182.395)
(-197.774 -222.696 -5502.89)
(-607.881 -458.705 -4289.29)
(270.603 -670.991 -2554.79)
(686.946 6.97732 -81.6273)
(-412.206 -339.019 -4981.77)
(-516.859 -475.111 -4805.93)
(166.347 -159.431 -2671.56)
(50.9678 -419.634 -3288.28)
(306.754 -76.652 -907.848)
(214.418 130.802 65.4196)
(-644.937 218.312 -1948.02)
(94.3823 139.301 -544.17)
(178.1 141.41 -412.772)
(314.136 180.493 -333.699)
(399.322 154.547 -878.787)
(119.458 236.595 -11.0121)
(149.636 166.389 46.8387)