/*--------------------------------*- C++ -*----------------------------------*\
| =========                 |                                                 |
| \\      /  F ield         | OpenFOAM: The Open Source CFD Toolbox           |
|  \\    /   O peration     | Version:  2506                                  |
|   \\  /    A nd           | Website:  www.openfoam.com                      |
|    \\/     M anipulation  |                                                 |
\*---------------------------------------------------------------------------*/
FoamFile
{
    version     2.0;
    format      ascii;
    arch        "LSB;label=32;scalar=64";
    class       volScalarField;
    location    "600";
    object      p;
}
// * * * * * * * * * * * * * * * * * * * * * * * * * * * * * * * * * * * * * //

dimensions      [0 2 -2 0 0 0 0];

internalField   nonuniform List<scalar> 
41920
(
0.639003
0.556481
0.599463
0.626671
0.62831
0.605642
0.620619
0.607218
0.412125
0.214336
0.422314
0.462233
0.38701
0.355053
0.43623
0.422124
0.591912
0.528784
0.572547
0.583789
0.576221
0.561116
0.579172
0.575112
0.626496
0.583453
0.601035
0.638111
0.617424
0.590749
0.623143
0.604331
0.526412
0.597741
0.615785
0.536051
0.551646
0.58401
0.567406
0.585779
0.494785
0.496753
0.499856
0.581052
0.535218
0.497909
0.51854
0.519234
0.593707
0.617746
0.566234
0.590735
0.597305
0.5941
0.588315
0.585621
0.586639
0.581222
0.535747
0.532047
0.567383
0.567986
0.535628
0.549212
0.156994
0.390105
0.158377
0.347515
0.313414
0.313681
0.308582
0.303969
0.511262
0.570823
0.51889
0.574385
0.549179
0.54806
0.552425
0.550581
0.180825
0.408149
0.178524
0.404887
0.319194
0.317793
0.323883
0.309584
0.523045
0.601381
0.558737
0.628458
0.600974
0.603654
0.601077
0.601399
0.468791
0.306072
0.489266
0.567107
0.472066
0.41374
0.497843
0.48644
0.466125
0.566889
0.465474
0.302267
0.466828
0.512015
0.408691
0.47113
0.299394
0.485845
0.56081
0.502965
0.383478
0.481233
0.519148
0.565706
0.290261
0.495511
0.560148
0.467868
0.410998
0.519993
0.473425
0.516932
0.09781
0.346328
0.0869494
0.0931847
0.153729
0.215893
0.0855472
0.153783
0.48827
0.554729
0.481915
0.494538
0.509513
0.52868
0.486255
0.510134
0.0836598
0.324723
0.0831661
0.0846406
0.148828
0.200986
0.0888255
0.147492
0.087509
0.362349
0.0902886
0.0983035
0.166685
0.224951
0.0953256
0.157131
0.384446
0.151318
0.157447
0.396685
0.34995
0.208429
0.368942
0.213328
0.413317
0.420498
0.404963
0.209179
0.377081
0.415677
0.330509
0.374755
0.0839937
0.0950268
0.358598
0.0919228
0.0862285
0.163127
0.151886
0.213557
0.152664
0.154144
0.387996
0.371101
0.202236
0.208188
0.325714
0.336556
0.706619
0.675957
0.645803
0.660554
0.702473
0.690516
0.678249
0.67018
0.664532
0.673279
0.63727
0.617
0.660812
0.664235
0.635801
0.648016
0.60388
0.606242
0.58434
0.572616
0.596258
0.598816
0.578046
0.586498
0.541347
0.516497
0.496823
0.3643
0.485136
0.532919
0.409763
0.468198
0.673793
0.636898
0.63707
0.61547
0.65325
0.651848
0.630694
0.644883
0.667181
0.620376
0.62674
0.629926
0.646119
0.63496
0.632353
0.624972
0.614191
0.596019
0.55581
0.530305
0.607382
0.612895
0.576313
0.571283
0.614979
0.556141
0.583386
0.612717
0.598686
0.589955
0.601659
0.591205
0.812446
0.78381
0.771078
0.700535
0.811961
0.786762
0.771371
0.775834
0.821109
0.965877
0.522853
0.123925
0.649635
0.932404
0.420408
0.125277
0.582588
0.342599
0.182507
0.26685
0.38255
0.26943
0.308021
0.287186
0.51787
0.348941
0.231635
0.189251
0.333245
0.326277
0.286563
0.27302
0.813494
0.756973
0.632534
0.491495
0.640245
0.705541
0.660684
0.621177
0.742545
0.271024
0.47725
0.771388
0.630127
0.593454
0.74182
0.575024
0.602119
0.56968
0.468289
0.333736
0.607823
0.601494
0.463793
0.56659
0.589441
0.27654
0.385588
0.313149
0.453326
0.342193
0.384172
0.438724
0.186793
0.411302
0.167771
0.416789
0.327939
0.30325
0.327005
0.302661
0.519629
0.572073
0.509829
0.576602
0.550138
0.544243
0.549857
0.544478
0.158462
0.375213
0.153694
0.381744
0.274544
0.27882
0.275433
0.27806
0.566366
0.602442
0.533617
0.634553
0.605492
0.589333
0.606861
0.590506
0.470157
0.294167
0.512598
0.562591
0.470787
0.403748
0.514814
0.485909
0.464537
0.559936
0.452183
0.284278
0.463028
0.513608
0.387652
0.450865
0.294029
0.511753
0.563921
0.46797
0.397925
0.4866
0.467681
0.532769
0.284121
0.467698
0.559618
0.452002
0.381445
0.468932
0.452598
0.515393
0.646388
0.567827
0.538683
0.628777
0.639428
0.596096
0.623211
0.567588
0.409887
0.180945
0.166382
0.40808
0.382951
0.275036
0.360869
0.243482
0.383413
0.166007
0.181866
0.411801
0.325223
0.272726
0.351499
0.256813
0.625538
0.556804
0.558935
0.633151
0.62575
0.570363
0.616062
0.577407
0.549407
0.503496
0.629056
0.537961
0.536504
0.546459
0.557381
0.567909
0.475943
0.43795
0.273411
0.467232
0.440265
0.394582
0.385971
0.335904
0.508318
0.610475
0.532415
0.514406
0.539638
0.568975
0.517101
0.547547
0.426158
0.449065
0.44745
0.228976
0.390019
0.445425
0.339708
0.402297
0.235355
0.47767
0.44473
0.190719
0.337725
0.396342
0.290541
0.406518
0.597543
0.669796
0.627649
0.575832
0.617355
0.626726
0.600341
0.623223
0.535719
0.597028
0.575923
0.525961
0.565185
0.567918
0.546859
0.567831
0.16463
0.409131
0.381674
0.164771
0.248922
0.352538
0.232982
0.345051
0.508416
0.491834
0.277246
0.46869
0.471394
0.433773
0.429417
0.362355
0.532192
0.520702
0.592306
0.513165
0.531178
0.563826
0.560706
0.589887
0.455059
0.246821
0.446771
0.430668
0.397384
0.36518
0.446692
0.403055
0.517518
0.50691
0.519631
0.591726
0.542039
0.509193
0.567555
0.548946
-13.6396
-8.04446
2.18518
-9.96642
-16.87
-0.544557
-10.4378
-3.45434
-3.13218
0.107327
0.23664
-0.952425
-2.78472
-0.0695294
-0.322486
0.192804
0.274651
0.378364
0.337047
0.2293
-0.00896682
0.581169
0.443872
0.187596
-6.79745
-0.699176
0.954006
0.184823
1.26726
-3.57307
2.70772
0.885672
-4.24725
1.99458
-6.82314
-0.562472
-1.88073
-1.32934
-1.99541
-5.45228
0.323549
-0.323209
0.643985
1.42005
0.202014
0.368391
0.644476
0.506496
2.12798
-0.504582
-0.622112
1.69783
0.272775
-3.18841
0.903472
-3.96055
0.932263
0.170561
1.23017
0.500217
0.88968
1.23273
0.515876
0.350039
3.24494
0.89855
4.3844
1.46944
3.04862
3.59217
2.0845
2.85262
0.697235
0.456574
1.20967
0.653128
0.771327
0.836936
0.603648
0.766213
1.87887
2.64146
1.90871
1.02413
2.27862
2.43774
0.889915
1.74433
0.948931
0.86635
0.945641
0.903018
0.94249
0.855781
0.94649
0.915153
1.0475
3.06727
1.53006
0.85071
1.01209
0.772163
0.866319
1.36621
1.29962
0.878871
0.816258
3.37677
0.999844
0.753381
1.24548
0.973114
2.33636
1.29416
0.736019
1.26261
1.05232
1.34734
1.37676
1.25078
2.28558
1.26996
0.768794
0.980894
2.33717
1.31913
1.30003
0.677687
17.2159
-20.3278
-10.636
-2.87745
-11.0107
-13.2398
-13.8651
-8.34987
-2.87754
-0.0724994
-1.10831
0.12772
-0.890568
0.12861
0.046928
0.230369
-38.1988
-4.677
-5.44511
-3.41413
-8.3035
-16.1346
-4.37506
-3.06593
-9.35425
-1.13174
-0.383757
4.00596
1.16696
-1.8948
7.63377
-1.02727
-3.08421
-6.8003
2.07226
1.69158
-0.211662
-4.7061
-3.50729
-1.96571
-6.589
-1.45929
-4.35554
-19.9531
-4.94883
-2.78734
-13.1523
-5.57536
-2.45123
-4.23236
-0.605917
0.325693
-1.38106
1.18331
0.391006
-1.03891
-10.883
-1.26286
-1.26844
-4.48595
-0.75838
-1.81972
-3.2942
-2.24735
0.180161
0.172875
0.468491
0.460711
0.294937
0.313074
0.453784
0.453217
0.0696178
0.0853525
0.194777
0.340587
0.193199
0.0985512
0.417958
0.126859
0.61916
0.700137
0.707533
0.693132
0.686787
0.713297
0.702691
0.717951
0.638493
0.647508
0.680302
0.702192
0.655841
0.673088
0.679672
0.677476
0.323066
0.542176
0.520191
0.712247
0.58248
0.546991
0.458824
0.551672
0.217247
0.597666
0.490533
0.631204
0.443481
0.340696
0.399511
0.605208
0.614222
0.629143
0.679927
0.681593
0.618075
0.628566
0.634399
0.653599
0.620824
0.674197
0.621546
0.755921
0.664121
0.684817
0.695445
0.654697
-0.0661959
0.0532669
0.0805813
0.453087
-0.0365887
0.00183857
0.206505
0.0766076
0.0674952
0.0911663
0.103905
0.410039
0.200286
0.0941723
0.267648
0.197601
0.127054
0.114331
0.155854
0.452861
0.226123
0.113467
0.330048
0.240986
0.617803
0.610752
0.627419
0.70653
0.6627
0.621088
0.67505
0.667121
0.121675
0.183184
0.442622
0.484797
0.198702
0.199911
0.37242
0.359737
0.0700283
0.402473
0.110883
0.0927784
0.207087
0.271975
0.109327
0.208492
0.293163
0.583954
0.52507
0.542676
0.416588
0.51697
0.49248
0.526543
0.217184
0.508156
0.486915
0.215303
0.303438
0.429571
0.283101
0.416451
0.834303
0.915244
0.876815
0.736237
0.786595
0.866283
0.79898
0.880297
0.895626
1.52223
1.28576
0.431677
-0.680814
2.72651
0.328689
0.0489683
0.903598
1.20124
1.04044
0.00233525
0.581544
0.864061
0.823608
0.535528
0.568112
0.107958
0.200598
0.282227
0.402316
0.326303
0.343212
0.0546118
0.772961
0.759414
0.651901
0.673986
0.757645
0.858834
0.613314
0.758352
0.915936
1.07343
1.38011
0.746228
0.735518
0.562654
0.767214
0.309863
0.769758
0.606943
0.65441
0.616877
0.681278
0.587135
0.544385
0.821158
0.850652
0.166088
-0.239765
1.17202
0.809735
0.465478
0.427168
0.486214
0.647376
0.65752
0.572109
0.535477
0.630493
0.667733
0.649448
0.667676
0.596543
0.290317
0.388951
0.606056
0.532547
0.282639
0.288664
0.227912
0.459985
0.239977
0.34604
0.443363
0.105603
0.266922
0.421117
0.518245
0.449092
-0.0313201
0.244705
0.197905
0.430094
0.12211
-0.0508242
-0.221498
0.821045
0.333464
0.706129
0.454271
0.651041
0.33021
0.7118
0.631613
0.758196
0.0704134
0.500642
0.546753
0.615013
0.1699
0.495519
-0.0767128
0.491258
0.650485
0.201394
0.474371
0.331573
0.684334
0.127932
0.370543
0.607641
0.501209
-0.0531332
1.09103
0.471649
0.472231
0.642388
0.579457
0.311654
0.917074
0.276613
0.656665
0.481779
0.404152
0.53172
0.525627
1.42028
0.433182
1.62225
1.51799
1.95588
1.88786
1.68422
1.82644
0.0132031
0.716426
0.29177
0.813525
0.603409
0.657196
0.594119
0.713691
0.919064
1.05127
0.910831
0.958297
0.990485
1.02543
1.00201
1.03089
0.716307
0.531757
0.8529
1.07856
0.766936
0.519878
1.11796
0.874432
0.277483
1.10662
1.29581
0.406022
0.414887
1.25737
0.105593
1.00582
0.551296
0.857799
1.09071
0.905493
0.757615
0.881247
0.872926
0.951876
0.451533
0.955209
1.04396
1.14505
0.780589
0.892317
1.03038
1.01023
0.081275
-0.906001
-0.0700659
1.51303
-0.251515
-0.744003
3.24012
-0.609218
2.54389
2.81854
2.47593
0.601835
2.17257
2.9058
2.42393
2.77809
1.52011
1.43624
1.58158
0.522027
2.51909
2.04043
2.20119
2.10816
1.08481
0.948971
1.02366
0.923907
0.986137
0.903732
0.964054
0.999436
-0.173877
1.47441
0.687842
1.16412
2.04781
0.545317
0.816047
0.363161
1.78749
0.320732
2.40039
1.73141
1.165
1.8253
1.46948
2.17815
2.10764
1.79689
1.0444
1.77153
0.513428
0.888326
0.898263
1.2042
1.44193
0.911425
0.806088
2.26117
1.22098
0.110365
1.83501
0.419309
2.56664
3.37858
0.425851
1.19057
1.04407
0.848176
1.22643
0.581565
1.17594
0.694394
0.258362
0.594521
0.550205
0.078805
0.373652
0.433187
0.59522
0.214933
0.207295
0.468371
0.474367
0.196715
0.607589
0.316967
0.955632
0.86685
0.805693
0.902911
0.860649
0.81542
0.896943
0.825758
0.648805
0.648002
1.11937
0.797314
0.627454
0.933979
0.741775
0.792186
0.343646
0.499941
0.238848
0.679617
0.466027
0.306919
0.579642
0.275334
0.642871
1.08054
0.794013
0.743778
0.652292
0.808757
0.730302
0.798223
0.614729
0.607252
0.558151
0.293302
0.543741
0.605577
0.427914
0.501336
0.643367
0.583232
0.639086
0.66717
0.638674
0.618192
0.65118
0.636181
0.457488
0.280173
0.498153
0.518479
0.436727
0.377816
0.508842
0.460244
0.656088
0.602427
0.690093
0.687011
0.661676
0.655452
0.683467
0.684558
0.692193
0.662708
0.688494
0.708758
0.688269
0.670145
0.694423
0.682514
0.568334
0.639129
0.661787
0.610222
0.605116
0.633344
0.617805
0.642257
0.535001
0.569681
0.556788
0.622389
0.577292
0.555819
0.59501
0.589922
0.654568
0.67506
0.645682
0.682187
0.667245
0.663105
0.66663
0.658642
0.647883
0.674885
0.615371
0.608448
0.646484
0.654248
0.628544
0.645792
-1.62149
5.10657
-1.61071
1.97672
-1.49955
0.44614
0.294359
1.94288
-2.42524
-0.152337
0.53317
0.530162
0.669372
0.577278
0.506941
1.40293
-0.616136
0.482499
-2.79419
0.251762
-1.20868
-1.42183
-0.858493
-1.62551
0.745294
-0.345595
1.22604
2.01359
1.43984
0.603922
1.79067
0.684208
-0.244815
-1.99787
1.43501
0.93614
1.48752
1.87198
2.75131
0.990549
-1.27713
0.692268
-0.325137
-1.87744
0.397968
0.62109
-2.36105
-0.982532
-0.280161
1.31279
0.945454
0.799085
0.59462
1.26375
0.679776
2.22664
-0.41956
-0.190164
0.00593168
-0.499896
0.334107
-0.17179
0.29409
0.553836
0.0848779
0.448952
0.349163
0.107863
0.130913
0.0719515
0.170009
0.108498
0.750071
0.764643
0.850896
0.641335
0.752844
0.807035
0.728125
0.797588
0.789141
0.970924
0.999164
0.729865
0.846788
0.984231
0.827144
0.957804
0.166992
0.376873
0.339715
0.178236
0.275105
0.359492
0.279238
0.35422
0.524285
0.396486
0.226088
0.461986
0.540673
0.283469
0.391621
0.25501
0.677819
0.567718
0.902011
0.648462
0.672382
0.701979
0.786444
0.838504
0.438443
0.241564
0.466853
0.39275
0.301892
0.257035
0.369459
0.339887
0.647622
0.584274
0.564857
0.8944
0.732068
0.58829
0.804617
0.683957
-5.55937
1.82481
-11.6939
-11.0731
-9.56791
-9.03087
-8.19014
-10.069
0.263219
0.239847
0.0301413
-0.197181
0.182164
-0.0148347
0.424468
-0.00367338
2.31709
1.62109
2.18353
1.1353
-1.20117
-0.620608
-0.80294
1.18427
-6.94151
-0.833056
0.423359
-2.14445
-3.06586
-1.05987
-0.558384
-1.77428
0.812148
-8.97137
-8.01202
-0.91818
1.36678
-2.03977
-1.08332
-2.06696
0.802674
2.45385
-0.126208
-4.26318
1.70565
0.962967
1.9087
0.706784
-12.8158
-3.8225
-2.43614
-0.339449
-7.992
-5.76248
-0.980331
0.474406
-3.56927
-0.755234
1.62505
0.683261
-0.442386
-0.569148
1.6593
0.691809
0.288595
0.845993
0.684815
0.202669
0.69236
0.635613
0.599631
0.327656
1.23428
2.13439
1.2435
0.725798
1.07259
1.32254
0.872237
1.15698
0.903095
1.02819
0.936636
0.800095
0.926025
1.00103
0.883332
0.952058
0.044628
0.470374
0.541513
0.143846
0.142174
0.415866
0.151798
0.413362
0.833694
0.78734
0.273542
0.476291
0.602434
0.468441
0.429644
0.360745
0.921877
0.718165
1.09901
0.976056
0.803979
0.873551
0.959618
1.03308
0.733351
0.212229
0.534108
0.672523
0.565654
0.37551
0.653373
0.470379
0.820897
0.820146
0.870923
0.966944
0.855982
0.819958
0.918169
0.784344
0.560584
0.48233
0.503081
0.493843
0.535493
0.515494
0.520238
0.496731
0.323712
0.0933405
0.10554
0.0942019
0.223468
0.170641
0.160555
0.100398
0.39153
0.100792
0.15333
0.100337
0.294263
0.211653
0.210937
0.147433
0.339511
0.0910519
0.0846455
0.0883172
0.228699
0.164348
0.161485
0.0983203
0.417774
0.443797
0.416686
0.220479
0.378646
0.425496
0.327592
0.382529
0.38024
0.166982
0.187926
0.403627
0.336118
0.225137
0.355062
0.2447
0.404769
0.385861
0.162886
0.168014
0.356416
0.347118
0.230666
0.223885
0.378552
0.105649
0.102492
0.129955
0.246119
0.172897
0.181415
0.103228
0.668728
1.22457
0.666405
0.990914
0.365097
1.07367
0.498151
0.897594
0.898471
0.879794
0.731722
0.791858
0.860676
0.891777
0.790569
0.813331
0.660137
0.727879
0.639667
0.601228
0.652477
0.667674
0.630001
0.645413
0.207043
0.574858
0.497249
0.263558
0.471019
0.477077
0.383808
0.479746
0.835601
0.848086
0.958295
0.782345
0.879993
1.09656
0.739452
0.699494
1.00911
0.784193
0.580772
0.999828
0.667037
0.714649
0.466062
0.687309
0.670006
0.838044
0.658754
0.539155
0.689355
0.649799
0.709524
0.669894
0.725139
0.597247
0.806589
0.785864
0.725374
0.648909
0.746519
0.73682
0.750897
0.719862
0.832508
0.678663
0.726012
0.757954
0.731474
0.766423
0.699864
0.691302
0.741563
0.618259
0.68514
0.703538
0.687082
0.706962
0.942636
0.830688
0.96351
0.782653
0.879
0.894121
0.883444
0.903401
0.416821
0.440042
0.383406
0.209419
0.371363
0.427314
0.322972
0.371592
0.701793
0.805617
0.606401
0.579924
0.705996
0.726882
0.618858
0.657461
0.72815
0.625696
0.775642
0.835012
0.73403
0.704789
0.778124
0.754082
0.817669
0.581446
0.547577
0.597885
0.744136
0.621248
0.631314
0.54734
0.847251
0.639592
0.597902
0.780628
0.792621
0.695861
0.762831
0.663992
0.0345754
0.00120939
0.131509
0.105135
0.0726023
0.030602
0.151958
0.0646416
-0.0197783
0.0394727
0.00819268
0.0458008
-0.0358432
0.0966006
-0.130344
0.0398074
0.636934
0.756826
0.74383
0.583708
0.657343
0.738792
0.661586
0.70748
0.119467
0.127754
0.311865
0.10037
0.108917
0.226941
0.228267
0.296866
-0.158062
0.119038
0.132816
0.0941376
-0.124124
0.0475203
0.0241934
0.174153
-0.041702
0.198096
0.297726
0.444861
-0.194329
-0.000786143
0.183523
0.23699
0.411737
0.225847
0.229861
0.407184
0.247745
0.232233
0.280917
0.244404
0.742222
0.532306
0.243184
0.526931
0.569286
0.445406
0.5314
0.19922
0.077503
0.0782276
-0.167331
0.373528
0.316199
0.219155
0.254607
0.313289
0.157097
-0.0152137
0.0218206
0.518409
0.24837
0.377236
0.452116
0.162483
0.12371
0.0901338
0.0857238
0.49814
0.275634
0.179466
0.418629
0.287402
0.70754
0.666689
0.640128
0.717764
0.678747
0.649968
0.690335
0.660832
0.531753
0.341077
0.713627
0.537518
0.378259
0.459107
0.349633
0.479617
0.290067
0.527279
0.215889
0.129902
0.281078
0.434714
-0.0743217
0.326734
0.593407
0.824537
0.626196
0.606303
0.554386
0.630741
0.586025
0.62034
0.481947
0.546686
0.53552
0.268264
0.392096
0.516037
0.484949
0.530895
6.02767
1.24971
2.87616
3.09375
3.96581
3.76564
3.95752
4.04314
1.35557
1.35518
1.18908
1.3774
1.3768
1.31179
1.35031
1.2537
1.29599
1.03741
0.0726737
1.38466
1.08401
0.790547
1.05776
0.954676
2.00278
1.34363
1.53766
1.6927
1.3308
1.31612
1.33985
1.35932
1.42079
1.69603
1.26554
1.43599
1.15883
1.2141
1.18876
1.23605
1.32638
1.43224
0.997622
1.42142
1.12466
1.37727
0.725934
1.07283
1.71895
1.45403
1.37784
1.36015
2.18967
1.35585
1.36178
1.16719
1.76813
1.0634
1.33173
0.906677
1.23509
1.03008
0.976527
1.06706
0.154366
0.399791
0.374541
0.168032
0.229034
0.346905
0.223528
0.346128
0.582726
0.70079
0.637924
0.645246
0.634846
0.666545
0.629876
0.665062
0.511038
0.597415
0.573835
0.538584
0.545691
0.577314
0.54497
0.577517
0.198632
0.521999
0.448414
0.29853
0.40006
0.437826
0.376141
0.444778
0.460145
0.429003
0.276283
0.528154
0.455322
0.399963
0.44164
0.37772
0.538934
0.593778
0.609222
0.506755
0.536415
0.578144
0.542284
0.576124
0.426666
0.261081
0.518814
0.461753
0.402461
0.380818
0.465507
0.441658
0.505095
0.534432
0.592328
0.609661
0.538816
0.534462
0.572764
0.58041
0.700891
0.763114
0.386402
0.409165
0.642072
0.61912
0.663477
0.488836
0.198805
0.587567
0.471894
0.518978
0.476013
0.235983
0.343352
0.341769
0.22736
0.380653
0.228038
-0.648016
0.0908343
0.241888
-0.0607564
0.199625
-0.822914
0.888586
2.3804
2.40953
-1.32752
-1.40771
-6.0975
-5.60945
0.519124
0.0848394
-0.0641735
-0.0567012
0.549428
0.41263
0.0520067
0.528832
0.647175
0.703838
0.524963
0.309984
0.561918
0.548508
0.478085
0.489262
0.0654109
-0.61679
-0.482577
-0.805728
-0.452291
0.0721226
-0.375159
-1.24216
0.116526
0.358145
0.310668
0.521541
-0.10548
0.381531
0.482326
0.16722
0.11807
-0.0839647
-0.538603
-0.138217
0.0869079
-0.620371
0.0535538
-0.919629
0.818894
0.770125
0.865463
0.779081
0.838721
0.818417
0.892368
0.846272
0.957081
1.02418
1.06104
0.809931
0.925504
1.06483
0.968633
1.04129
-0.202428
0.397481
0.217691
0.0870522
-0.271188
-0.243176
0.045274
-0.0967799
0.377809
0.509095
-0.398343
0.626412
0.458931
-0.129033
0.237572
-0.447893
0.843303
0.664808
0.929134
1.01039
0.809125
0.829804
0.913575
0.867371
0.791609
-0.0448799
0.689556
0.466662
0.127047
-0.109919
0.475927
0.336267
0.87683
0.617472
0.689829
0.974973
0.875618
0.674022
0.923657
0.8079
-0.243619
-0.961614
-0.566561
-0.345102
-0.162275
-0.154538
-0.0406122
0.640005
-0.0420542
-0.139531
0.321979
-3.93134
-0.0262702
-0.203638
-0.242352
0.279619
-0.526731
0.270814
0.3474
2.71202
0.104411
-0.108136
0.956979
0.502203
1.19822
0.942996
1.69636
1.68504
0.910042
0.881702
2.13264
1.7535
0.0766355
0.318338
0.00333944
-1.83595
0.806586
1.17625
-1.20679
-0.58578
-0.190255
-2.43582
0.363471
0.325437
-0.342735
0.319376
-0.0765876
0.481091
1.01275
1.7916
0.809188
0.922994
-0.639878
0.777436
-0.199843
0.964902
0.544388
0.314222
-0.222805
1.13495
0.97712
-0.0372967
1.20675
-1.08603
0.0944276
0.107886
0.373382
0.119223
0.103635
0.172618
0.170246
0.237817
0.136281
0.177462
0.468475
0.2038
0.140074
0.238098
0.255544
0.38165
0.577633
0.635982
0.709537
0.644546
0.597086
0.643444
0.641938
0.694479
0.169336
0.197142
0.503823
0.180868
0.127228
0.251197
0.205929
0.409891
0.121971
0.396268
0.133972
0.135105
0.200899
0.256104
0.153683
0.205787
0.20147
0.243013
0.487921
0.438635
0.278187
0.32904
0.423966
0.444405
0.443572
0.191049
0.250979
0.488954
0.420918
0.271329
0.416069
0.373129
0.490764
0.622606
0.432752
0.570696
0.535159
0.491209
0.495975
0.488449
0.650539
0.605677
0.575941
0.672714
0.649437
0.615761
0.646864
0.61303
0.47274
0.251012
0.222015
0.495377
0.432357
0.30964
0.431133
0.310507
0.424173
0.19988
0.194188
0.457548
0.378646
0.265078
0.376349
0.261411
0.694185
0.654779
0.63339
0.710814
0.696158
0.672475
0.694147
0.665992
0.598449
0.56456
0.676076
0.629254
0.595182
0.607827
0.625853
0.640922
0.509942
0.531755
0.27728
0.484522
0.506988
0.475454
0.454002
0.405016
0.56287
0.673326
0.62599
0.588351
0.601682
0.63736
0.590548
0.63494
0.484072
0.513937
0.526196
0.276501
0.446082
0.51478
0.404833
0.472513
0.229539
0.536962
0.470984
0.207461
0.385314
0.433502
0.322778
0.449095
0.75635
0.87796
0.78861
0.782621
0.822921
0.824769
0.773027
0.808275
0.616399
0.721635
0.686781
0.630519
0.661162
0.687335
0.645428
0.688264
0.197051
0.530741
0.493285
0.207644
0.304686
0.46746
0.288531
0.462677
0.616564
0.558018
0.318157
0.583418
0.581601
0.493498
0.532563
0.458247
0.672624
0.705154
0.746574
0.603613
0.667212
0.717417
0.670562
0.719055
0.513785
0.28661
0.560559
0.520804
0.475712
0.449423
0.549959
0.502127
0.606594
0.63143
0.687506
0.735375
0.648709
0.643074
0.693647
0.688911
-0.0871049
-3.14683
-0.359883
-2.33601
-2.70176
-3.64098
-0.700901
-0.373341
-1.44113
0.000271855
-0.194263
-1.37788
-1.16235
-1.54637
-0.0617032
-0.657189
-1.24889
-0.992334
-1.25292
0.47406
-0.755826
-1.07992
1.14992
0.0814676
2.38289
3.95446
0.920374
1.73699
2.22799
1.91328
1.59869
1.39578
-2.28548
-0.00861613
-0.27809
-0.305755
-0.288719
0.387907
-1.8301
-0.677506
-3.26596
-0.792439
-0.337426
-0.251891
-0.741703
0.24917
-0.392803
-0.393258
-0.365135
1.36511
1.05408
1.66205
1.29636
1.66681
0.875976
0.948485
-0.847742
1.51587
0.625237
-0.926463
-1.06902
0.9775
-1.22978
0.437482
0.64622
0.017239
0.243921
0.912622
-0.0604339
0.0708682
-1.5802
0.273889
-0.0333564
0.00348316
0.0100776
-0.0128932
-0.00810133
0.0677064
-0.0822792
-0.045538
0.133824
-0.112914
0.0657973
0.860047
-0.156084
-0.0842579
-0.923206
-0.131569
0.648846
0.567225
0.948686
-0.846299
2.02162
1.08624
1.60506
1.97604
0.0414287
0.574796
2.16746
0.115094
-0.152994
-0.033677
-0.148482
0.663742
-0.0156209
-0.114426
0.016447
-0.225227
-0.0349623
-0.198961
-0.152909
-0.277389
-2.13326
-0.171387
0.15579
-0.29935
0.589173
1.59292
1.20398
0.589306
-0.108926
1.39269
-0.0692062
-0.217704
-0.467624
-0.320213
-0.444648
-0.721416
0.0598479
-0.0219342
0.236091
1.08236
-0.313716
-0.304203
-0.573541
0.0379024
0.19478
0.368407
0.137888
2.22493
0.190289
-3.15862
0.374086
-0.506871
0.0797416
0.310409
0.875987
0.822529
-0.035327
0.0949003
-0.732007
-0.0722552
0.988255
0.0433282
0.619817
-0.518996
1.13693
-0.249707
2.6588
0.395721
-0.0274179
-0.197856
0.111031
1.72282
-0.17481
0.356742
0.824352
0.381041
-0.385469
0.23389
-0.391423
-0.105496
-0.331333
0.643857
0.249022
0.187306
-1.49482
0.742737
0.77219
0.933765
0.116086
-0.903377
-1.03281
-0.429972
-0.522804
-0.425896
1.20524
0.355143
0.0707854
0.577008
0.171922
1.15456
0.267011
0.45011
0.523121
0.227485
0.299249
0.411691
0.362415
0.44671
0.640089
0.697013
0.733142
0.634781
0.654967
0.699539
0.673054
0.703482
0.723318
0.773552
0.808088
0.711236
0.735726
0.773526
0.749736
0.781189
0.218391
0.487727
0.52926
0.187853
0.296482
0.43256
0.324559
0.442168
0.505888
0.565369
0.296305
0.517948
0.532682
0.491472
0.470029
0.42233
0.619997
0.612518
0.729207
0.645625
0.63858
0.660025
0.677031
0.691939
0.591135
0.332231
0.542978
0.583459
0.518313
0.449676
0.561296
0.493936
0.663634
0.658753
0.62276
0.739076
0.696665
0.641139
0.713485
0.677322
0.111666
0.818505
0.383931
0.763987
0.25514
0.386314
0.541617
0.482554
0.104018
0.249318
0.455879
0.457232
0.320292
0.384444
0.384798
0.407465
0.650017
0.546894
0.634236
0.672211
0.638523
0.630605
0.611794
0.629521
0.774514
0.688744
0.730804
0.776947
0.702324
0.69528
0.726799
0.713712
0.737748
0.649358
0.59116
0.704003
0.595752
0.74383
0.673741
0.658607
0.588171
0.588725
0.579697
0.574803
0.639087
0.555831
0.64417
0.678136
0.578971
0.770102
0.649268
0.622112
0.394872
0.611344
0.574157
0.639538
0.668272
0.710117
0.67347
0.584686
0.725832
0.710904
0.654457
0.698701
5.74074
-3.23335
-20.6894
4.18685
13.8042
-2.53761
14.7958
6.56112
-6.0803
0.337154
-1.84539
-2.77902
7.52007
1.59946
8.63521
3.64725
-7.8593
-2.17518
-3.43602
-4.26006
-0.199256
-3.54901
-0.677862
-3.34921
2.61211
-4.93105
-0.219207
0.504278
0.881897
1.53857
1.11983
1.80981
6.50649
1.94706
6.38935
4.49953
8.90815
2.24402
-7.07049
1.39433
-6.71985
-1.45464
-2.26685
-6.96662
-2.35163
-2.27337
-6.5415
1.35725
10.1112
8.28029
5.86765
3.32396
-0.868242
3.18834
5.09857
-0.923534
-3.09693
1.90762
-0.308149
-1.15374
0.152223
-0.0754015
3.88445
2.01267
0.759732
0.805494
0.717882
0.714825
0.754388
0.75575
0.720273
0.736709
0.852352
0.891961
0.796346
0.812859
0.849069
0.844226
0.811181
0.819279
0.69339
0.728057
0.688325
0.639374
0.691362
0.702208
0.668341
0.688883
0.593992
0.601191
0.526562
0.377271
0.528284
0.567969
0.438043
0.504265
0.80023
0.716046
0.693116
0.736394
0.762646
0.731143
0.767549
0.704269
0.801328
0.756131
0.760126
0.718551
0.779064
0.771046
0.756553
0.757322
0.686972
0.637331
0.667793
0.593709
0.666069
0.669575
0.646957
0.627604
0.703493
0.629733
0.702145
0.741097
0.696731
0.670308
0.730685
0.704354
0.259985
0.396499
0.424201
0.159286
0.322844
0.334171
0.254776
0.339888
0.767607
0.949188
0.836057
0.704719
0.830919
0.903052
0.78447
0.857073
0.639077
0.743523
0.695276
0.602558
0.668564
0.710891
0.644127
0.694793
0.171889
0.361909
0.392187
0.191041
0.228198
0.322034
0.26177
0.331133
0.460203
0.483353
0.24008
0.403686
0.453257
0.399409
0.360554
0.32322
0.649382
0.593494
0.789357
0.599811
0.634394
0.694037
0.689287
0.728255
0.469801
0.249942
0.422757
0.452995
0.40545
0.342529
0.45377
0.38902
0.586849
0.554407
0.589287
0.756445
0.63079
0.568818
0.682522
0.635738
0.810648
0.824517
0.782478
0.753062
0.814138
0.812331
0.789481
0.789323
0.860482
0.945857
0.853226
0.840874
0.872214
0.89643
0.840247
0.88408
0.744677
0.764947
0.710271
0.677362
0.741533
0.743697
0.710811
0.723011
0.566052
0.483991
0.48599
0.296313
0.542462
0.566961
0.410059
0.458038
0.833576
0.77965
0.733531
0.741807
0.799291
0.780573
0.762325
0.758917
0.837663
0.799791
0.807015
0.78037
0.813045
0.808904
0.799018
0.799221
0.749757
0.66986
0.663498
0.618802
0.70932
0.70416
0.685406
0.664147
0.75609
0.676615
0.736122
0.784526
0.744273
0.713317
0.762735
0.745871
0.667709
0.635751
0.61851
0.726472
0.681352
0.641863
0.686653
0.66273
0.522847
0.32217
0.238193
0.626003
0.522924
0.419561
0.520485
0.425559
0.483052
0.248127
0.243761
0.571919
0.449421
0.322819
0.461061
0.343883
0.808152
0.815432
0.764572
0.907439
0.829564
0.810214
0.84185
0.836561
0.634143
0.602389
0.746723
0.704365
0.652027
0.65035
0.714671
0.716938
0.547046
0.626875
0.338349
0.532583
0.571163
0.537411
0.508057
0.459415
0.618148
0.758165
0.736967
0.67769
0.685795
0.7343
0.671613
0.737368
0.551311
0.620817
0.675952
0.349178
0.521866
0.598596
0.46914
0.563927
-1.16853
0.338709
-2.04842
-0.61589
0.343017
0.523966
-0.290906
0.0101522
0.666541
0.612324
0.585002
0.566534
0.630281
0.610703
0.597707
0.5619
-0.282007
0.688781
-3.78475
-3.02455
0.0731215
-0.959141
-0.375547
0.252491
-0.0471647
-0.262317
-0.479735
0.577259
0.0287156
-1.32272
1.39877
-0.366455
0.665692
-0.150691
0.160438
0.264154
0.291799
1.06121
-0.15575
0.867128
0.704224
0.49905
0.424027
-0.923392
0.841211
0.637074
0.12976
0.394999
0.707947
-0.119512
-0.10531
1.2417
0.546267
0.43545
-0.283484
-0.846114
0.558695
-0.238442
0.458142
0.9142
-0.545853
-0.306203
0.0388335
-0.0562367
0.313716
0.534094
0.598202
0.570225
0.458101
0.50589
0.523658
0.566169
0.645285
0.667196
0.729406
0.692428
0.670443
0.683871
0.691796
0.69932
0.782081
0.810972
0.906288
0.829599
0.809145
0.832494
0.845564
0.853104
0.679818
0.715091
0.774339
0.729228
0.715413
0.729829
0.739943
0.736843
0.621066
0.676088
0.649295
0.695424
0.655099
0.655967
0.6655
0.665763
0.643166
0.705278
0.74889
0.704304
0.667903
0.701505
0.702886
0.736944
0.724773
0.685148
0.71482
0.786625
0.721855
0.683737
0.757845
0.728383
0.735776
0.783386
0.718908
0.766057
0.776803
0.773711
0.758734
0.755792
0.176497
0.371277
0.386941
0.179748
0.24376
0.335548
0.231709
0.321065
0.613671
0.698328
0.629731
0.585534
0.619521
0.661114
0.598802
0.63886
0.522487
0.591908
0.571901
0.5191
0.541318
0.570575
0.532869
0.564303
0.187504
0.43068
0.40104
0.184692
0.260475
0.360444
0.245121
0.366401
0.467975
0.431765
0.269688
0.470952
0.449401
0.382733
0.413359
0.346393
0.54946
0.541228
0.599863
0.511966
0.53283
0.563939
0.545339
0.571249
0.417327
0.248922
0.45969
0.42224
0.388506
0.346342
0.440558
0.393361
0.495589
0.496296
0.535701
0.591272
0.528627
0.503229
0.558516
0.545056
0.235236
0.492127
0.474093
0.204172
0.307274
0.434023
0.284663
0.43144
0.65206
0.711683
0.671958
0.597236
0.655399
0.681609
0.62156
0.665848
0.58439
0.642101
0.627646
0.561413
0.596677
0.621775
0.580534
0.613079
0.180018
0.414758
0.400379
0.16886
0.230183
0.34989
0.231074
0.348945
0.522073
0.507677
0.265592
0.472594
0.487319
0.44604
0.453406
0.397005
0.607572
0.555047
0.650411
0.585396
0.588065
0.60577
0.602077
0.632602
0.483569
0.256527
0.456322
0.441634
0.437152
0.383297
0.455926
0.421647
0.57011
0.524063
0.538822
0.637877
0.578288
0.537835
0.601566
0.565167
0.30823
0.440121
0.346992
0.446486
0.470203
0.377063
0.475921
0.431845
0.380394
0.555234
0.778025
0.616822
0.525167
0.515246
0.545914
0.563353
0.211232
0.33859
0.201834
0.62609
0.548882
0.347861
0.362149
0.161849
0.63074
0.67012
0.621861
0.693554
0.667215
0.662438
0.683637
0.680445
0.451042
0.426044
0.576464
0.611544
0.495396
0.593936
0.529526
0.550813
0.404532
0.611113
0.256377
0.344043
0.40387
0.486283
0.39216
0.447193
0.469621
0.588714
0.635535
0.58577
0.567461
0.571692
0.587628
0.588249
0.510093
0.549268
0.643969
0.328705
0.591892
0.548048
0.501835
0.562845