/*--------------------------------*- C++ -*----------------------------------*\
| =========                 |                                                 |
| \\      /  F ield         | OpenFOAM: The Open Source CFD Toolbox           |
|  \\    /   O peration     | Version:  2506                                  |
|   \\  /    A nd           | Website:  www.openfoam.com                      |
|    \\/     M anipulation  |                                                 |
\*---------------------------------------------------------------------------*/
FoamFile
{
    version     2.0;
    format      ascii;
    arch        "LSB;label=32;scalar=64";
    class       volVectorField;
    location    "1600";
    object      U;
}
// * * * * * * * * * * * * * * * * * * * * * * * * * * * * * * * * * * * * * //

dimensions      [0 1 -1 0 0 0 0];

internalField   nonuniform List<vector> 
57600
(
(-0.0934107 -0.00522244 1.05774)
(-0.117192 0.00696839 1.17156)
(-0.0503776 -0.0229084 1.09215)
(-0.0871957 -0.00345393 1.09536)
(-0.103864 -0.00644426 1.07746)
(-0.118034 -0.0174969 1.10546)
(-0.0704236 0.00570716 1.06169)
(-0.0937055 -0.0135181 1.08138)
(-0.079037 -0.00475307 1.34834)
(0.12389 -0.0345182 1.55938)
(-0.106127 0.0265671 1.195)
(-0.0368824 0.0240164 1.36496)
(-0.110342 0.0100231 1.39289)
(-0.184742 -0.0757387 1.46823)
(-0.0160939 0.0543631 1.34369)
(-0.00892139 0.0638218 1.35242)
(-0.0182626 -0.0161845 1.11272)
(-0.0133292 0.00200962 1.06102)
(-0.0256602 -0.0171924 1.06196)
(-0.0017166 0.00136221 1.07101)
(-0.0258075 -0.00930205 1.11425)
(-0.0228338 -0.00997791 1.11965)
(-0.0158654 -0.00958464 1.09708)
(-0.00676439 0.00134197 1.10845)
(-0.0577205 -0.00396585 1.1226)
(-0.0337956 0.0141795 1.18056)
(-0.0268259 0.000558032 1.09089)
(-0.0187616 0.0240997 1.11659)
(-0.0582818 -0.0038822 1.12868)
(-0.0614626 -0.0109572 1.13001)
(-0.0252611 0.0159441 1.1166)
(-0.0403746 0.00179073 1.11699)
(-0.116292 0.0150627 1.18956)
(-0.0564627 -0.0164983 1.0968)
(-0.0873848 -0.00424336 1.10938)
(-0.0825977 -0.00444914 1.24648)
(-0.100635 0.0247201 1.18845)
(-0.114024 0.0014498 1.10554)
(-0.0887315 -0.000908387 1.24087)
(-0.0934239 -0.00848679 1.11244)
(-0.1124 0.00468127 1.21736)
(-0.0866312 -0.00948549 1.26837)
(-0.0348069 0.0226285 1.23257)
(-0.0479431 -0.00457833 1.11039)
(-0.0865238 0.0294839 1.19399)
(-0.113433 0.0261746 1.23576)
(-0.035976 0.0133074 1.16236)
(-0.0495937 0.0387598 1.20113)
(-0.0709272 -0.0118303 1.09399)
(-0.0521511 0.0148569 1.11297)
(-0.0239846 0.0130254 1.21806)
(-0.0426057 0.00319641 1.10724)
(-0.0494429 -0.00449705 1.0965)
(-0.0732057 -2.94609e-05 1.12618)
(-0.0476149 0.00440264 1.10771)
(-0.0757266 1.74587e-05 1.12859)
(-0.0421851 -0.00399122 1.09717)
(-0.0239662 -0.00814828 1.10455)
(-0.0352341 0.0118061 1.23603)
(-0.0169584 0.0105515 1.22458)
(-0.0499515 0.000570507 1.09515)
(-0.0401438 -0.0112142 1.10479)
(-0.042484 -0.0042562 1.17962)
(-0.0503842 0.00551834 1.10824)
(0.015589 0.00355081 1.00938)
(0.0242359 0.00252112 1.02914)
(0.0559308 0.00646072 1.04191)
(0.0238947 0.00295825 1.03353)
(0.0118926 0.00378266 1.01056)
(0.0252003 0.00289464 1.02053)
(0.0280921 0.000651857 1.01835)
(0.0324213 -0.00159007 1.02901)
(0.0148311 -0.00159617 1.0517)
(-0.00513144 -0.0178412 1.05301)
(0.00443175 -0.0109675 1.06484)
(0.00439031 0.0118931 1.06055)
(0.00791433 -0.000672831 1.04665)
(0.000267361 -0.0137021 1.07318)
(0.0075822 0.00651239 1.07092)
(-0.00841778 -0.0014201 1.0819)
(0.120558 0.00915825 1.15182)
(0.14168 -0.0306759 1.04756)
(0.428515 0.0862969 1.39183)
(0.0891297 -0.0677607 1.20164)
(0.0977882 -0.00757828 1.13883)
(0.126505 -0.0103306 1.22206)
(0.178152 0.0187667 1.32087)
(0.0433052 0.0266196 1.17623)
(0.0161346 0.00367092 1.06517)
(0.000514642 -0.0169323 1.06251)
(0.0333067 0.00611592 1.13921)
(-0.0137754 0.0233285 1.11773)
(0.0104096 0.00270019 1.05668)
(0.00255795 0.000629212 1.08791)
(0.00780529 0.0272745 1.10322)
(-0.0120922 0.0227113 1.10997)
(0.0176195 0.0031239 1.03022)
(0.0448384 0.00577141 1.04551)
(0.0160536 0.00535639 1.03483)
(0.00479878 0.00212632 1.06019)
(0.0337933 0.000762718 1.0465)
(0.0404071 -0.00183496 1.04329)
(0.0192348 0.00383051 1.0595)
(0.0187276 0.0015192 1.047)
(0.0188725 -0.00117286 1.04491)
(0.0157083 0.00185329 1.06797)
(0.028841 -0.0135199 1.11228)
(0.053644 0.00203039 1.07163)
(0.0280655 -0.00238676 1.05682)
(0.0238756 -0.0048188 1.07235)
(0.0526099 0.00533412 1.08792)
(0.0393991 0.000912047 1.08312)
(0.082239 0.0105834 1.07867)
(0.0318373 0.0096789 1.05594)
(0.015737 -0.000899373 1.07912)
(0.0228218 0.0313809 1.15964)
(0.0503734 -0.00212614 1.10295)
(0.0236067 0.0062801 1.06054)
(0.0395274 -0.000397361 1.09123)
(0.0126704 0.00764246 1.07581)
(0.0740911 0.000545893 1.10436)
(0.0126594 0.0301566 1.15857)
(-0.00988544 -0.00509999 1.06592)
(0.00835606 -0.0148197 1.09814)
(0.0802496 0.001786 1.12782)
(0.0397672 -0.00889729 1.14081)
(0.0750546 -0.00870717 1.14877)
(0.0777715 -0.023675 1.08047)
(-0.100564 -0.0107586 1.05502)
(-0.121886 -7.03764e-05 1.09045)
(-0.123479 0.00843336 1.16679)
(-0.0954015 -0.00877672 1.08802)
(-0.102774 -0.0138955 1.04432)
(-0.121989 -0.00124236 1.09543)
(-0.101145 -0.00818395 1.07943)
(-0.125501 0.00126243 1.13007)
(-0.165087 0.00361726 1.11985)
(-0.232316 0.0160479 1.12819)
(-0.256039 0.0247197 1.15608)
(-0.171255 0.0220938 1.14045)
(-0.172526 -0.000564235 1.1508)
(-0.214139 -0.00553047 1.11661)
(-0.183198 -0.00659418 1.17547)
(-0.24542 -0.0162449 1.14842)
(-0.107812 0.00183295 1.33548)
(-0.280264 0.0464336 1.31527)
(-0.208577 -0.0439119 1.35668)
(-0.128424 0.0237168 1.36698)
(-0.148346 -0.00819908 1.37714)
(-0.179603 0.0281494 1.3127)
(-0.118719 -0.0042801 1.3863)
(-0.212294 0.0535275 1.30538)
(-0.0714368 -0.00081144 1.12089)
(-0.103426 0.0264553 1.15759)
(-0.0871384 0.00922403 1.19855)
(-0.0450916 0.0251066 1.12402)
(-0.0726433 -0.00274155 1.11061)
(-0.0830333 0.0133374 1.15217)
(-0.0505391 0.00634505 1.12495)
(-0.0823376 0.0107481 1.16728)
(-0.119118 -0.0183425 1.08944)
(-0.116948 -0.00627093 1.15659)
(-0.0917047 -0.0109705 1.07002)
(-0.120655 -0.0131206 1.13324)
(-0.128792 -0.0153988 1.13291)
(-0.127086 -0.00641029 1.14534)
(-0.122399 -0.000402961 1.12303)
(-0.112858 0.00135368 1.13836)
(-0.153138 0.00259333 1.12914)
(-0.166712 0.011342 1.15452)
(-0.239486 0.00522842 1.21091)
(-0.131296 0.00603812 1.2158)
(-0.170927 0.015642 1.17432)
(-0.194101 -0.0071961 1.21246)
(-0.166321 -0.00273349 1.21359)
(-0.173995 -0.013674 1.25038)
(-0.109252 -0.0116133 1.19999)
(-0.0845012 -0.00337247 1.11036)
(-0.118622 -0.00210469 1.1666)
(-0.0721286 0.00779552 1.2053)
(-0.116405 -0.0059102 1.22873)
(-0.116068 -0.00308162 1.17195)
(-0.134183 -0.0156033 1.195)
(-0.125507 -0.00765469 1.16923)
(-0.150624 0.00656332 1.2725)
(-0.118804 0.0176549 1.2941)
(-0.174341 0.0159937 1.196)
(-0.260862 0.0169772 1.21462)
(-0.162932 -0.00682529 1.32025)
(-0.117965 0.0154136 1.26617)
(-0.176466 -0.0227538 1.2785)
(-0.183908 0.0165012 1.24613)
(-0.0245001 0.0453041 1.59085)
(0.0748615 -0.00289847 1.25082)
(0.118458 -0.00421919 1.41597)
(0.0307216 -0.0146047 1.34169)
(0.122272 0.0190256 1.54995)
(0.0939633 -0.0113747 1.41609)
(0.0872932 0.0300614 1.51634)
(0.120299 -0.00236669 1.44625)
(0.0275662 -0.00288406 1.08446)
(0.0187964 0.0247683 1.07718)
(0.0180292 0.0228331 1.1079)
(0.018046 -0.00705239 1.05473)
(-0.0111185 0.00528645 1.10751)
(0.00747531 0.011853 1.09853)
(0.00232366 0.0204474 1.09548)
(0.0117884 0.0201296 1.10069)
(0.107028 0.0126048 1.15931)
(0.052319 0.0176082 1.08735)
(0.0807428 0.0107373 1.04395)
(0.0794761 0.0152747 1.09385)
(0.0830573 0.0156215 1.09879)
(0.0654664 0.0186582 1.07376)
(0.0950893 0.0155931 1.07389)
(0.0834496 0.0105432 1.06838)
(0.0244347 -0.00483535 1.17893)
(0.0348062 0.0215636 1.08261)
(0.0536626 0.0122424 1.14028)
(0.0100915 -0.0134681 1.12669)
(0.0556715 -0.00189857 1.15908)
(0.0537921 0.00350053 1.12769)
(0.0426073 0.00813409 1.16447)
(0.0512366 0.0080533 1.14432)
(-0.013775 -0.0128292 1.30464)
(0.116019 -0.00691681 1.23861)
(0.0486262 -0.0202247 1.32039)
(0.0125766 0.0183052 1.13633)
(0.0256347 0.0169477 1.23951)
(0.0731254 -0.00617807 1.23222)
(0.0410216 0.0265524 1.11982)
(0.0559791 -0.0188749 1.24959)
(0.0146883 -0.0121876 1.22267)
(0.0250029 0.000705787 1.10128)
(0.0277831 0.0195315 1.09793)
(0.0657972 0.00833009 1.21113)
(0.0355532 0.00529016 1.22536)
(0.0339367 0.0241944 1.10331)
(0.0458254 0.011267 1.21974)
(0.0452003 0.019863 1.10742)
(0.112404 0.00379145 1.20225)
(0.0470088 0.0232369 1.28012)
(0.0269241 0.0245263 1.12337)
(0.0709942 0.0160181 1.11566)
(0.0807644 0.0040698 1.24271)
(0.0702147 0.0104352 1.2565)
(0.0715771 0.0151647 1.13058)
(0.0586266 0.0129879 1.12537)
(0.113404 0.013081 1.17587)
(0.0796279 0.0160878 1.1003)
(0.034 0.00908767 1.10552)
(0.0531056 0.0135961 1.08952)
(0.0715017 0.0209634 1.10088)
(0.0646696 0.00936942 1.11286)
(0.0538066 0.0211057 1.10194)
(0.0313783 0.0133068 1.10073)
(-0.0776308 -0.000273329 1.00703)
(-0.0552267 0.00258883 1.02175)
(-0.0692946 -0.00737408 1.00124)
(-0.0731702 -0.00635331 1.03688)
(-0.0755183 0.00282689 1.00727)
(-0.0643656 -0.00305457 1.01961)
(-0.0761721 -0.00111196 1.02184)
(-0.0714297 -0.00469142 1.02256)
(-0.0278797 -0.00837606 1.05151)
(-0.0215567 -0.00118145 1.04923)
(-0.0399209 -0.000791296 1.03643)
(-0.0196583 -0.00774299 1.05679)
(-0.030159 -0.00742433 1.04184)
(-0.0264111 -0.00217473 1.04257)
(-0.0311612 -0.00731337 1.03856)
(-0.0332077 -0.00553676 1.03317)
(-0.0562605 -0.00174739 1.00409)
(-0.0474283 -0.00267834 1.02098)
(-0.0478602 -0.00308457 1.01254)
(-0.0483118 -0.00310491 1.03156)
(-0.0518495 -0.0026628 1.00891)
(-0.0498413 -0.00407803 1.01433)
(-0.0483896 -0.000570473 1.01619)
(-0.0463552 -0.00446316 1.01001)
(-0.0603471 0.000866749 1.07393)
(-0.023956 0.00349748 1.06438)
(-0.0498317 -0.000406767 1.0632)
(-0.0260571 0.00928517 1.094)
(-0.0413787 0.00973681 1.06801)
(-0.0415693 -0.00118505 1.06314)
(-0.0366978 0.00786383 1.06633)
(-0.0372588 0.00665691 1.05574)
(-0.0565014 -0.00336839 1.03336)
(-0.0624522 -0.00655155 1.00641)
(-0.0693047 0.000646128 1.04671)
(-0.0444765 -0.00142915 1.05431)
(-0.0632351 -0.00044336 1.03362)
(-0.0660865 -0.00443814 1.03468)
(-0.0502684 -0.00250028 1.05902)
(-0.0604943 -0.00599089 1.04764)
(-0.0392131 -0.0104867 1.04087)
(-0.0349935 -0.00718819 1.04704)
(-0.0462305 -0.00354845 1.02819)
(-0.0627486 -0.00534888 1.00937)
(-0.0520394 -0.0130468 1.03283)
(-0.0429128 -0.0159247 1.04354)
(-0.0601938 -0.00333494 1.01992)
(-0.0452299 -0.00429591 1.02314)
(-0.061371 -0.00361749 1.01986)
(-0.0587826 -0.00250685 1.04784)
(-0.042614 0.00448485 1.05203)
(-0.0497867 0.00094454 1.04454)
(-0.0673285 -0.00386365 1.03141)
(-0.0581117 0.00158304 1.04439)
(-0.0512809 -0.00375133 1.0388)
(-0.0440139 -5.68467e-05 1.0564)
(-0.0537393 -0.0022132 1.01726)
(-0.0481763 -0.000305476 1.03072)
(-0.0380827 -0.00404393 1.03911)
(-0.0439578 -0.00330581 1.02103)
(-0.0549274 -0.00178169 1.026)
(-0.0525817 -0.00504501 1.03661)
(-0.0478154 0.000294829 1.0247)
(-0.0473808 -0.00101365 1.04556)
(0.146763 -0.0283763 1.33335)
(0.0885417 -0.0383579 1.26556)
(0.0948552 -0.0274961 1.23927)
(0.101101 -0.0197145 1.19479)
(0.116913 -0.0214837 1.3332)
(0.0991792 -0.038159 1.26837)
(0.110812 -0.0168965 1.27808)
(0.101724 -0.0304059 1.25136)
(0.0461789 -0.034275 1.16702)
(0.0067442 -0.00167301 1.11082)
(0.0338212 -0.0152073 1.1245)
(0.00690701 -0.00778369 1.13866)
(0.022595 -0.00286256 1.17129)
(0.0308782 -0.0101488 1.1348)
(0.0204015 0.00310383 1.17636)
(0.035033 -0.00310954 1.13227)
(0.108881 -0.0102754 1.12715)
(0.0583029 -0.00294613 1.10753)
(0.07516 9.64454e-05 1.07058)
(0.0570605 0.0149883 1.10872)
(0.0625062 0.0213864 1.12959)
(0.0713083 0.00146573 1.11331)
(0.0688828 0.0146087 1.11365)
(0.0755923 0.00281643 1.09577)
(0.0506285 0.0200094 1.16792)
(0.0187976 0.0135713 1.1174)
(0.0446416 0.0114465 1.11812)
(0.0240635 -0.00911162 1.13168)
(0.0292953 0.0183532 1.20268)
(0.0318503 0.0168433 1.13106)
(0.0338084 0.0128683 1.19381)
(0.0332245 0.0195706 1.1427)
(0.0698105 -0.0104091 1.27521)
(0.0794393 0.00169495 1.20807)
(0.0639015 0.00284849 1.2444)
(0.0285884 0.0170953 1.1689)
(0.0707875 0.00827489 1.24568)
(0.0780381 0.0024815 1.20479)
(0.0357079 0.00597594 1.13723)
(0.047071 0.000478657 1.13883)
(0.0711858 -0.0367922 1.19459)
(0.0176628 -0.00391077 1.15799)
(0.0555618 -0.00486282 1.13709)
(0.115741 -0.0170728 1.17049)
(0.072551 -0.0191493 1.19924)
(0.0229685 0.00455015 1.17585)
(0.116775 -0.0110661 1.15971)
(0.0385789 0.0112982 1.16013)
(0.0651212 -0.00286602 1.1665)
(0.0669346 0.0145214 1.22408)
(0.0413057 0.0206098 1.15023)
(0.0555555 0.0225524 1.12437)
(0.0658266 -0.000470927 1.1358)
(0.0650692 0.0222228 1.16216)
(0.0542706 0.0277222 1.14796)
(0.0432914 0.0200309 1.14122)
(0.102362 -0.0200138 1.16118)
(0.0565497 0.0218203 1.11922)
(0.0383723 0.00483455 1.13941)
(0.0619257 -0.000876641 1.11795)
(0.05347 0.0178381 1.1468)
(0.0466108 0.0133725 1.14251)
(0.0498083 0.00979882 1.15036)
(0.0340563 0.0083839 1.13168)
(-0.0232269 0.00225736 1.03856)
(-0.0274371 -0.00341237 1.03793)
(-0.015456 0.000692781 1.04087)
(-0.0221769 0.000749572 1.02946)
(-0.0188686 -0.0045438 1.03878)
(-0.0244135 -0.00241721 1.04047)
(-0.0124258 5.85345e-05 1.03769)
(-0.0262356 -0.000610804 1.03923)
(-0.0379343 -0.0016392 1.02646)
(-0.0424766 -0.00317597 1.02117)
(-0.0435764 -0.000693826 1.03897)
(-0.0337028 -0.00118158 1.02703)
(-0.0410314 -0.000913921 1.01809)
(-0.0433888 -0.00524919 1.02093)
(-0.0369274 -0.00101505 1.02763)
(-0.0415821 -0.00475493 1.02305)
(-0.0280506 0.0102956 1.05512)
(-0.0263462 0.009023 1.06793)
(-0.0139523 0.0133198 1.07642)
(-0.0199969 0.00810301 1.05353)
(-0.0237079 0.00284595 1.05558)
(-0.0244267 0.00937345 1.06632)
(-0.0159627 0.00922223 1.05396)
(-0.0257994 0.0102952 1.06753)
(-0.0172586 0.00254562 1.02346)
(-0.0227628 0.00292076 1.03062)
(-0.0155626 0.00584211 1.03326)
(-0.0148434 0.00647089 1.02089)
(-0.01854 0.000594281 1.0208)
(-0.0176175 0.00263006 1.02832)
(-0.0103013 0.00558993 1.02052)
(-0.0145622 0.00500863 1.03009)
(-0.0408222 -0.00303175 1.02528)
(-0.0188754 -0.00480858 1.0491)
(-0.0174414 -0.00282915 1.02776)
(-0.0316723 -0.00156947 1.02287)
(-0.0289234 -0.000820894 1.0272)
(-0.027864 -0.00415501 1.02845)
(-0.0284154 -0.000504168 1.02842)
(-0.0218375 -0.000631158 1.02877)
(-0.0387754 -0.00192329 1.02915)
(-0.0301665 0.00091317 1.02795)
(-0.0436838 0.0024487 1.04078)
(-0.0269715 -0.00306089 1.05203)
(-0.0328507 -0.00166115 1.02807)
(-0.0361523 0.000130793 1.02674)
(-0.0296278 -0.00184069 1.04868)
(-0.0413306 0.00271022 1.03373)
(-0.0117379 -0.000397839 1.0444)
(-0.0121835 0.00113331 1.02642)
(-0.0257519 0.00327562 1.02513)
(-0.0127363 0.00610762 1.03277)
(-0.0220738 0.00332609 1.03717)
(-0.0207037 0.00122608 1.03108)
(-0.0179345 -0.00123298 1.03527)
(-0.0234762 0.000475507 1.02392)
(-0.0278931 0.00384981 1.04613)
(-0.0187187 0.00633352 1.04601)
(-0.0288312 0.00241797 1.02989)
(-0.0427945 0.000159589 1.04173)
(-0.0288273 0.000158299 1.04063)
(-0.0220403 0.00441148 1.04288)
(-0.0341318 0.00569484 1.03996)
(-0.0298861 0.00328389 1.04493)
(-0.368717 0.0103254 1.55037)
(-0.118591 0.0417878 1.17715)
(-0.156711 -0.00671592 1.17677)
(-0.076976 -0.0890714 1.20779)
(-0.152017 -0.0461525 1.35806)
(-0.167082 0.0368337 1.21675)
(-0.110652 0.00732587 1.26586)
(-0.114448 0.0561234 1.29596)
(-0.059098 -0.000808887 1.05714)
(-0.0126109 -0.00257037 1.00754)
(-0.0192391 -0.00229042 1.03078)
(-0.0251186 -0.00775069 1.0363)
(-0.0329217 -0.00525012 1.02408)
(-0.0211859 -0.00499463 1.01173)
(-0.0328603 -0.00542583 1.02626)
(-0.0199268 -0.00699434 1.01803)
(-0.0295943 0.0145549 1.0564)
(-0.0150647 0.00724038 1.05645)
(0.00872117 0.0223566 1.05327)
(0.00985093 -0.00126343 1.06807)
(-0.0228465 0.0098178 1.06936)
(-0.0085709 0.00891266 1.05831)
(0.0145155 0.00409122 1.09144)
(-0.00672415 0.0174124 1.06846)
(-0.0114903 -0.00705205 1.12071)
(-0.0211412 -0.0153163 1.07998)
(0.023271 0.0140279 1.07426)
(-0.00158691 -0.0136438 1.11302)
(-0.0119622 -0.0203224 1.11945)
(-0.00906198 -0.00620757 1.07879)
(-0.00385524 -0.00192461 1.1146)
(0.00328757 -0.00304631 1.10198)
(-0.080702 -0.00577912 1.10473)
(-0.0851504 -0.000367273 1.18126)
(-0.050496 -0.041207 1.1826)
(-0.0306404 -0.0134095 1.07211)
(-0.0817631 -0.00347413 1.11473)
(-0.050979 0.0172083 1.13838)
(-0.0583597 -0.0111784 1.11066)
(-0.0557877 0.00948416 1.11699)
(-0.0710521 0.00669117 1.06655)
(-0.0337331 -0.00310346 1.0372)
(-0.0245123 -0.00176168 1.03614)
(-0.0518 -0.00414471 1.1015)
(-0.0598648 0.0119724 1.08007)
(-0.0385911 0.000289158 1.03778)
(-0.0607963 -0.00530717 1.09561)
(-0.0295229 -0.00749361 1.05694)
(0.00568849 0.0016422 1.172)
(0.00684438 -0.00197882 1.16602)
(-0.0330291 -0.00883342 1.07389)
(-0.00828494 0.017792 1.07505)
(-0.0166016 0.00671639 1.12669)
(-0.0375056 0.0388007 1.14645)
(-0.00669526 -0.00475733 1.09769)
(-0.0148753 -0.0015949 1.0841)
(-0.0339849 0.0248131 1.12879)
(-0.00471661 0.0218829 1.07257)
(-0.0276546 0.00658649 1.04021)
(-0.0156478 0.0045906 1.04391)
(-0.0107785 0.00846807 1.07231)
(-0.0169671 0.00583763 1.06388)
(-0.0278375 -0.0013661 1.06438)
(-0.0186191 0.00036742 1.06492)
(0.0153416 2.07143e-05 1.03857)
(0.0083088 -0.00284299 1.01692)
(0.0109832 0.00530805 1.02125)
(0.0122357 -0.00430725 1.02538)
(0.0140793 0.000203787 1.02839)
(0.0110021 0.00133379 1.01694)
(0.0116876 0.0019213 1.03147)
(0.0107955 0.00527887 1.02007)
(0.00325928 -0.000301647 1.00768)
(-0.00126525 0.00242286 1.00583)
(-0.000690057 0.001683 1.00445)
(-0.00304418 -0.000241128 1.00747)
(0.00035003 0.00133622 1.00694)
(0.000195363 0.00292072 1.00549)
(-0.00143637 0.0014998 1.00668)
(-0.00162943 0.00353551 1.00535)
(0.0089697 0.00631944 1.00583)
(0.000400533 0.00274779 1.00006)
(0.00199183 0.00614591 0.994436)
(-0.00170836 0.000623801 1.00305)
(0.00407905 0.00609337 1.00232)
(0.00207706 0.00503172 0.996233)
(0.00162545 0.00586694 1.00211)
(0.000409645 0.00690877 0.996343)
(0.00450351 -0.00512989 1.01784)
(-0.00410584 -0.00389055 1.01002)
(-0.00304295 -0.00318974 1.01)
(-0.00454521 -0.00885462 1.01568)
(0.000368676 -0.00376616 1.01628)
(-0.00158022 -0.0025831 1.01017)
(-0.00364315 -0.00527295 1.01552)
(-0.00399511 -0.00224079 1.01112)
(0.00596006 -0.00138008 1.01374)
(0.00879035 0.00481515 1.01445)
(0.00791675 -0.00196124 1.02078)
(-0.000865874 -0.00157705 1.00962)
(0.00393833 0.000884414 1.01408)
(0.00637546 0.0023611 1.01319)
(0.00247248 -0.00297144 1.01144)
(0.00601853 -0.00031742 1.01294)
(0.00475133 0.000803493 1.00787)
(-0.00120471 -0.00034816 1.00807)
(0.00146231 0.00317006 1.0023)
(0.00694071 0.00425061 1.00731)
(0.00359599 0.00231704 1.00932)
(-6.78217e-05 0.00225275 1.00574)
(0.0050872 0.00190771 1.00865)
(0.00156122 0.0026396 1.00626)
(0.00732713 0.00519157 1.01426)
(0.00500569 -0.00167952 1.02067)
(-0.00241039 -0.00124269 1.01012)
(-0.00150163 0.000592734 1.00852)
(0.00577433 0.00143539 1.01313)
(0.00476598 0.00123844 1.01437)
(0.00149439 0.00190347 1.00875)
(-0.00095431 -0.00145689 1.00967)
(0.0061251 0.00563994 1.00836)
(-0.00235579 0.00166771 1.0042)
(-0.00308165 -0.000534418 1.00778)
(-0.000609769 0.00394308 1.00189)
(0.000325553 0.00320519 1.00316)
(-0.000585629 0.000554507 1.00414)
(-0.000252783 0.00381077 1.00438)
(-0.00342406 -0.00164031 1.00733)
(0.231003 -8.56057e-05 1.8754)
(0.103821 0.0955537 1.93196)
(0.17446 0.173236 1.93813)
(0.165358 0.092368 1.40565)
(0.146355 -0.063593 1.7635)
(0.196736 0.157685 2.03258)
(0.149361 0.135278 1.69062)
(0.141744 0.185324 1.79566)
(0.0418505 0.114725 1.94545)
(0.00330526 0.101165 1.95863)
(0.0683094 0.152817 2.15272)
(0.0150541 0.0823544 1.61624)
(0.0289295 0.144308 1.92968)
(0.0267255 0.154958 2.05606)
(0.0190425 0.218979 2.02614)
(0.0234106 0.165731 2.03178)
(0.220081 0.188134 2.02221)
(0.125626 0.153366 2.15341)
(0.0962475 0.0735481 2.17204)
(0.0136797 0.121454 1.67832)
(0.156834 0.215058 2.06339)
(0.0919826 0.185913 2.05237)
(-0.0188808 0.338375 1.95405)
(0.0134645 0.264644 2.06688)
(-0.0396898 0.0291422 1.32506)
(-0.0124917 0.0366718 1.36083)
(0.0227616 0.0665512 1.36832)
(-0.0330801 0.042072 1.20303)
(-0.0317781 0.0275643 1.33092)
(-0.0192495 0.0125251 1.31808)
(-0.0255591 0.0578269 1.3015)
(-0.00499949 0.0465761 1.30437)
(0.0753913 0.112616 1.87508)
(0.153672 0.14549 1.95457)
(0.0956308 0.0872121 1.38783)
(0.0535641 0.0622323 1.50588)
(0.076533 0.207552 1.86848)
(0.0945416 0.201309 1.80742)
(0.059315 0.0794912 1.49231)
(0.0713003 0.06015 1.40396)
(0.0846012 0.17422 2.02219)
(0.0207407 0.04504 1.50325)
(0.125398 0.149517 2.08365)
(0.145631 0.147393 1.94146)
(0.0633109 0.151442 1.89043)
(0.0463371 0.186061 1.92576)
(0.117588 0.170683 2.05802)
(0.0917254 0.195344 2.09831)
(0.0605082 0.226901 1.84035)
(-0.0122872 0.0751324 1.37087)
(0.00764542 0.0880521 1.51239)
(0.0273171 0.070816 1.49454)
(0.0815602 0.0878152 1.5639)
(0.0108938 0.0727056 1.43059)
(0.0555247 0.0690403 1.58329)
(0.0173705 0.0620358 1.49006)
(0.119146 0.244843 1.89624)
(0.0188453 0.07748 1.50919)
(-0.0193388 0.0919287 1.55093)
(0.121155 0.242472 2.03634)
(0.0964374 0.249005 1.93091)
(0.0291558 0.0325343 1.54321)
(0.117623 0.291862 2.02144)
(0.0516093 0.121491 1.64453)
(-0.165305 -0.0561206 1.9674)
(-0.120534 -0.0846204 1.8908)
(-0.195465 -0.148248 1.85459)
(-0.158574 -0.0677082 1.47466)
(-0.147007 -0.000863886 1.80292)
(-0.211829 -0.137192 1.97342)
(-0.228262 -0.127732 1.7153)
(-0.21028 -0.162488 1.73744)
(-0.095286 -0.0875479 1.86408)
(-0.0582537 -0.0907423 1.85625)
(-0.112193 -0.108589 2.02666)
(-0.0580751 -0.0876804 1.61808)
(-0.0895217 -0.116088 1.84541)
(-0.0967972 -0.105117 1.90559)
(-0.0795534 -0.223187 1.92119)
(-0.118357 -0.137856 2.0005)
(-0.253484 -0.165613 1.93862)
(-0.132527 -0.078802 2.02646)
(-0.230185 -0.049173 2.14319)
(-0.067043 -0.0373954 1.72832)
(-0.157428 -0.157137 1.95563)
(-0.163394 -0.127203 1.97126)
(0.0610745 -0.162012 1.86071)
(-0.0875499 -0.11573 1.99303)
(-0.0415442 -0.0307149 1.29023)
(-0.0241815 -0.0245901 1.34093)
(-0.0211907 -0.0110474 1.37656)
(0.0100438 -0.0158656 1.21635)
(-0.030059 -0.0140408 1.28013)
(-0.0307773 -0.014745 1.29166)
(-0.00790014 -0.0359157 1.27829)
(-0.00932768 -0.0246961 1.31256)
(-0.115475 -0.0835347 1.81101)
(-0.159655 -0.131751 1.8785)
(-0.0945595 -0.0618384 1.44559)
(-0.075485 -0.0774786 1.51406)
(-0.149852 -0.170631 1.82996)
(-0.158632 -0.185345 1.75033)
(-0.088673 -0.0710643 1.53721)
(-0.0860514 -0.054455 1.42744)
(-0.149419 -0.136751 1.97252)
(-0.0601822 -0.0525926 1.53487)
(-0.100727 -0.145984 1.94744)
(-0.158575 -0.129831 1.8618)
(-0.126207 -0.141022 1.83733)
(-0.0994363 -0.135674 1.87002)
(-0.12903 -0.141331 1.9556)
(-0.103671 -0.15871 1.97633)
(-0.060975 -0.186597 1.76055)
(-0.0209317 -0.0875005 1.40093)
(-0.0475924 -0.124303 1.51669)
(-0.0169629 -0.123977 1.50519)
(-0.119952 -0.086315 1.55997)
(-0.0566474 -0.0903577 1.4474)
(-0.10305 -0.0868337 1.57125)
(-0.0631121 -0.0863586 1.4966)
(-0.142391 -0.211956 1.8259)
(-0.0335975 -0.0953347 1.59939)
(-0.0671864 -0.1267 1.59281)
(-0.12031 -0.18246 1.91607)
(-0.111994 -0.209131 1.84844)
(-0.0870793 -0.0872149 1.58201)
(-0.130171 -0.211156 1.90087)
(-0.0703693 -0.0748102 1.66054)
(-0.011848 0.00683265 0.995175)
(-0.0104131 0.00666862 1.00101)
(-0.0172015 0.0076252 1.00791)
(-0.0162277 0.0062905 1.00672)
(-0.0114113 0.00671284 0.997193)
(-0.0122532 0.00627892 0.999448)
(-0.0166888 0.00730699 1.00485)
(-0.0170281 0.00711766 1.00717)
(-0.00895904 0.00674212 1.00492)
(-0.00701399 0.00547084 1.00606)
(-0.0115458 0.00919437 1.01083)
(-0.00856384 0.00597027 1.00824)
(-0.00805702 0.00638261 1.00501)
(-0.00820735 0.00555411 1.00542)
(-0.0097632 0.00749626 1.00899)
(-0.00976817 0.00750087 1.0089)
(-0.0195542 0.0109701 1.02302)
(-0.0163928 0.0127047 1.02063)
(-0.0143839 0.0210146 1.04335)
(-0.0144394 0.0177424 1.03118)
(-0.0187886 0.0106649 1.02301)
(-0.0176494 0.0114608 1.02125)
(-0.0188847 0.0155656 1.03236)
(-0.0163549 0.0168547 1.03284)
(-0.015734 0.00694341 1.01251)
(-0.0104487 0.00669698 1.01088)
(-0.0133853 0.0140975 1.02171)
(-0.0116014 0.00909712 1.01567)
(-0.0139681 0.0066638 1.01162)
(-0.0129659 0.00656325 1.01138)
(-0.0142562 0.00937149 1.01732)
(-0.012711 0.0089776 1.01688)
(-0.0102784 0.00653319 1.00196)
(-0.0160884 0.00698396 1.00843)
(-0.0153806 0.00701541 1.00755)
(-0.0115565 0.00639049 1.00814)
(-0.0134057 0.00778942 1.00908)
(-0.0169772 0.00739536 1.00702)
(-0.0116124 0.0068449 1.00846)
(-0.0143343 0.00609766 1.00754)
(-0.0106473 0.00574028 1.00345)
(-0.0107073 0.00599184 1.00818)
(-0.0129561 0.00883366 1.01003)
(-0.0166494 0.00808578 1.01007)
(-0.0136233 0.00784198 1.00934)
(-0.012253 0.00789279 1.00825)
(-0.014892 0.00852502 1.01095)
(-0.012861 0.00828561 1.01063)
(-0.0196783 0.00863969 1.01924)
(-0.0175116 0.00799083 1.01418)
(-0.0118218 0.00832685 1.01178)
(-0.0168002 0.0127637 1.02291)
(-0.0193617 0.00936657 1.01959)
(-0.0162169 0.00675321 1.01486)
(-0.0165622 0.00914577 1.01844)
(-0.0146575 0.00712534 1.01254)
(-0.0195307 0.00973129 1.02033)
(-0.015258 0.0127801 1.02237)
(-0.0115487 0.0079207 1.01267)
(-0.0145439 0.0108436 1.01674)
(-0.0183987 0.00997173 1.01813)
(-0.0149569 0.00924212 1.01644)
(-0.0142485 0.0103386 1.01667)
(-0.0119456 0.00973478 1.01569)
(0.0541612 0.002695 1.01402)
(0.0357943 0.00670947 1.00068)
(0.141981 0.00854167 1.102)
(0.0756796 0.0128375 1.08875)
(0.0510084 0.00805854 1.02148)
(0.04309 0.000614526 1.02078)
(0.101179 0.0182116 1.05202)
(0.0858979 -9.20388e-07 1.03447)
(0.020879 0.00534789 1.00176)
(0.0136833 0.00406969 1.0007)
(0.0459616 0.00576882 1.0213)
(0.0222894 -0.001155 1.02387)
(0.021361 0.0051333 1.00471)
(0.0206017 0.0023805 1.00611)
(0.0287922 0.0038271 1.01426)
(0.0292018 0.00110947 1.01253)
(0.282335 -0.0441754 1.25133)
(0.111543 -0.00498097 1.13372)
(0.191968 -0.0856187 1.76086)
(0.121107 0.071482 1.29331)
(0.224692 0.0024643 1.2644)
(0.238755 -0.00125197 1.33321)
(0.184343 0.0379273 1.28668)
(0.206302 0.0435026 1.31533)
(0.0289553 0.0258271 1.13121)
(0.0151431 -0.00460715 1.05329)
(0.0306039 0.0247264 1.17129)
(-0.00118808 0.0298804 1.11121)
(0.028798 0.0233471 1.11874)
(0.0305274 0.0237691 1.11108)
(0.0112438 0.0273956 1.12952)
(0.0136237 0.0248293 1.1223)
(0.0374273 0.00562021 1.00547)
(0.146602 0.0046691 1.09911)
(0.0757523 0.0112104 1.08845)
(0.0410739 0.00548612 1.04336)
(0.0449046 0.0065748 1.01837)
(0.0725938 0.0208863 1.04933)
(0.0419312 -0.00543791 1.03396)
(0.0741699 0.0138856 1.07459)
(0.035285 0.000362731 1.01367)
(0.0465182 -0.000293186 1.04434)
(0.095771 -0.0044782 1.05888)
(0.140402 0.00186156 1.12003)
(0.0488715 0.00754615 1.01766)
(0.0435141 0.00454111 1.02825)
(0.0826594 0.00776454 1.04334)
(0.0861878 0.0105233 1.05172)
(0.153278 0.0262149 1.14628)
(0.073196 0.0301454 1.12012)
(0.0348109 0.0102523 1.04621)
(0.0754555 0.0316333 1.16194)
(0.141047 -0.00193238 1.16643)
(0.0757094 0.00891404 1.09332)
(0.0924419 0.0170259 1.16052)
(0.0335876 0.0483683 1.11046)
(0.172497 -0.0104531 1.12209)
(0.0642622 0.039923 1.18698)
(0.0411947 0.0125666 1.05219)
(0.0908511 0.0164419 1.07197)
(0.103995 0.0666833 1.1684)
(0.0757469 0.0364231 1.19693)
(0.0696161 0.0195492 1.06558)
(0.0413417 -0.0124519 1.09051)
(-0.168874 0.00843 1.277)
(-0.11357 0.0395769 1.23892)
(-0.145123 0.00594628 1.18379)
(-0.1362 0.00427697 1.18998)
(-0.162291 0.0116621 1.29652)
(-0.130053 0.0358883 1.24316)
(-0.160661 0.00193182 1.24283)
(-0.140164 0.0252687 1.22628)
(-0.0667521 0.0308055 1.18795)
(-0.0155879 0.0364102 1.08947)
(-0.0474272 0.0431129 1.12754)
(-0.0456745 0.0393489 1.12332)
(-0.0417614 0.0222257 1.20437)
(-0.0493548 0.0379959 1.12624)
(-0.0501104 0.0222514 1.20106)
(-0.058371 0.0265833 1.13951)
(-0.129569 0.0137177 1.12423)
(-0.0792266 0.0245664 1.11446)
(-0.0985104 0.0154097 1.07085)
(-0.0908454 0.00834321 1.09842)
(-0.0985195 -0.00689372 1.13347)
(-0.0959038 0.0208039 1.11277)
(-0.110601 0.00320275 1.11173)
(-0.1078 0.016766 1.10943)
(-0.0856139 -0.00101767 1.15704)
(-0.0299907 0.00553283 1.12881)
(-0.0580963 0.00195078 1.11254)
(-0.0286801 0.0315823 1.14332)
(-0.0849984 -0.00408408 1.19423)
(-0.0485685 0.00466064 1.11113)
(-0.080413 0.000648098 1.18223)
(-0.062622 -0.00758228 1.1521)
(-0.0881988 0.0188528 1.25057)
(-0.103012 -0.006172 1.1795)
(-0.120872 -0.00814157 1.22324)
(-0.0512898 -0.00268236 1.17441)
(-0.0885801 -0.000853343 1.22213)
(-0.0912581 -0.00197759 1.19951)
(-0.0542529 0.00596185 1.15494)
(-0.0652396 0.00859523 1.15594)
(-0.0915241 0.0348806 1.20449)
(-0.0527398 0.0224143 1.14854)
(-0.0753033 0.0283237 1.14605)
(-0.13511 0.0159225 1.168)
(-0.0919368 0.0171529 1.20586)
(-0.053244 0.00248598 1.19083)
(-0.126097 0.0168106 1.16568)
(-0.0630576 -0.00163443 1.18773)
(-0.100705 0.00551741 1.15178)
(-0.122899 -0.0132851 1.19906)
(-0.0595106 -0.0134541 1.15718)
(-0.0847774 -0.00547103 1.1216)
(-0.0982431 -0.00277092 1.13802)
(-0.100239 -0.014121 1.16044)
(-0.0803968 -0.0160539 1.14007)
(-0.0630832 -0.00989969 1.13995)
(-0.131072 0.0192836 1.15153)
(-0.0858403 -0.0142679 1.12365)
(-0.0761526 0.0218557 1.13477)
(-0.0902729 0.0260756 1.13206)
(-0.0889638 -0.00326033 1.14354)
(-0.0831821 0.00428458 1.12045)
(-0.0878142 0.0022979 1.1574)
(-0.0611843 -0.00213807 1.12927)
(-0.0369233 -0.00291224 1.00149)
(-0.0288426 0.000766998 0.997655)
(-0.0318087 0.000594566 1.01615)
(-0.0305319 0.00286673 1.01162)
(-0.0330382 -0.000350969 1.00164)
(-0.0315823 0.00156254 1.00406)
(-0.0333738 -0.00100441 1.01058)
(-0.0295193 0.00073121 1.0109)
(-0.021842 0.00272635 0.996126)
(-0.0151822 0.00610528 0.994243)
(-0.02015 0.00540524 1.00538)
(-0.0177596 0.00563336 1.00455)
(-0.0189199 0.00453117 0.998718)
(-0.0176824 0.00620161 0.998955)
(-0.0201088 0.00312686 1.00241)
(-0.0180917 0.00484603 1.00283)
(-0.0230897 0.00535763 1.03454)
(-0.020584 0.00821617 1.02311)
(-0.0178099 0.0165112 1.04507)
(-0.0213414 0.0160263 1.0318)
(-0.02291 0.00965153 1.0319)
(-0.0202518 0.0103229 1.03482)
(-0.0218028 0.00872125 1.03597)
(-0.0213419 0.0117188 1.03754)
(-0.021919 0.00594379 1.01718)
(-0.0176358 0.0062254 1.01226)
(-0.0185831 0.0122308 1.02347)
(-0.0144368 0.00828782 1.01721)
(-0.0190648 0.00735333 1.01738)
(-0.0197225 0.00846382 1.01719)
(-0.0175342 0.00637762 1.01689)
(-0.0175629 0.0082422 1.01712)
(-0.0256491 0.00226848 1.00167)
(-0.0274277 0.00358513 1.02025)
(-0.0268225 0.00401046 1.01558)
(-0.0217896 0.0052419 1.01013)