/*--------------------------------*- C++ -*----------------------------------*\
| =========                 |                                                 |
| \\      /  F ield         | OpenFOAM: The Open Source CFD Toolbox           |
|  \\    /   O peration     | Version:  2506                                  |
|   \\  /    A nd           | Website:  www.openfoam.com                      |
|    \\/     M anipulation  |                                                 |
\*---------------------------------------------------------------------------*/
FoamFile
{
    version     2.0;
    format      ascii;
    arch        "LSB;label=32;scalar=64";
    class       surfaceScalarField;
    location    "1700";
    object      phi;
}
// * * * * * * * * * * * * * * * * * * * * * * * * * * * * * * * * * * * * * //

dimensions      [0 3 -1 0 0 0 0];

oriented        oriented;

internalField   nonuniform List<scalar> 
82592
(
-0.039594
0.0983858
0.0267879
-0.0857713
-0.11903
-0.054635
0.120461
0.053116
0.120208
-0.0621893
0.0165613
-0.0746949
0.0344289
-0.0414916
0.0843865
-0.0772896
-0.00706624
-0.127913
0.095447
-0.163233
0.037112
-0.0200373
-0.0734347
-0.0630969
-0.0864929
-0.134526
0.141804
0.0791453
-0.15624
-0.132332
-0.0145803
0.302416
0.0797053
-0.131418
-0.0976723
0.149208
0.116196
-0.105994
-0.105038
0.0948084
0.0591097
-0.223142
0.0781317
-0.214386
0.117309
0.0355882
-0.142446
-0.0989803
-0.0914951
0.146492
0.00270686
-0.0577968
-0.075304
0.161944
-0.120116
0.0334976
0.154249
-0.0940365
-0.0171718
-0.0431792
0.00421848
0.115313
-0.0727856
-0.0468334
-0.0851854
-0.155593
0.149375
-0.157953
-0.00253688
-0.0961598
-0.0552653
-0.0999014
-0.0434122
0.0360843
0.0754698
-0.0681276
-0.0747704
0.057089
-0.0648859
0.0825398
0.0840859
0.0225643
-0.0566964
-0.0499879
0.0366041
-0.0453246
0.0628347
-0.054101
-0.00411569
-0.108032
0.0688022
-0.122594
0.0437167
-0.016593
-0.0548597
-0.0551168
-0.178233
0.0113458
0.112292
0.123906
-0.040961
-0.145214
-0.00417963
-0.121735
0.084411
0.0568684
0.00361363
-0.15114
0.0909197
-0.108817
-0.0619649
-0.00740081
-0.0480015
-0.097382
0.0923269
-0.149536
-0.198165
0.075071
0.0772368
-0.179603
0.0223328
-0.219226
0.0656669
0.108716
-0.171041
0.0213825
-0.0680553
-0.13735
-0.133177
-0.0771935
0.0486718
-0.18799
-0.0187085
-0.0637653
-0.0627703
-0.0201946
-0.0654507
-0.0816919
-0.0123816
0.127054
-0.0488566
-0.0556525
0.109055
-0.0602752
-0.067453
-0.0606438
0.0986191
-0.0318205
-0.088313
0.136376
-0.0699993
-0.114186
-0.0777694
0.0552106
-0.11253
-0.0250901
0.0861679
0.0794674
-0.0466098
-0.0813549
-0.00212457
-0.0200063
0.0334182
-0.0112803
-0.00990644
0.000658205
-0.0124708
0.0217155
0.0239755
-0.00424846
-0.0120902
-0.00763674
-0.0168909
-0.00207674
0.0230562
-0.00407774
-0.0157333
-0.0105922
0.0242002
-0.0119399
-0.0137053
-0.0160006
-0.0114832
-0.00396478
0.004749
-0.00595492
-0.0143506
0.015556
-0.00528316
-0.0189947
0.0146618
0.00961714
0.0168536
-0.00633967
-0.0146648
0.00414535
-0.0161805
-0.00320823
0.0148013
0.00457999
-0.0108524
0.000958457
0.0146399
-0.000321797
-0.0158211
-0.0107862
-0.00443926
0.00574244
-0.00775501
0.0133754
-0.00561077
-3.33301e-06
0.000144015
0.00967141
-0.00460019
-0.00522276
0.00428621
-0.000825041
0.00403942
-0.00751761
-0.000949376
0.00441016
0.00244467
-0.00591974
-0.0101295
-0.0046844
0.00705031
-0.00459486
-0.00540034
-0.0084376
0.00279421
-0.00874817
-0.00576985
-0.0129276
0.0153657
0.0033436
0.00404226
-0.00323739
0.00827633
-0.00910633
0.00582793
-0.00496404
0.00777108
-0.00865716
0.000130519
0.00347416
0.00992121
-0.0135288
-0.0118005
-0.00245621
0.00848164
-0.00496946
-0.00280381
-0.0120693
0.00973311
-0.0112127
-0.00455688
-0.0111887
0.0163957
0.0190423
-0.0137918
-0.00949946
-0.0153442
-0.005939
0.0192083
0.00245426
-0.0121513
-0.00426459
0.0139463
-0.0044447
0.0123548
-0.0124745
0.0106312
-0.00269363
0.0175008
-0.00741253
-0.00567842
-0.0114694
-0.010426
-0.00494039
0.0110392
-0.00650457
-0.0108787
0.00481278
-0.0087043
-0.00990117
-0.00091729
-0.0172404
-0.0157823
-0.00113698
-0.0112923
-0.00588331
0.00966802
-0.0129305
-0.00624292
-0.0169159
-0.00195289
0.00314331
-0.0106515
0.00540134
-0.00972993
-0.000651273
0.0178288
-0.00726138
-0.000908054
-0.00650498
0.00616548
-0.00803467
-0.00826045
0.00409324
-0.00942266
-0.00781245
-0.00778414
0.0101354
-0.006971
0.000573159
-0.00179172
-0.00336858
0.00245957
-0.00872239
0.068548
-0.0350116
0.0183304
0.0191908
0.072493
-0.0369107
-0.0435627
0.0871134
0.0227467
-0.0455973
0.065218
-0.0356809
0.0160713
0.0195562
0.0820042
-0.0330325
0.0945977
0.0208261
0.0155777
0.0718651
0.0756137
0.0180152
-0.0381431
0.0204709
0.0850918
-0.0420584
-0.043882
0.00866208
0.0982334
-0.0498353
0.0163184
0.073435
-0.0399629
0.0223057
0.0910568
-0.0377669
0.104579
0.0244245
0.0167781
0.0851047
0.0926349
-0.0495348
0.0311563
-0.0842925
0.0190799
0.080751
0.138573
-0.176958
-0.0550123
-0.082962
-0.0680517
0.116409
0.0346061
-0.00265061
0.146518
-0.0513109
-0.107008
0.021583
0.0419129
0.0531425
0.0621758
-0.037569
-0.0396424
0.0150734
0.0135792
-0.0385368
0.0642083
-0.0392769
-0.0492928
-0.0474621
0.0801656
0.0165573
-0.0277163
0.0575166
-0.0422807
0.0125188
0.0295078
0.0710194
-0.0383593
0.0858251
-0.0427525
0.0289787
0.014333
0.0655083
0.0892353
0.0187591
-0.0354983
-0.0413425
0.0225957
0.105838
0.0241135
0.0759792
-0.0348526
-0.06844
0.0213162
0.0840977
-0.0369755
0.0196172
0.0497081
0.0199234
0.0501469
0.0205341
-0.0392463
0.0948053
0.0900339
-0.0553625
0.0929904
0.00641592
0.0298094
-0.0238653
0.110938
0.074267
0.0356789
0.0356853
0.0645683
0.106679
0.0574233
0.0251773
0.0232192
0.024549
0.0138823
0.0172089
0.028348
-0.102517
0.0363174
0.0187071
-0.0458128
0.0818624
0.0213641
0.0735393
-0.0479956
0.0273368
0.0865877
-0.120129
0.0884243
0.0499138
0.0713881
-0.0103727
0.0592507
0.0664745
-0.0311961
-0.0263302
0.0650941
0.0886885
0.010108
-0.0145068
0.00439834
-0.0121411
0.00866071
0.00348014
0.00338359
0.0099507
-0.0133342
-0.00146395
0.011655
-0.0116874
0.00149594
0.00904924
-0.0022029
0.00326154
-0.00309187
0.0104792
-0.0141463
0.010771
0.0077665
-0.0105737
0.00280722
-0.0096759
0.00749146
0.00218442
0.0021875
-0.00991389
0.00772602
-0.000680894
-0.00936697
0.0089676
0.00108035
0.00735493
-0.00201619
0.00242774
-0.00232105
0.00876366
-0.0114608
0.00863006
0.00804113
0.00235637
-0.0103975
-0.00904322
0.00203573
0.00700713
0.00167959
-0.00841265
0.00673293
-0.00064337
0.00147492
-0.00687496
0.00604292
0.00736377
-0.00144055
0.0021178
-0.00167942
0.00637529
-0.00845917
0.00637549
0.0084255
-0.00251295
-0.00651327
0.000599525
-0.00549362
-0.00211409
0.00750086
0.000106037
0.000411953
-0.00170041
-0.00610512
0.00739319
-0.00285172
-0.00284282
0.00608056
-0.000386011
0.00549928
0.00281063
0.000114645
0.00203865
-0.00203338
0.00468906
-0.00473055
0.00713974
-0.00230157
0.0079408
0.00302147
0.00304125
0.00940464
-0.00249534
0.00998458
0.000741056
0.000928762
-0.0106736
0.00931679
0.000303071
0.00105352
-0.0127994
0.000987197
0.00951052
0.00101274
-0.01087
0.00118282
0.000127036
-0.00263302
-0.000649044
0.000598855
-0.00811726
-0.00179678
0.0116324
-0.00222788
0.0097076
-0.00283017
-0.0024023
0.00880217
-0.00171747
0.00083935
0.00842872
-0.0117636
0.00748553
-0.00925791
-0.00899934
0.00718814
-3.85368e-05
0.00687976
-0.00854227
0.00199833
0.00852031
-0.00967977
0.00961077
0.00142196
0.0070594
0.00855715
0.000382978
0.00797121
-0.000991115
0.008778
-0.00741135
0.00765005
0.000802224
0.00987258
0.00824424
0.00074372
0.00799687
0.00321627
-0.00556206
0.00234572
-0.00485595
0.00233466
0.00252861
0.00232361
0.00243204
-0.00475452
-0.000577258
0.000963337
-0.00394266
0.0035589
0.00274429
-0.0017473
0.00221973
-0.00211207
0.00228792
-0.00461458
0.00249931
0.00168582
-0.00438287
0.0027025
-0.00357822
0.00083364
0.00274526
0.00231661
-0.00324951
0.000915157
-0.000562872
-0.00226649
-0.000415197
0.00324996
0.00133498
-0.00238387
0.0027332
-0.00224593
0.000767215
-0.0037181
0.000838169
0.00167776
0.00259858
-0.00427547
-0.00325541
0.0023685
0.000869116
0.00233285
-0.00299526
0.000658154
-0.00066496
0.00326051
-0.00238444
-0.000210372
0.00107025
-0.00194845
0.00254865
-0.00219176
0.000594004
-0.003215
0.000732393
-0.00129367
-0.00133588
-0.00160759
0.00423836
-0.00109025
-0.00128744
-0.00162603
0.00401752
0.00412135
-0.00118246
-0.00130161
-0.00163674
-0.00183118
0.00027054
-0.00356511
0.00512224
-0.00271912
-0.00282388
0.00425352
-0.00267445
-0.00113631
-0.00347338
-0.00118337
-0.00202235
-0.0020019
0.00191715
0.0024225
0.00216469
0.00198872
-0.001724
-7.78899e-05
-0.00219188
0.00324197
-0.000642207
-0.000319691
-0.00223738
0.00320741
-0.00406754
0.000555309
0.00150647
0.000596663
-0.00314826
0.00306747
-0.00262475
-0.00246892
-0.000479875
-0.00210778
-0.00116038
-0.00209682
0.00424114
-0.00225486
0.00174431
-0.00270973
-0.00245544
0.00152853
-0.00209089
0.00067596
0.00120217
-0.0036016
-0.000911962
-0.0026123
-0.00203036
-0.00149258
0.00195041
-0.00146999
-0.00167227
0.00336116
0.000577128
-0.00326119
-0.000173521
0.00334018
-0.000819523
0.001544
0.00230388
-0.000524185
-0.00312099
-0.000485078
-0.000735454
0.000999602
0.000528869
0.00355808
0.00199831
0.000730102
-0.00039738
-0.0126285
0.00364143
-0.116782
-0.0362207
0.0328101
0.117359
-0.0327848
0.0136452
0.0112695
-0.010689
-0.00426344
-0.108351
-0.143411
0.0223211
-0.0119813
-0.0380503
-0.0778903
-0.130825
0.111075
-0.162373
0.220791
-0.191013
0.183863
-0.158337
0.192515
-0.218138
0.0572616
-0.12091
-0.0412287
-0.0046506
-0.172224
-0.294986
0.127916
-0.010198
-0.104658
-0.121356
-0.0837269
0.159882
0.00457018
-0.0246376
0.18477
0.0346655
-0.194925
0.0381656
-0.0814165
-0.133749
0.0392409
0.113836
-0.0366869
-0.0724111
-0.111216
0.0998157
-0.0895709
-0.00748296
-0.0188326
-0.0703213
-0.0115696
0.0190563
-0.0859994
0.0389024
-0.0177594
0.0777104
0.0231519
-0.0207024
0.0230717
-0.010866
0.0127212
-0.079416
-0.108407
0.0351185
0.00916122
-0.0215407
-0.154307
0.00547904
0.117092
-0.0302413
-0.119737
0.00864492
-0.0894617
0.0170253
0.022772
-0.117533
-0.107028
-0.0333898
-0.0139438
-0.0279894
-0.0977269
-0.117093
-0.191317
0.0657714
0.0583453
-0.156427
0.0413092
-0.287801
0.0880293
0.104284
-0.179612
0.0450905
-0.0614164
-0.143678
-0.107796
-0.113077
0.0736518
-0.179644
-0.00742045
-0.0530656
0.000978802
-0.101609
0.0229856
0.109673
0.00192875
0.0954111
-0.0141429
-0.0206954
0.0871855
0.00835368
-0.0728327
0.144905
-0.0291619
-0.104567
-0.0289345
0.0683523
-0.171433
-0.0288584
0.055815
0.124375
-0.0554876
-0.0357144
-0.0263223
0.129782
-0.0886874
-0.0146522
-0.106928
-0.0730899
0.190463
-0.0102809
0.00357038
-0.0513251
0.130589
-0.082656
0.127444
-0.046107
-0.072364
-0.00899631
0.109175
-0.123674
-0.011717
-0.138938
0.141263
0.0799289
-0.0761287
-0.0553881
-0.147335
-0.0892247
0.260444
-0.0238554
0.0462319
0.00354661
-0.0654731
-0.0371885
-0.0875607
0.266616
0.173148
-0.0612844
-0.0170276
0.042199
-0.155242
-0.0343691
-0.118703
0.20709
0.0777599
-0.0598035
-0.0756016
0.0221841
0.126238
-0.072742
-0.0718271
0.0313007
0.160943
0.0353463
0.118128
-0.0552045
0.110806
0.0243226
-0.0507737
0.0446712
-0.143335
0.0230925
-0.159588
0.132423
0.0287947
-0.0613677
-0.0574429
0.114898
-0.0535725
-0.003967
-0.0441103
0.134242
-0.00756805
0.0103726
0.105603
-0.04048
0.0988284
-0.034665
-0.00133429
0.0434044
-0.10288
0.0020044
-0.117434
0.116749
0.0382595
-0.0422969
-0.165311
0.0988331
-0.00667923
0.00571985
0.0724712
-0.129307
0.0752534
-0.117553
-0.00388447
0.0771281
0.062777
-0.13331
-0.00653791
-0.0873512
-0.15469
0.0768283
-0.137039
-0.0736547
-0.0039832
-0.135434
-0.182616
0.192458
0.16161
-0.15991
-0.080948
-0.192906
0.186491
0.0885607
-0.156298
0.140473
-0.097969
-0.0075984
0.00395636
-0.0963754
0.177593
-0.173312
-0.114175
0.0558422
-0.0709682
0.0577885
-0.0604479
-0.0597986
0.0608113
0.121434
0.0362638
-0.0520967
0.0119974
-0.0642718
-0.0619041
-0.0656305
0.00868027
0.0484985
-0.0782727
0.145002
-0.00814057
-0.0492881
-0.131984
0.0768452
0.0615379
-0.145724
-0.00458604
0.0127999
-0.0163313
0.00811731
-0.0084726
-0.0105644
0.0229786
-0.00396164
0.0156719
-0.00626975
-0.0111878
0.00177095
-0.00151147
-0.0114697
0.0229427
-0.00994329
-0.00786413
-0.0178092
0.0210991
-0.0164165
7.16202e-05
-0.00481165
-0.0145147
-0.00554892
-0.015864
-0.00499852
0.029731
-0.00888547
-0.00092039
0.0322927
-0.0206514
-0.0107127
0.0282477
-0.00472936
-0.0150804
-0.00843201
-0.0138492
0.000187194
0.0367552
-0.0230744
-0.0289522
-0.0195495
0.0326472
-0.0193663
-0.0105032
-0.0297409
-0.00365231
-0.020844
-0.00736575
0.0204385
-0.00961608
-0.00348695
-0.00630146
0.0242635
-0.0113358
-0.00663264
0.0184138
-0.00587379
-0.00916585
-0.00339133
-0.00605129
0.0256744
-0.0128931
-0.00673354
-0.014882
-0.0164404
0.023944
-0.0163556
-0.00483474
-0.0140189
-0.00847954
-0.0119612
-0.0213863
-0.0107405
0.037759
-0.00563278
-0.000231124
-0.0156395
0.0414532
-0.0255651
0.0344559
-0.00988856
-0.0200456
-0.00450159
-0.0146486
0.0443463
-0.0285518
-0.00111572
-0.0370907
-0.0262846
0.0419986
-0.0239593
-0.013348
-0.0356003
-0.00532317
-0.0250873
-0.0176666
-0.0217371
0.0288057
0.0229985
-0.0129147
-0.0163885
-0.0247198
-0.0177607
0.0310285
0.0198675
-0.034963
-0.0224822
0.0376
-0.00859341
0.0116007
-0.0206811
0.00886318
-0.00455409
0.0360253
-0.0204041
-0.0178418
-0.00890409
-0.0127197
-0.0220725
0.0214549
-0.0180292
-0.00816026
0.00823611
-0.0181033
-0.00308131
-0.0123666
-0.0261812
-0.028744
-0.0116204
-0.00633541
-0.0189176
0.00546499
-0.012258
-0.00960645
-0.0203663
-0.00812683
-0.00352624
-0.0346062
0.0205899
-0.0237753
-0.00669519
0.0262462
-0.0136904
-0.00707759
-0.0145189
0.0313931
-0.0244907
-0.00992256
0.020425
-0.0185194
-0.0328397
-0.0238274
0.0233527
-0.017128
0.00850691
0.00550812
0.00444254
0.00994557
-0.0184494
0.005223
0.0914289
-0.0967351
-0.0375096
-0.0574867
0.0950041
0.0848763
-0.0452153
-0.0395896
-0.025464
-0.108863
0.139432
-0.00504799
-0.0425021
-0.043681
0.0913903
-0.0799959
-0.0458961
-0.0232627
-0.0410021
-0.0777419
-0.0123705
0.0901538
-0.00144306
-0.079742
0.0812018
0.0916762
-0.0162752
-0.0753786
-0.00744837
0.0121071
-0.109776
0.105175
-0.0821899
-0.0893634
0.0938281
-0.0836221
-0.0765775
-0.0202093
-0.0685292
-0.0511282
0.0863555
-0.0352241
-0.0348553
0.0880684
-0.0531949
0.105503
-0.0330711
-0.0723847
-0.00982993
0.12732
-0.0783701
-0.0390711
-0.0602866
-0.0918939
0.101085
-0.0951289
-0.0454675
-0.0562403
-0.0350861
-0.196735
-0.0172926
0.296948
-0.0828079
0.0423548
-0.000528409
-0.229095
0.187477
0.217292
-0.00876162
-0.205115
-0.00303483
0.00316895
0.153889
-0.504618
0.345923
-0.252484
-0.20213
0.258114
-0.203981
-0.00606649
-0.278088
0.0792132
-0.264725
-0.074625
-0.0749653
0.0921779
0.0803436
-0.0583193
-0.0672413
-0.131678
-0.116475
0.139424
0.111828
-0.124608
-0.112394
0.125151
-0.0242162
0.0119082
-0.0623043
0.0151366
0.00167147
0.122117
-0.114889
-0.0873316
-0.00696951
-0.105554
0.0694175
-0.085651
0.0212098
-0.079501
-0.0603147
-0.0892832
-0.087481
-0.0680327
-0.0860856
0.0141616
-0.0748413
-0.00653735
-0.132546
-0.00117154
-0.00186267
-0.111101
0.108741
-0.0926095
-0.024922
0.130791
-0.0794571
-0.0371955
-0.116672
0.124601
-0.0953382
-0.0679865
0.115656
-0.0809126
-0.110791
-0.105906
0.0629276
-0.0605077
0.00259946
0.0305071
0.0228773
0.00734262
-0.0805387
0.0560856
-0.0925913
0.0364537
-0.131316
0.0789042
0.0523048
0.0435732
0.0489789
-0.0926098
0.018427
0.0767512
-0.149204
0.0541936
0.0721017
-0.0564381
0.0403679
-0.0592432
0.0908095
-0.128868
0.0751104
0.101604
-0.170259
0.0685518
-0.210652
0.1149
0.0959675
0.0835615
-0.167688
0.0844553
0.00601865
-0.235367
0.112858
0.117233
0.115849
-0.0804394
0.0664781
-0.094658
0.0962577
-0.170472
0.085275
0.0491292
0.045465
-0.0946574
-0.129696
0.0641436
0.0657157
0.0485313
0.0409172
-0.0894899
0.0230337
0.0672372
0.0603901
-0.150624
0.0631649
-0.0698472
0.0557793
-0.0665491
0.0711024
-0.117942
0.0531738
0.107027
0.0448847
-0.234948
0.0833051
-0.322883
0.0307056
0.109656
0.183726
0.099947
0.0452775
0.074007
-0.219282
0.0922519
0.0293732
0.0365513
-0.157567
0.196447
-0.178825
0.0899043
-0.19226
0.0658612
0.177596
-0.264167
0.0854655
-0.0670462
0.0942359
0.0514996
0.046777
0.0646398
-0.0626889
0.117683
-0.0973911
0.0564184
-0.10086
0.131231
-0.130083
0.100322
-0.148777
-0.0191509
0.100754
-0.0269018
-0.190775
0.0707743
-0.100014
-0.0760859
0.0205896
-0.124613
-0.0847683
-0.0828861
0.128004
-0.0635185
0.0840142
-0.059362
-0.0658634
0.0686511
-0.0819801
-0.0224432
0.0806909
-0.121095
0.113841
-0.166393
-0.216625
0.117472
0.120514
0.103685
-0.179004
0.0622569
0.0666137
-0.15139
0.0761372
0.0746265
0.112535
0.0625993
0.108636
0.0623149
-0.0958684
0.0889187
-0.086099
0.0674182
-0.0272944
0.145666
0.193941
-0.0223801
0.0757746
0.0122663
0.0117957
-0.011265
-0.0177889
0.0171979
0.010872
-0.0102971
-0.00388628
0.0178289
0.00903092
0.00932
0.0182621
-0.00461513
0.0248886
-0.00349882
-0.00911739
-0.00349038
0.0105872
0.0269228
0.0195458
0.0253362
-0.025264
0.00935508
-0.00947951
-0.0353544
0.0092217
0.0346534
-0.00857434
0.000542562
-0.0365307
0.00672486
0.0292702
0.00909626
-0.0408422
0.0322868
-0.000549294
0.0383919
-0.00568791
-0.00740214
-0.00652672
0.00955236
0.0385549
-0.035154
0.03255
0.0184664
0.00158392
0.00968261
-0.0344033
0.00285424
0.0100389
0.0215299
0.00410046
0.0118097
0.0163849
0.0115303
0.00529271
0.0199485
0.0306218
-0.0145438
0.00239832
-0.0147871
0.0110072
0.0296459
0.0189657
0.0256198
0.0118472
0.000298118
-0.045644
0.0122328
0.0301874
0.00322584
0.00542485
0.0127165
0.0233281
0.0147262
0.0237452
0.00588888
0.0402443
-0.0183235
0.00370123
-0.0186622
0.0132683
0.0384096
0.0251739
-0.0049752
0.0299639
-0.0078166
-0.00251026
0.0288025
-0.00847863
0.0304811
-0.010692
-0.00151694
-0.0248585
0.0371079
-0.0126734
0.000443993
-0.0273307
-0.0093159
0.031658
-0.0102916
-0.0313682
-0.00279885
-0.0111763
-0.0046422
0.00932714
0.00999051
-0.0137235
-0.034553
-0.011102
0.00911762
0.0298535
-0.0106898
0.00961298
0.0252567
0.00174944
9.09046e-05
0.0227922
0.00879444
-0.0116686
-0.0106691
0.0309935
0.0321873
-0.0394727
0.0390474
0.0170847
0.0332431
0.00166273
0.0236905
0.0226766
0.00352774
0.0372502
0.0218812
0.015905
0.0226314
-0.00431885
0.0296405
-0.0347119
0.0264686
-0.010889
0.0351707
0.0422722
-0.0112066
0.0267482
0.00595291
-0.00349029
0.026042
-0.0285036
0.0178823
0.0107445
-0.0103855
-0.0182389
-0.00731699
0.00941633
0.0282972
-0.0303933
-0.0185755
0.0114081
-0.00796922
0.0151389
-0.0145933
0.0271283
-0.00658
0.0307266
-0.0274364
-0.0130503
0.0216048
0.0103608
0.00964749
0.0119454
-0.0111323
-0.0104616
0.00623894
-0.00759791
0.000524184
-0.00976806
0.0120951
-0.00794149
-0.00750855
0.00918214
-0.00627823
0.00137295
0.0178767
-0.00961023
0.0142154
-0.00660839
0.000953024
0.00941208
0.0146026
-0.012789
0.0295913
-0.0314026
0.0192005
-0.0143452
-0.0169453
-0.0181938
0.0243318
-0.026145
-0.0149864
-0.0101158
0.01263
-0.0075361
0.0339046
-0.011769
0.0364384
-0.0247753
-0.00453928
0.0234558
0.0141834
-0.0115512
-0.00861997
0.00598927
0.00612411
-0.0110462
-0.00974546
-0.0101054
-0.0103673
0.00612096
-0.010511
-0.0109204
0.00243633
0.0041615
0.020275
-0.010256
0.0207341
-0.01045
0.00519242
0.00457001
0.0227173
-0.00386131
-0.00811102
-0.0077401
-0.0131976
0.0303574
-0.00292444
0.0220374
-0.00770473
-0.0120277
0.000896495
0.0208325
-0.00970652
0.0120229
0.0120859
-0.00138998
0.0146436
0.00966753
-0.00960995
0.0213872
0.0224469
-0.0143617
-0.00924887
0.0193247
0.00166277
0.0249415
-0.0145063
-0.0196615
0.0358937
-0.0294292
0.0102203
0.0108356
0.0103837
0.00971603
-0.0185407
0.0217629
0.017902
-0.0113629
0.0238203
-0.000728004
0.0112152
0.00771866
0.00206573
-0.0210848
0.000224652
0.0104941
-0.00770713
0.0105724
0.0150393
0.0129523
-0.0102209
-0.000290646
0.0117435
-0.02136
0.0105108
0.00069551
0.0125739
-0.012599
-0.00907729
0.00985887
-0.0058136
0.0138085
-0.00803052
0.0121225
-0.00754604
-0.00458764
-0.00885666
-0.00602596
0.0148768
0.00225357
-0.00669266
0.0122606
-0.00782713
-0.00603202
0.00587504
-0.00567248
0.00608894
-0.00567953
0.0138061
-0.00844291
-0.00997174
0.0108613
-0.000900715
0.0100287
0.00175536
-0.0014493
0.0123143
0.00236381
0.0116288
-0.00497546
-0.0100625
-5.8536e-06
8.53983e-05
-3.76306e-05
-0.00910031
0.011456
-0.00712055
-0.0103833
0.0174737
0.0146853
-0.00536001
-0.0118935
0.0211051
0.0029065
-0.0122808
0.0161082
-0.00620226
0.00821123
-0.00916318
0.00845567
-0.00611458
0.0172299
-0.00869844
0.00480212
0.011913
-0.00804233
0.0122661
0.00469429
-0.00729007
-0.0102953
0.00641212
0.013931
0.00749144
0.0117427
-0.00743752
-0.00387595
0.00224362
-0.00709506
0.00349588
0.00488675
-0.00420778
0.0139249
0.00310754
-0.00774095
-0.00292632
-0.00647045
-0.0065176
0.00695909
-0.00436907
0.00454068
-0.00688735
0.00767681
-0.00537143
0.00295833
-0.00527663
0.0126447
-0.002192
-0.00734426
-0.0022733
0.012328
-0.00685398
0.00568407
0.00312281
0.00218826
0.00405799
0.00845802
0.00383423
-0.013652
0.00714583
-0.00921577
0.00500405
0.00442574
-0.00865146
0.00422245
-0.0030855
-0.0062457
0.0162999
-0.0044177
0.0137552
0.012844
-0.00519829
-0.00553399
-0.00366188
0.0155978
-0.0102224
-0.00698123
0.014113
-0.00896248
-0.00876826
-0.00375789
-0.0094957
-0.00683834
0.00846615
0.00779575
-0.00344476
-0.0152256
-0.0140485
-0.00321213
0.00944721
-0.00115051
0.00636551
0.00144923
0.00967177
0.00367364
0.00328027
0.00929573
0.00297817
-0.0137292
0.00956153
-0.0010172
0.00518672
-0.00499107
0.00922943
0.00520928
0.0110974
-0.00527291
0.00077229
0.00910592
0.00838479
0.00459661
-0.00469811
0.0048435
0.0088093
-0.0101798
-0.00386359
0.00560598
0.013629
-0.0101144
0.0037871
0.0107891
-0.00446
0.000128451
0.0137055
-0.00543831
0.0134567
6.89594e-05
0.00352345
0.00966234
0.0124473
0.000525505
0.00874085
0.00840993
-0.000605212
0.0152562
-0.000345847
0.0167192
0.0170455
-0.0195433
-0.000127634
0.00766376
0.0120058
-0.0102872
0.0226057
0.000126956
0.0223231
-0.00888829
0.0119497
0.0130904
0.00966744
-0.0129786
-0.000238859
0.00354894
0.00152494
-0.0123644
0.00969851
0.00114076
0.000721503
-0.0133019
0.00291278
0.00966585
-0.0118391
0.000373835
0.00962019
0.00184343
-0.00294433
0.00974678
0.00286303
0.011689
-0.013108
-0.0027715
0.000679418
0.00963933
0.0115479
-0.00396187
0.00208024
0.002767
-0.00585942
0.012389
-0.00404686
0.00963357
0.00397624
-0.0097917
-0.0031685
0.0114046
0.00156129
0.0022174
0.0134552
-0.00412211
0.0140912
0.00148272
0.00218261
0.0115286
0.0145784
-0.0135729
0.0141949
0.00551109
0.0193062
-0.00590198
0.0164356
0.0101321
0.000324125
8.27979e-05
0.0119231
0.0175199
0.014049
-0.00629873
0.00463939
-0.00413947
0.000795288
0.00217485
-0.00313394
-0.0129119
-0.00530119
0.00491173
0.00216062
0.0092263
0.00266359
0.00954979
0.00138332
-0.00506823
0.0106623
-0.0168522
0.0114277
0.000270866
0.0107919
0.00534578
0.0133583
0.0168653
-0.00607269
-0.00505443
0.0167939
0.0120099
0.0188462
-0.00105135
-0.0136156
-0.00418863
0.000151587
0.0149653
-0.0115635
-0.00357685
-0.00400899
0.0117229
0.00371443
-0.0114552
-0.0137424
0.0149587
0.00375134
-0.00495575
0.00388477
0.0188984
-0.0039445
0.016519
-0.0125048
0.00247319
0.00267159
0.0149563
0.0115179
0.000124649
-0.00883807
-0.002796
0.000402849
0.00780776
-0.00622921
-0.00201355
-0.00308635
0.00468299
0.00621928
-0.00785537
-0.00824539
0.00504001
0.0068012
-0.00361726
0.00246783
0.0121151
-0.0030799
0.0113594
-0.00848865
0.000550234
0.00330301
0.00883051
0.00442251
-0.00516809
0.00992283
-0.00915852
0.00979153
-0.00442606
0.00254109
-0.00791701
-0.00565134
-0.00172245
0.0147181
-0.00734913
-0.00867056
-0.00744309
-0.00214552
0.0182761
-0.00563829
0.0161985
-0.00613717
0.0138867
-0.0097304
-0.00728316
0.0148324
0.000994197
0.00646937
-0.0117395
0.012726
-0.00735695
0.0111041
-0.00951154
0.00431615
-0.00585047
-0.00882486
-0.00876967
-0.00279118
0.0203868
-0.00867769
-0.00202763
0.0199401
-0.0091637
-0.00454251
0.0187256
-0.0076832
0.0185695
-0.0119751
-0.00837673
0.0184854
0.00143758
0.0153266
0.00320215
-0.00356759
-0.00521818
-0.000489388
0.017425
0.000977608
0.0196813
-0.00570632
-0.0107606
-0.000427929
0.0162137
-0.00505685
0.00320254
0.0107027
0.00138664
0.0129334
0.00411277
-0.00418585
0.0180295
0.0137541
-0.0104425
-0.0101366
0.0147455
0.00129165
0.0128585
-0.00949775
-0.00460117
0.0148236
-0.0107201
0.0115234
0.00358578
0.00468401
0.00883588
-0.00988466
0.0148206
0.0104664
-0.00174812
0.00871831
-0.00135779
0.00933119
0.00902795
-0.00231017
-0.018415
-0.00754878
0.0172246
-0.00654409
0.00544354
0.0115772
0.0101387
-0.00719163
-0.00576326
0.00793069
-0.0156303
0.000655321
0.00560609
0.00683055
0.0027603
0.00568517
0.0101915
-0.00837465
-0.0111988
0.00920807
0.00361742
0.00672281
-0.00428294
-0.00832929
-0.0105981
0.00573467
-0.00649168
0.0100825
0.00277624
-0.00340413
-0.00950559
-0.00616915
0.00524914
-0.0119772
-0.00117117
-0.00411603
-0.00572295
-0.00608392
-0.00054084
-0.0097706
0.00381164
0.00498546
-0.0108467
-0.00919797
-0.0114526
-0.0109048
0.0193343
-0.0100427
-0.00670983
-0.0138108
-0.0113894
-0.00942156
-0.00632894
-0.0106318
-0.0101807
-0.00969666
-0.0104136
-0.00373085
0.0137427
-0.0020069
-0.0080689
-0.00846873
0.0176584
-0.00297083
0.0146542
-0.00024018
-0.00661751
-0.0039105
0.0191737
-0.00846693
-0.00903609
-0.0112234
0.0165233
-0.0149181
-0.00260392
-0.00856662
-0.00657201
0.00356679
-0.0103583
-0.0132267
-0.0137498
-0.0145751
0.0238871
-0.00830709
-0.0112107
-0.0157116
-0.0148473
-0.0120578
-0.00933004
-0.0126148
-0.0130858
-0.01271
-0.0122937
-0.00625348
-0.00508967
0.0160874
-0.00534497
-0.00801908
-0.00602723
-0.00721552
-0.00402411
-0.011858
-0.00790553
-0.0105927
0.00957494
-0.00522926
0.00931379
-0.0128932
-0.00958695
-0.00717791
-0.0087568
-0.0120323
-0.0111964
0.0091753
-0.013261
-0.00594976
0.00951871
-0.0102277
-0.00467642
0.00283227
-0.0152278
-0.0196138
0.000118052
-0.00583663
-0.0103259
0.0060611
-0.00516959
-0.00892466
-0.00615996
-0.0114099
-0.0111977
-0.0112737
0.0120345
-0.0110236
-0.00931403
0.0171858
-0.000607405
-0.0105043
0.00145503
0.0228285
-0.0113871
-0.00166847
0.0149749
-0.021813
0.0100805
0.00662184
0.00822905
0.0102108
0.00798487
0.0231989
-0.0187648
-0.00548712
-0.0174063
0.0233164
-0.00214034
-0.00133813
0.0204403
-0.0153594
-0.00388408
0.0258988
-0.0194895
-0.00247814
0.0207068
0.00534229
-0.00283689
0.00597222
0.0199447
-0.0184711
0.0245894
0.0222671
-0.0155748
0.00608583
-0.0124024
0.0201954
0.0121726
0.0137765
-0.0128126
0.0194612
-0.0246533
-0.0164298
0.0261705
0.0149818
0.00390444
0.00894216
0.00948885
0.00999016
-0.0022659
-0.0134179
0.0215042
0.0168157
0.00631576
-0.0132146
-0.0113121
0.012535
0.0170802
0.0105983
0.0154171
-0.0112701
-0.0176394
0.0132699
0.0188008
-0.0143761
0.0031972
0.00573653
0.00789185
0.00671642
0.000541855
-0.0124366
0.0178724
0.0278081
-0.0132953
-0.0201239
0.00570823
-0.0193104
-0.026652
0.0288387
0.0172301
0.0158855
-0.0204594
0.0225952
-0.0179297
-0.0246707
0.0299231
-0.0216211
0.0164742
0.00827033
0.0087862
0.0109332
0.00976111
-0.0207625
0.00407634
-0.0198606
0.0297445
0.00695342
0.014216
0.00221166
0.00151918
0.0134611
0.00548466
0.0170696
0.00706635
0.00185804
-0.0257949
0.00710129
0.00972938
0.00906079
-0.0162733
0.0127031
0.0106308
0.00986187
-0.0185761
0.00552139
0.00836042
0.00798605
-0.0205372
0.0112469
-0.0040009
0.00848048
0.0155883
0.00660455
0.0249444
-0.00628175
-0.00899425
0.0209015
0.00791168
0.0111663
0.00891967
-0.014624
0.0125281
-0.0187237
-0.0154451
-0.00144415
-0.0069303
0.0023094
-0.0157568
0.00661032
0.0220921
-0.0175071
0.0275191
0.00868851
0.00651055
0.0218451
-0.00806795
0.0236709
-0.0152505
0.0250644
0.00031935
0.0207481
0.0170463
0.0127098
0.0154947
0.020947
0.0211954
0.00343517
-0.0058879
-0.00310395
-0.00140057
0.00178936
-0.00515295
0.00401282
0.0026627
-0.0057173
-0.000949416
-0.00595774
-0.00209141
0.00411099
-0.00286503
0.00168582
0.00161041
-0.00587684
-0.0057735
0.00151661
-0.000152639
0.000543668
-0.000243826
-0.00457988
0.00120687
-0.00350855
-0.00069969
0.00226982
0.00112991
-0.00439124
0.000970664
-0.00488497
0.00768367
-0.00517312
-0.00420636
0.00153516
0.0016898
-0.00468676
-0.00737382
0.00403052
-0.0034105
0.00137509
0.00333115
-0.00601622
0.00133849
0.00172489
0.00241878
-0.00505649
0.000919611
0.00332777
-0.00587618
-0.000848147
0.0033768
-0.00654407
0.00172462
-0.00388631
0.00866817
-0.00461538
0.00359749
0.00239829
0.00282226
-0.00570241
-0.00819865
0.00528916
-0.00203214
-0.00681765
-0.00663167
0.0118463
0.0128194
-0.00579908
-0.00832994
0.000597832
-0.00679321
-0.00674935
0.0129304
-0.0067607
-0.011573
0.0185892
-0.0133845
0.00539142
0.00555496
-0.00611816
-0.0151761
0.0138111
-0.00902656
0.001626
-0.00344019
0.00341757
-0.00321307
0.00249205
-0.00803334
0.00334008
0.00373778
-0.00899264
0.00358073
0.00241423
0.00557712
-0.00636386
0.0056799
0.00605769
0.00370687
0.00173435
-0.00541698
-0.00504279
0.00373842
0.00349261
0.00263062
-0.00501504
2.37557e-05
0.00221678
-0.00545414
-0.00128714
-0.00334109
-0.00230112
0.00175598
-0.00508084
0.00294307
0.00609991
-0.00668717
0.00310641
-0.0108634
0.00758523
0.00927561
-0.0114808
-0.00452612
-0.0111731
0.00891405
0.00213419
-0.00304887
0.00703777
-0.00501734
0.00185989
-0.00943151
-0.00113382
-0.00439044
-0.00506732
-0.00118105
-0.00654996
0.00751934
-0.00250833
0.00625211
-0.0049965
-0.00756575
0.00546682
-0.00328112
0.0189498
-0.0143277
-0.0191299
-0.0116658
0.0122281
-0.0138974
0.0124281
0.0145334
-0.00866751
-0.0182957
-0.019076
0.0187861
-0.0113988
-0.00118977
0.00599254
0.0023301
-0.0151859
-0.00164142
-0.0114437
0.0131164
0.0105192
-0.00971227
-0.0112043
-0.00923522
0.0103107
-0.00948803
0.00814697
-0.00619511
0.00663092
-0.00858447
-0.00970372
-0.00834769
0.011176
0.000451067
0.00160906
0.00125652
-0.0100408
-0.00113972
-0.00695598
0.00826329
-0.000322766
0.00750108
0.00201535
-0.00919585
0.00492304
0.00185413
-0.00351203
-0.00326649
-0.00227996
-0.00304854
0.00759139
-0.00226861
0.000382606
0.000634753
-0.00693753
0.00591463
-0.0061692
0.00189831
0.00394593
0.00251716
-0.00376353
-0.00454389
0.00682199
-0.00430645
0.0167804
-0.0155974
-0.00769729
-0.00962966
-0.0135145
0.0170386
0.00453152
-0.0116065
0.00981595
-0.00274389
-0.0119546
0.0166536
-0.00754145
0.00308163
0.00896772
0.00631693
-0.0128652
0.00351832
-0.00650677
0.0143668