/*--------------------------------*- C++ -*----------------------------------*\
| =========                 |                                                 |
| \\      /  F ield         | OpenFOAM: The Open Source CFD Toolbox           |
|  \\    /   O peration     | Version:  2506                                  |
|   \\  /    A nd           | Website:  www.openfoam.com                      |
|    \\/     M anipulation  |                                                 |
\*---------------------------------------------------------------------------*/
FoamFile
{
    version     2.0;
    format      ascii;
    arch        "LSB;label=32;scalar=64";
    class       volScalarField;
    location    "1800";
    object      p;
}
// * * * * * * * * * * * * * * * * * * * * * * * * * * * * * * * * * * * * * //

dimensions      [0 2 -2 0 0 0 0];

internalField   nonuniform List<scalar> 
45248
(
-9.5623e+13
-1.97345e+14
-7.79258e+13
-1.56939e+14
-9.90814e+13
-1.33327e+14
-1.23879e+14
-1.28494e+14
-5.30725e+14
-9.33531e+14
-3.24315e+14
-5.2744e+14
-7.15871e+14
-7.1803e+14
-5.39295e+14
-4.70229e+14
-6.81165e+13
-1.13781e+14
-4.61976e+13
-7.96754e+13
-7.33332e+13
-7.43125e+13
-6.12211e+13
-6.22676e+13
-1.73163e+14
-2.88686e+14
-1.26231e+14
-1.7056e+14
-2.17129e+14
-2.14388e+14
-1.65286e+14
-1.59171e+14
-3.44677e+14
-9.82844e+13
-1.98085e+14
-3.87601e+14
-2.80554e+14
-1.68037e+14
-3.09759e+14
-1.9869e+14
-3.32038e+14
-3.79872e+14
-2.10049e+14
-1.10795e+14
-2.67345e+14
-3.70003e+14
-1.7507e+14
-2.09016e+14
-8.84111e+13
-1.5201e+14
-2.90788e+14
-1.0318e+14
-1.18043e+14
-1.54881e+14
-1.37872e+14
-2.065e+14
-8.58238e+13
-1.08159e+14
-2.78419e+14
-1.62165e+14
-1.15016e+14
-1.35644e+14
-1.64955e+14
-2.0518e+14
-5.35412e+13
-5.44001e+13
-3.98822e+13
-9.37248e+13
-8.50409e+13
-6.45186e+13
-8.47805e+13
-6.78168e+13
-4.96743e+13
-3.76244e+13
-3.51511e+13
-5.99377e+13
-5.11009e+13
-3.9364e+13
-5.44688e+13
-4.29462e+13
-2.27992e+13
-2.74262e+13
-1.76847e+13
-3.49349e+13
-3.24314e+13
-2.64137e+13
-3.05916e+13
-2.53146e+13
-1.14525e+14
-9.27958e+13
-7.62811e+13
-1.36524e+14
-1.3229e+14
-1.03447e+14
-1.26646e+14
-1.00523e+14
-6.51182e+13
-5.34861e+13
-1.10011e+14
-8.63955e+13
-6.80627e+13
-7.67322e+13
-8.81245e+13
-8.87335e+13
-5.01373e+13
-6.98954e+13
-3.64714e+13
-3.77109e+13
-5.48765e+13
-5.408e+13
-3.89291e+13
-4.3509e+13
-5.20092e+13
-1.06246e+14
-8.65018e+13
-6.98411e+13
-5.79545e+13
-8.95086e+13
-7.21899e+13
-8.90521e+13
-4.12732e+13
-5.76713e+13
-6.87943e+13
-3.65286e+13
-4.60806e+13
-5.81892e+13
-4.57813e+13
-5.27708e+13
-8.40341e+13
-6.61235e+13
-1.1765e+14
-1.10406e+14
-8.88674e+13
-8.31528e+13
-1.06143e+14
-1.01921e+14
-5.24424e+13
-4.51687e+13
-7.59812e+13
-7.30756e+13
-5.46651e+13
-5.3254e+13
-6.77459e+13
-6.58033e+13
-1.67474e+14
-1.2285e+14
-2.24074e+14
-2.16663e+14
-1.7594e+14
-1.60036e+14
-2.11224e+14
-1.9783e+14
-1.36285e+14
-1.12448e+14
-1.90065e+14
-1.48895e+14
-1.35921e+14
-1.32735e+14
-1.65301e+14
-1.61851e+14
-7.15048e+13
-1.21556e+14
-1.1668e+14
-9.08486e+13
-8.71546e+13
-9.84154e+13
-9.24591e+13
-1.1442e+14
-7.02898e+13
-9.0193e+13
-9.48228e+13
-1.17547e+14
-8.44654e+13
-8.13533e+13
-9.57908e+13
-9.63947e+13
-1.4752e+14
-1.38513e+14
-1.072e+14
-1.94075e+14
-1.55079e+14
-1.38761e+14
-1.63637e+14
-1.34433e+14
-1.46126e+14
-1.8098e+14
-1.12261e+14
-1.21294e+14
-1.41689e+14
-1.53399e+14
-1.16864e+14
-1.22027e+14
-4.65135e+13
-1.207e+14
-8.19145e+13
-8.34247e+13
-6.43778e+13
-9.0994e+13
-6.86101e+13
-9.52216e+13
-3.12121e+14
-8.71097e+14
-5.34182e+14
-6.0315e+14
-4.68826e+14
-6.81765e+14
-5.26915e+14
-6.98618e+14
-1.50754e+14
-3.55573e+14
-2.58169e+14
-2.33598e+14
-2.20922e+14
-2.7327e+14
-2.18408e+14
-2.81901e+14
-1.3289e+14
-3.16519e+14
-2.18513e+14
-1.73668e+14
-1.73135e+14
-2.52802e+14
-1.7687e+14
-2.48241e+14
-1.6782e+14
-1.1652e+14
-1.08595e+14
-3.13173e+14
-1.87387e+14
-1.37008e+14
-2.23556e+14
-1.60832e+14
-2.36762e+14
-4.58912e+14
-4.08509e+14
-1.57116e+14
-2.54851e+14
-3.53065e+14
-2.06784e+14
-3.13276e+14
-1.3305e+14
-1.17946e+14
-3.14509e+14
-2.14626e+14
-1.44755e+14
-1.66031e+14
-2.09444e+14
-2.10188e+14
-1.74358e+14
-2.8905e+14
-4.58398e+14
-4.21769e+14
-2.51616e+14
-2.70966e+14
-3.12026e+14
-3.43556e+14
2.12038e+14
-5.77141e+15
-1.71593e+16
-2.59533e+13
-1.27175e+15
-1.6372e+15
-7.33035e+14
-1.20554e+15
-5.95911e+15
-1.37782e+15
-1.84045e+16
-5.95841e+15
-3.46463e+15
-4.17307e+15
-3.57203e+15
-5.12813e+15
-1.2008e+17
-9.76275e+16
-1.56454e+18
-8.95727e+17
1.50961e+17
-1.80243e+17
7.80273e+16
-2.82904e+17
-2.87336e+15
-1.50492e+15
-1.14029e+17
-1.23589e+15
-5.02324e+15
-8.8194e+15
-4.97022e+15
-8.02812e+15
-2.99615e+15
5.83396e+15
-1.38085e+15
-1.04416e+15
-3.60498e+15
-4.27207e+15
-3.19583e+15
-4.90548e+15
-5.16085e+15
1.28643e+15
-3.42005e+16
3.81203e+15
-5.83353e+15
-4.29367e+15
-1.14978e+16
-1.40648e+16
6.50611e+15
-2.80121e+15
-9.12174e+14
-9.52326e+15
-4.04862e+16
-5.64887e+15
2.24148e+16
-4.40807e+15
-3.68124e+15
-7.72782e+16
1.36345e+15
-4.98727e+16
-8.22716e+16
-5.12768e+16
-1.6105e+16
-5.67025e+16
-1.19548e+18
-9.66369e+16
-2.91967e+18
5.2544e+17
3.79452e+17
-2.41525e+17
1.53655e+18
1.29339e+18
-7.34594e+16
-1.8578e+16
-2.09078e+17
-7.61285e+15
-5.82911e+16
-7.94518e+16
2.12833e+16
1.09589e+16
-2.31561e+19
-7.16604e+17
-2.90194e+18
-2.13085e+17
-2.43184e+18
-1.37803e+18
-1.11947e+18
-1.52525e+18
-1.62994e+17
-1.07433e+15
6.58718e+16
-3.67702e+15
7.44414e+16
8.60679e+16
5.18362e+16
7.6242e+16
-1.74651e+17
3.99106e+18
1.77903e+17
-1.24961e+16
-4.46555e+17
-5.28529e+17
-3.55947e+17
-2.74276e+17
-1.73483e+16
1.46205e+16
-6.46598e+17
1.20396e+18
-2.40663e+17
-2.5909e+17
-3.36618e+17
-3.23771e+17
1.11881e+19
-4.76526e+17
-1.42713e+16
-4.33785e+15
1.49342e+18
-3.03649e+17
-7.34381e+17
-4.6174e+17
3.51452e+18
-1.62908e+17
-1.4949e+16
6.4441e+17
-2.58044e+18
-9.64387e+17
-5.31271e+17
-5.75032e+16
-1.10371e+18
8.45858e+17
-5.04095e+17
-9.24809e+16
1.35537e+18
2.72846e+18
-2.7679e+17
-4.69186e+17
1.57886e+18
-3.46798e+17
7.07746e+16
-5.15063e+17
-2.82415e+18
-1.70162e+17
-2.25148e+17
-9.83075e+16
7.68337e+13
-1.23767e+16
-4.26444e+15
-5.44367e+15
-1.41329e+16
-1.05829e+16
-7.86887e+15
-6.59924e+15
-2.23091e+16
-4.06713e+16
-5.36366e+15
-8.94078e+15
9.68863e+15
-2.7448e+16
-7.952e+15
-5.97705e+15
2.93105e+18
-1.7889e+17
-2.22242e+17
-1.94175e+17
3.31155e+17
-5.88337e+17
-3.59124e+16
-1.5469e+17
3.56469e+18
-4.21825e+17
-1.92036e+17
-3.09429e+16
-1.75338e+17
-8.25193e+16
-2.36045e+17
-3.43975e+17
-4.56557e+16
-1.68158e+17
-1.19736e+17
1.55102e+16
-8.1902e+16
-1.63806e+17
-7.15178e+16
-5.55483e+16
-4.83695e+15
-7.9055e+15
-1.15122e+17
-5.7421e+16
-2.20009e+15
-5.10782e+16
-2.11377e+16
-4.36182e+16
-1.3024e+15
-2.32898e+15
-1.45314e+15
-1.21833e+15
-1.47869e+15
-1.69435e+15
-1.42098e+15
-1.66846e+15
-1.40231e+16
-7.073e+17
-6.34289e+16
-7.68945e+16
-4.02225e+16
-9.99624e+16
-5.34069e+16
-1.95301e+16
-1.69594e+15
-1.26067e+16
-1.2291e+14
-4.12129e+15
-2.51994e+15
-1.58911e+15
-2.51624e+15
-1.37299e+15
-1.17619e+15
-1.53841e+16
-5.12459e+15
-1.61775e+15
-1.3306e+15
-4.79424e+15
-8.55724e+14
-3.85265e+15
-3.43191e+15
-1.60901e+15
-1.76776e+15
-1.02891e+16
-2.49748e+15
-1.93406e+15
-7.32872e+15
-2.59872e+15
-7.50607e+15
-2.81115e+16
-8.81742e+15
-2.2099e+15
-5.6761e+15
-1.92255e+16
-3.67192e+15
-8.23049e+15
-1.74793e+15
-1.42903e+15
-7.472e+15
-3.18651e+15
-2.4095e+15
-2.11896e+15
-3.40199e+15
-3.69286e+15
-2.10341e+15
-5.78444e+15
-1.85594e+16
-9.94403e+15
-4.67216e+15
-6.18794e+15
-6.98275e+15
-1.05998e+16
-1.37328e+14
-1.42546e+14
-1.11545e+14
-1.67416e+14
-1.43251e+14
-1.30716e+14
-1.46708e+14
-1.33398e+14
-1.43415e+14
-1.34581e+14
-1.08673e+14
-1.66368e+14
-1.4798e+14
-1.31921e+14
-1.42078e+14
-1.26709e+14
-8.6578e+13
-8.82718e+13
-6.87773e+13
-1.0179e+14
-9.04102e+13
-8.15314e+13
-8.83787e+13
-7.91579e+13
-2.16337e+14
-2.06573e+14
-1.64277e+14
-2.66419e+14
-2.26605e+14
-1.89367e+14
-2.24056e+14
-1.87908e+14
-1.47121e+14
-1.12945e+14
-1.8054e+14
-1.75806e+14
-1.4776e+14
-1.3728e+14
-1.65496e+14
-1.61802e+14
-1.31432e+14
-1.54121e+14
-1.05913e+14
-1.06469e+14
-1.33457e+14
-1.38244e+14
-1.09783e+14
-1.16697e+14
-1.13211e+14
-1.78665e+14
-1.704e+14
-1.43246e+14
-1.29915e+14
-1.63447e+14
-1.43947e+14
-1.72422e+14
-1.04447e+14
-1.21658e+14
-1.53526e+14
-1.02681e+14
-1.09174e+14
-1.2526e+14
-1.14775e+14
-1.30635e+14
-9.5628e+13
-7.85645e+13
-6.45326e+13
-1.17796e+14
-1.27168e+14
-5.19788e+13
-9.29653e+13
-6.68864e+13
-7.97775e+13
-4.13906e+13
-4.59593e+13
-1.1964e+14
-1.02267e+14
-3.54707e+13
-9.01903e+13
-6.43002e+13
-2.53718e+13
-2.77974e+13
-1.87731e+13
-4.28467e+13
-3.31064e+13
-1.44105e+13
-2.89476e+13
-2.37183e+13
-1.52461e+14
-1.59264e+14
-8.54494e+13
-1.56068e+14
-1.5003e+14
-1.32807e+14
-1.27209e+14
-1.12067e+14
-1.16859e+14
-6.56599e+13
-1.30957e+14
-1.20917e+14
-1.00759e+14
-8.01031e+13
-1.19022e+14
-8.13217e+13
-3.55246e+13
-9.0804e+13
-2.94221e+13
-3.37005e+13
-7.50219e+13
-7.19096e+13
-5.14067e+13
-5.90191e+13
-5.24602e+13
-1.06294e+14
-1.11497e+14
-7.25878e+13
-6.6029e+13
-8.2652e+13
-7.19673e+13
-1.01793e+14
-4.52704e+13
-6.01406e+13
-8.28921e+13
-4.37483e+13
-4.56235e+13
-5.92227e+13
-5.47319e+13
-7.23729e+13
-9.95089e+13
-1.33933e+14
-1.51989e+14
-1.30704e+14
-1.1579e+14
-1.28205e+14
-1.19342e+14
-1.38174e+14
-1.90521e+14
-2.80591e+14
-2.8305e+14
-2.54299e+14
-2.33235e+14
-2.58929e+14
-2.4706e+14
-2.77555e+14
-2.17718e+14
-3.0944e+14
-3.15589e+14
-2.77401e+14
-2.53377e+14
-2.95532e+14
-2.63115e+14
-3.06736e+14
-1.554e+14
-2.23362e+14
-2.3923e+14
-1.68167e+14
-1.79359e+14
-2.05244e+14
-1.78938e+14
-2.16326e+14
-1.64305e+14
-1.71074e+14
-1.52037e+14
-2.07202e+14
-1.7473e+14
-1.557e+14
-1.73898e+14
-1.74149e+14
-1.83798e+14
-2.32623e+14
-2.67912e+14
-1.94339e+14
-1.98267e+14
-2.1958e+14
-2.126e+14
-2.38114e+14
-1.71158e+14
-1.49338e+14
-2.32351e+14
-2.15268e+14
-1.93796e+14
-1.81432e+14
-2.24049e+14
-2.05817e+14
-2.03015e+14
-2.59756e+14
-2.59183e+14
-2.95393e+14
-2.36615e+14
-2.56843e+14
-2.67024e+14
-2.6866e+14
-1.93926e+14
-4.03081e+14
-1.9127e+14
-1.64808e+14
-1.35239e+14
-2.20308e+14
-9.71118e+13
-1.77793e+14
-9.47045e+14
-1.48761e+15
-8.38654e+14
-8.63839e+14
-1.21609e+15
-1.05742e+15
-1.07839e+15
-9.51553e+14
-1.20619e+14
-3.99299e+14
-1.21078e+14
-1.73877e+14
-1.23997e+14
-1.46917e+14
-9.38525e+13
-1.09153e+14
-1.91565e+14
-4.04517e+14
-2.09649e+14
-1.86535e+14
-2.18169e+14
-2.47233e+14
-1.88863e+14
-2.08739e+14
-4.82464e+14
-2.42775e+14
-2.29671e+14
-3.92228e+14
-3.76654e+14
-2.64995e+14
-3.87751e+14
-2.22469e+14
-5.41246e+14
-5.77659e+14
-5.34681e+14
-2.81606e+14
-4.15502e+14
-6.21924e+14
-3.22528e+14
-4.02196e+14
-2.18332e+14
-2.07411e+14
-3.02566e+14
-1.85601e+14
-1.9037e+14
-1.89118e+14
-2.05451e+14
-2.47133e+14
-2.67403e+14
-1.93289e+14
-4.54618e+14
-4.6481e+14
-2.99178e+14
-2.35692e+14
-3.38597e+14
-4.37644e+14
-3.22004e+14
-4.81244e+14
-3.24039e+14
-2.76237e+14
-3.23479e+14
-3.71622e+14
-3.27064e+14
-3.67925e+14
-7.16039e+14
-9.84899e+14
-7.54076e+14
-6.72167e+14
-8.45534e+14
-1.00495e+15
-7.66772e+14
-8.97346e+14
-3.56915e+14
-5.28098e+14
-3.81977e+14
-3.3228e+14
-3.97183e+14
-4.5389e+14
-3.49875e+14
-4.02941e+14
-2.5738e+14
-3.63148e+14
-2.84223e+14
-2.06072e+14
-2.73284e+14
-3.113e+14
-2.44328e+14
-2.79639e+14
-4.85331e+14
-3.7479e+14
-3.37272e+14
-5.23108e+14
-4.86598e+14
-3.84285e+14
-4.01766e+14
-3.90475e+14
-5.49955e+14
-6.17261e+14
-6.36368e+14
-4.32577e+14
-5.51397e+14
-5.83591e+14
-4.85878e+14
-5.54991e+14
-3.29386e+14
-3.11805e+14
-4.74839e+14
-3.08087e+14
-3.08526e+14
-3.67754e+14
-3.58816e+14
-3.6515e+14
-3.88376e+14
-3.56185e+14
-5.34028e+14
-5.8818e+14
-4.06819e+14
-4.20335e+14
-5.09713e+14
-4.99793e+14
-8.52784e+16
-8.52323e+16
-4.87088e+16
-2.88821e+16
-7.7911e+16
-7.94791e+16
-3.32898e+16
-5.41281e+16
-5.35397e+16
-1.20611e+16
-1.80736e+16
-1.57811e+16
-3.80556e+16
-2.46094e+16
-1.89197e+16
-2.42291e+16
-1.03295e+16
-7.50597e+15
-7.35694e+15
-1.04647e+16
-1.11972e+16
-4.22822e+15
-1.64981e+16
-1.05164e+16
-1.36879e+16
-1.18543e+16
-2.20191e+16
-5.66741e+15
-1.37005e+16
-1.55322e+16
-1.4006e+16
-5.62215e+15
-4.23697e+16
-3.74975e+16
-1.31274e+16
-2.01091e+16
-3.68197e+16
-2.61243e+16
-1.65803e+16
-1.73241e+16
-6.23716e+16
-1.4427e+16
-2.80679e+16
-5.77895e+16
-1.95923e+16
-2.29721e+16
-4.9923e+16
-4.28013e+16
-3.39771e+16
-1.57997e+15
-1.56407e+16
-3.74805e+16
-1.9127e+17
-5.30031e+16
-1.10557e+17
-3.93016e+16
9.4523e+14
-6.66941e+15
-3.38675e+16
-3.71085e+16
-2.05361e+16
-5.75965e+16
-1.30017e+16
-5.39848e+16
-4.31845e+17
-2.39156e+16
-1.16974e+17
-5.85032e+16
-9.01235e+16
-6.20471e+16
-7.50469e+16
-4.28646e+16
-2.69652e+15
-1.2752e+15
-1.79119e+15
-1.30955e+15
-1.86192e+15
-1.58081e+15
-1.97975e+15
-1.66002e+15
-1.58161e+16
-4.2153e+15
-6.66368e+15
-7.64106e+15
-1.46777e+16
-7.34588e+15
-1.46967e+16
-8.51108e+15
-1.57632e+16
-1.27394e+15
-3.01965e+15
-1.93148e+15
-4.90013e+15
-2.26206e+15
-5.48384e+15
-2.46136e+15
-8.51754e+15
-3.51498e+16
-1.96335e+16
-3.85052e+15
-9.27308e+15
-1.48353e+16
-8.80371e+15
-8.79839e+15
-5.6572e+15
-2.93851e+15
-3.93574e+15
-1.79421e+16
-6.35082e+15
-3.47243e+15
-6.79526e+15
-5.5508e+15
-3.83825e+16
-2.22667e+16
-3.62004e+15
-8.54407e+15
-2.25737e+16
-9.51466e+15
-9.22434e+15
-1.52538e+15
-1.40606e+16
-6.21428e+15
-2.82216e+15
-4.15271e+15
-6.63683e+15
-6.34724e+15
-5.94589e+15
-3.17423e+15
-1.26112e+17
-4.72283e+16
-2.88269e+17
-6.1654e+16
-1.29532e+17
-9.7356e+16
-1.73465e+17
-1.51395e+17
-1.67946e+16
-1.48228e+15
-3.50451e+16
-8.92385e+13
6.2645e+15
4.56669e+15
1.13833e+16
5.9882e+15
-3.87651e+17
-9.36848e+14
-1.01971e+18
-5.05908e+17
-4.34273e+17
-3.33406e+17
-1.34683e+18
-6.24974e+17
4.52339e+13
-2.40712e+15
1.07674e+16
-1.58968e+15
-2.11657e+14
-3.73133e+14
-5.38564e+15
-3.33912e+15
-3.22285e+16
-1.95238e+17
-2.15269e+16
-5.90745e+15
-4.93156e+15
-7.45585e+16
-1.14714e+16
-4.22532e+16
-7.7815e+16
-8.46652e+15
-4.45591e+16
-2.17499e+17
-3.25336e+16
-4.80885e+15
-5.43555e+16
-2.18413e+16
-1.98893e+17
-5.56609e+15
-3.21964e+15
1.17672e+17
-5.66793e+15
-1.45114e+16
-1.73497e+16
-1.60098e+16
-2.66382e+17
4.20189e+15
-7.49906e+15
5.28339e+15
3.00933e+15
-4.76852e+16
2.8296e+16
-3.17359e+16
-8.29916e+12
-7.08828e+12
-8.10854e+12
-6.87194e+12
-9.33512e+12
-8.11665e+12
-1.01865e+13
-8.48097e+12
-5.02133e+12
-4.18384e+12
-4.50284e+12
-6.51654e+12
-5.88896e+12
-5.59182e+12
-6.23669e+12
-5.05161e+12
-7.55474e+12
-5.31346e+12
-7.65152e+12
-6.58873e+12
-6.43737e+12
-6.23898e+12
-6.11586e+12
-5.53437e+12
-8.4826e+12
-1.0177e+13
-1.05466e+13
-1.88706e+13
-1.45156e+13
-1.11582e+13
-1.52754e+13
-1.28379e+13
-7.91387e+12
-7.77445e+12
-1.04702e+13
-9.06738e+12
-8.3178e+12
-7.77667e+12
-6.617e+12
-9.13043e+12
-6.75015e+12
-7.67463e+12
-5.5177e+12
-7.60225e+12
-6.73718e+12
-5.986e+12
-6.28516e+12
-5.81517e+12
-7.98674e+12
-1.10412e+13
-8.87159e+12
-6.14021e+12
-7.18268e+12
-9.14113e+12
-7.55955e+12
-7.8773e+12
-7.33206e+12
-7.97291e+12
-8.15907e+12
-5.05939e+12
-6.19338e+12
-8.04495e+12
-5.41752e+12
-6.94992e+12
-8.16796e+12
-8.56151e+12
-7.54662e+12
-7.45234e+12
-9.0547e+12
-8.49013e+12
-1.14173e+13
-9.33792e+12
-8.38812e+12
-9.32671e+12
-6.93242e+12
-1.06716e+13
-8.81873e+12
-8.53849e+12
-9.6565e+12
-7.82957e+12
-5.61451e+12
-6.1528e+12
-4.56833e+12
-7.32007e+12
-5.25053e+12
-4.88974e+12
-8.60182e+12
-5.85084e+12
-1.08454e+13
-1.34709e+13
-1.086e+13
-1.98852e+13
-1.33292e+13
-1.33337e+13
-2.26133e+13
-1.64023e+13
-8.81716e+12
-7.09974e+12
-8.71005e+12
-1.11341e+13
-9.91956e+12
-9.93871e+12
-9.72746e+12
-9.15752e+12
-8.78422e+12
-9.76542e+12
-5.91092e+12
-6.88547e+12
-8.92993e+12
-9.1129e+12
-7.13393e+12
-7.55389e+12
-9.94656e+12
-1.45727e+13
-1.26637e+13
-1.33158e+13
-7.88699e+12
-1.0032e+13
-8.10129e+12
-1.17342e+13
-6.91211e+12
-9.48782e+12
-1.04432e+13
-7.04886e+12
-7.75633e+12
-7.82681e+12
-8.11208e+12
-8.38198e+12
-1.6405e+17
-3.63063e+17
-1.11452e+17
-5.1892e+16
-2.11877e+17
-2.12336e+17
-8.40385e+16
-1.17205e+17
-9.45897e+17
-3.15213e+18
-5.09975e+17
-1.67647e+17
-1.96263e+18
-2.41717e+18
-2.91245e+17
-5.17092e+17
-7.67179e+16
-2.08732e+17
-1.32449e+16
-1.68731e+16
-5.86596e+16
-5.65583e+16
1.33424e+16
-6.162e+15
2.45971e+15
-6.18337e+15
-2.75253e+16
-3.53984e+15
-7.10204e+14
-1.4043e+16
-9.72972e+15
-2.43016e+16
-4.90095e+17
-1.25243e+16
-3.10649e+16
7.79062e+16
-1.952e+17
-5.41023e+16
5.65667e+15
-4.99338e+16
-5.68573e+17
6.22744e+16
-1.97001e+17
-2.77622e+16
-2.67014e+17
-1.6049e+17
-1.43263e+17
-6.50176e+16
2.34051e+16
-7.96507e+15
-7.25807e+16
1.19363e+16
1.07071e+15
-1.62294e+16
3.19803e+16
-1.74626e+16
-3.18533e+16
1.06532e+16
-3.56339e+16
3.60915e+15
-7.54847e+16
4.559e+16
1.36529e+17
-3.21658e+16
-1.34889e+15
-2.28589e+15
-1.96761e+15
-1.36994e+15
-1.39867e+15
-2.20084e+15
-1.2722e+15
-2.0201e+15
-1.53049e+16
-6.10985e+17
-2.16044e+17
-6.17649e+16
-4.19005e+16
-2.28727e+17
-2.922e+16
-2.38199e+17
-4.118e+15
-2.81393e+16
-1.53191e+16
-1.34136e+16
-6.75389e+15
-2.64048e+16
-5.35722e+15
-2.41046e+16
-2.10525e+15
-1.10666e+16
-6.6689e+15
2.28748e+14
-1.22023e+15
-1.25034e+16
9.14736e+14
-7.29112e+15
-3.98441e+15
-2.59498e+15
-1.77756e+15
-4.65063e+15
-4.67786e+15
-3.08027e+15
-4.56682e+15
-3.378e+15
-9.95535e+15
-1.30922e+16
-9.16572e+16
-5.31393e+15
-1.04329e+16
-2.464e+16
-8.28333e+15
-2.71397e+16
-2.3926e+15
-1.22502e+15
-5.14762e+15
-2.46223e+15
-3.19626e+15
-3.1518e+15
-2.04089e+15
-2.90243e+15
-4.33739e+15
-1.27126e+16
-1.71544e+16
-8.5056e+16
-5.79292e+15
-1.99866e+16
-2.5542e+16
-1.10747e+16
-5.14496e+13
-3.60893e+13
-5.2206e+13
-6.70629e+13
-5.05572e+13
-4.21847e+13
-6.02359e+13
-5.01026e+13
-2.64047e+13
-1.97062e+13
-2.58714e+13
-3.41987e+13
-2.48663e+13
-2.24822e+13
-2.90226e+13
-2.51217e+13
-5.22628e+13
-3.44916e+13
-4.73027e+13
-6.84359e+13
-4.89349e+13
-4.09116e+13
-5.4757e+13
-4.91459e+13
-9.85754e+13
-5.9316e+13
-9.106e+13
-1.19251e+14
-8.73568e+13
-7.43317e+13
-1.00824e+14
-8.66106e+13
-3.43507e+13
-5.07286e+13
-6.6766e+13
-4.58957e+13
-4.28009e+13
-5.00247e+13
-4.77136e+13
-5.67004e+13
-3.03605e+13
-4.11155e+13
-3.19506e+13
-4.2411e+13
-3.4568e+13
-3.64406e+13
-3.74516e+13
-3.69959e+13
-5.54864e+13
-7.71255e+13
-5.42956e+13
-7.5682e+13
-6.95233e+13
-6.43368e+13
-6.67173e+13
-6.2761e+13
-4.87845e+13
-6.46346e+13
-4.59046e+13
-3.61586e+13
-4.94788e+13
-5.86255e+13
-4.38541e+13
-4.59119e+13
-1.29487e+13
-1.7129e+13
-2.38887e+13
-2.96808e+13
-1.68348e+13
-1.63304e+13
-2.40387e+13
-2.35518e+13
-1.88428e+13
-1.74964e+13
-2.42797e+13
-2.99152e+13
-2.12797e+13
-1.98331e+13
-2.60522e+13
-2.36468e+13
-3.50425e+13
-3.35978e+13
-4.43182e+13
-5.75868e+13
-3.99785e+13
-3.55852e+13
-5.05526e+13
-4.35517e+13
-5.90804e+13
-5.44337e+13
-7.77225e+13
-1.01758e+14
-6.90001e+13
-6.49054e+13
-9.01993e+13
-8.03164e+13
-2.17342e+13
-2.90843e+13
-3.80822e+13
-3.70608e+13
-2.76166e+13
-2.81016e+13
-3.09003e+13
-3.62005e+13
-2.03402e+13
-3.47414e+13
-2.75098e+13
-2.67422e+13
-2.50581e+13
-2.87349e+13
-2.53741e+13
-2.99439e+13
-3.83123e+13
-4.89725e+13
-4.70987e+13
-6.9323e+13
-4.48964e+13
-4.50701e+13
-5.47232e+13
-5.27856e+13
-3.46483e+13
-5.94927e+13
-4.2338e+13
-3.29803e+13
-3.93913e+13
-4.74528e+13
-3.74889e+13
-4.29891e+13
-1.0463e+13
-9.85392e+12
-8.62546e+12
-1.07904e+13
-1.10207e+13
-1.12328e+13
-1.03776e+13
-1.0663e+13
-1.18041e+13
-1.91987e+13
-1.18123e+13
-2.05155e+13
-1.47129e+13
-1.41494e+13
-1.47995e+13
-1.35954e+13
-8.76602e+12
-9.87096e+12
-9.89237e+12
-1.19722e+13
-9.34424e+12
-1.01849e+13
-8.82596e+12
-9.70566e+12
-1.23035e+13
-1.98375e+13
-1.68386e+13
-2.14624e+13
-1.86346e+13
-1.93711e+13
-1.64939e+13
-1.88328e+13
-1.16491e+13
-9.72084e+12
-1.35745e+13
-1.54733e+13
-1.11344e+13
-1.08827e+13
-1.10212e+13
-1.60807e+13
-1.2384e+13
-1.58257e+13
-1.09021e+13
-1.05122e+13
-1.1585e+13
-1.21431e+13
-1.06996e+13
-1.0549e+13
-9.00099e+12
-1.19562e+13
-1.45206e+13
-1.27143e+13
-9.92083e+12
-1.44257e+13
-1.29975e+13
-1.54719e+13
-9.81087e+12
-1.24475e+13
-1.54757e+13
-1.027e+13
-1.03813e+13
-1.216e+13
-1.0471e+13
-1.4225e+13
-8.67666e+13
-1.21391e+14
-7.96566e+13
-2.1356e+14
-9.3979e+13
-1.01243e+14
-1.15723e+14
-1.13267e+14
-1.38473e+14
-1.46239e+14
-1.10872e+14
-2.31687e+14
-1.67096e+14
-1.4144e+14
-1.83246e+14
-1.50438e+14
-6.38317e+13
-7.20576e+13
-4.50228e+13
-1.13144e+14
-7.49425e+13
-6.29845e+13
-7.90822e+13
-6.52295e+13
-5.45522e+14
-4.15877e+14
-2.97094e+14
-9.31028e+14
-6.55764e+14
-4.3105e+14
-6.62336e+14
-4.09114e+14
-1.49899e+14
-9.29232e+13
-3.4573e+14
-2.91464e+14
-1.77379e+14
-1.50866e+14
-2.53372e+14
-2.42059e+14
-1.29747e+14
-2.27663e+14
-9.58777e+13
-8.02953e+13
-1.37536e+14
-1.65331e+14
-9.3975e+13
-1.23173e+14
-1.02789e+14
-3.71544e+14
-3.28196e+14
-2.05486e+14
-1.68844e+14
-2.47941e+14
-2.00695e+14
-3.02431e+14
-8.397e+13
-1.47153e+14
-2.36814e+14
-9.93932e+13
-1.09649e+14
-1.53707e+14
-1.26496e+14
-1.70915e+14
-2.53701e+14
-1.50608e+14
-2.24817e+14
-3.51994e+14
-2.36203e+14
-1.8351e+14
-2.95408e+14
-2.28952e+14
-8.38701e+13
-4.79931e+13
-7.48357e+13
-1.19394e+14
-7.54202e+13
-5.65164e+13
-9.51114e+13
-7.14994e+13
-1.94903e+14
-1.18106e+14
-1.76783e+14
-2.72959e+14
-1.79645e+14
-1.26082e+14
-2.14224e+14
-1.73671e+14
-5.30651e+14
-3.04875e+14
-4.69034e+14
-8.129e+14
-4.81129e+14
-3.56828e+14
-6.70235e+14
-4.92655e+14
-1.38314e+14
-2.11084e+14
-3.2722e+14
-1.91336e+14
-1.79854e+14
-2.12043e+14
-2.11135e+14
-2.56399e+14
-1.01571e+14
-1.45237e+14
-8.85764e+13
-1.61149e+14
-1.33765e+14
-1.18328e+14
-1.35286e+14
-1.19101e+14
-2.60221e+14
-4.3654e+14
-2.52827e+14
-3.81383e+14
-3.22232e+14
-3.27689e+14
-3.0736e+14
-3.03591e+14
-2.05897e+14
-2.93989e+14
-1.83506e+14
-1.12963e+14
-1.7792e+14
-2.08506e+14
-1.46343e+14
-1.72644e+14
-1.52067e+14
-1.21492e+14
-1.63047e+14
-1.56885e+14
-1.39976e+14
-1.31942e+14
-1.69115e+14
-1.46882e+14
-8.90187e+13
-5.8645e+13
-8.53882e+13
-9.47709e+13
-8.62505e+13
-6.92916e+13
-9.91624e+13
-8.37253e+13
-1.53636e+14
-1.09315e+14
-1.40376e+14
-1.67662e+14
-1.38404e+14
-1.25664e+14
-1.54003e+14
-1.39629e+14
-1.97109e+14
-1.50763e+14
-2.03427e+14
-2.54236e+14
-1.84147e+14
-1.82581e+14
-2.01709e+14
-1.92626e+14
-1.1453e+14
-1.43683e+14
-1.54553e+14
-1.24133e+14
-1.29965e+14
-1.28841e+14
-1.24714e+14
-1.46243e+14
-9.94343e+13
-1.10789e+14
-9.77249e+13
-1.26937e+14
-1.13981e+14
-1.06301e+14
-1.16275e+14
-1.11426e+14
-1.61714e+14
-1.83692e+14
-1.47222e+14
-1.81329e+14
-1.77017e+14
-1.60918e+14
-1.59056e+14
-1.56375e+14
-1.44801e+14
-1.60023e+14
-1.24469e+14
-1.09277e+14
-1.28841e+14
-1.42169e+14
-1.25366e+14
-1.24899e+14
-2.13754e+14
-1.42755e+14
-1.31053e+14
-2.03598e+14
-1.90591e+14
-1.62272e+14
-1.78279e+14
-1.56927e+14
-9.31873e+13
-6.0269e+13
-5.86772e+13
-7.9323e+13
-8.27204e+13
-6.79651e+13
-8.05965e+13
-6.70532e+13
-8.53211e+13
-5.71577e+13
-5.68497e+13
-8.37587e+13
-8.39338e+13
-7.1751e+13
-7.56969e+13
-6.9371e+13
-1.78213e+14
-1.14797e+14
-1.10167e+14
-1.42342e+14
-1.54547e+14
-1.22918e+14
-1.39776e+14
-1.21443e+14
-1.28398e+14
-1.27417e+14
-1.75528e+14
-1.15875e+14
-1.19953e+14
-1.27155e+14
-1.29565e+14
-1.44811e+14
-1.03918e+14
-9.34062e+13
-6.84138e+13
-1.05365e+14
-1.02859e+14
-8.66724e+13
-8.96885e+13
-8.18443e+13
-1.1957e+14
-1.60915e+14
-1.0636e+14
-1.03865e+14
-1.22112e+14
-1.42484e+14
-1.14445e+14
-1.14241e+14
-1.04572e+14
-9.34986e+13
-9.13499e+13
-6.65977e+13
-8.34878e+13
-9.36351e+13
-7.68268e+13
-7.92153e+13
-1.15229e+13
-1.24659e+13
-1.08995e+13
-1.21099e+13
-1.15158e+13
-1.2279e+13
-1.1072e+13
-1.09405e+13
-1.37374e+13
-1.50873e+13
-1.34009e+13
-1.51503e+13
-1.40565e+13
-1.4795e+13
-1.41775e+13
-1.45147e+13
-1.37857e+13
-1.41833e+13
-2.2522e+13
-2.28673e+13
-1.43106e+13
-1.5181e+13
-2.00372e+13
-1.79027e+13
-1.4025e+13
-1.68717e+13
-2.13601e+13
-2.37259e+13
-1.72716e+13
-1.7703e+13
-2.27339e+13
-2.17545e+13
-1.30568e+13
-1.11891e+13
-1.25795e+13
-1.54172e+13
-1.28053e+13
-1.12835e+13
-1.30334e+13
-1.31268e+13
-1.32485e+13
-1.52195e+13
-1.41199e+13
-1.20525e+13
-1.29778e+13
-1.36985e+13
-1.19482e+13
-1.34106e+13
-1.39513e+13
-1.48183e+13
-1.56159e+13
-1.84691e+13
-1.11169e+13
-1.36186e+13
-1.49969e+13
-1.48348e+13
-1.33528e+13
-1.85356e+13
-1.61167e+13
-1.53466e+13
-1.51606e+13
-1.62622e+13
-1.50912e+13
-1.47972e+13
-4.98752e+13
-2.98998e+13
-5.38223e+13
-8.67154e+13
-4.39308e+13
-3.58382e+13
-6.00901e+13
-4.96608e+13
-1.96701e+13
-1.30264e+13
-2.43078e+13
-3.37551e+13
-2.06889e+13
-1.67596e+13
-2.64054e+13
-2.15545e+13
-5.60384e+13
-3.75914e+13
-4.98404e+13
-6.74319e+13
-5.41666e+13
-4.69414e+13
-6.04919e+13
-4.88257e+13
-1.17774e+14
-6.79227e+13
-9.40265e+13
-1.28774e+14
-9.5732e+13
-8.16981e+13
-1.15661e+14
-9.89329e+13
-3.31517e+13
-5.51932e+13
-6.97861e+13
-5.15926e+13
-4.29255e+13
-5.20711e+13
-5.00361e+13
-5.9826e+13
-2.71686e+13
-4.26073e+13
-3.2334e+13
-4.71921e+13
-3.37984e+13
-3.44797e+13
-3.64827e+13
-3.7467e+13
-6.63993e+13
-8.79609e+13
-6.15808e+13
-8.48212e+13
-8.26708e+13
-7.55087e+13
-7.36876e+13
-7.42441e+13
-5.62231e+13
-6.78765e+13
-4.81972e+13
-3.60018e+13
-5.3543e+13
-6.22683e+13
-4.39913e+13
-4.99745e+13
-1.58124e+15
-1.99282e+15
-2.22903e+15
-2.00338e+15
-1.83857e+15
-1.94987e+15
-2.04719e+15
-2.06213e+15
-2.32783e+15
-2.54056e+15
-3.90453e+15
-2.71816e+15
-2.7906e+15
-2.60351e+15
-3.42859e+15
-3.5474e+15
-3.80365e+15
-5.40892e+15
-8.266e+15
-9.48553e+15
-5.24646e+15
-5.14454e+15
-6.4098e+15
-7.33669e+15
-2.6945e+15
-3.7093e+15
-6.787e+15
-4.93209e+15
-3.65969e+15
-3.73193e+15
-5.15257e+15
-5.74561e+15
-2.31171e+15
-2.92137e+15
-2.56771e+15
-3.47014e+15
-2.60199e+15
-2.54382e+15
-2.78688e+15
-2.72186e+15
-2.30645e+15
-2.82212e+15
-3.88883e+15
-2.91078e+15
-2.81301e+15
-3.40464e+15
-3.03028e+15
-3.85195e+15
-3.45397e+15
-2.98538e+15
-4.1401e+15
-5.96307e+15
-3.64825e+15
-3.56205e+15
-4.91871e+15
-4.09695e+15
-3.78662e+15
-7.73144e+15
-4.95678e+15
-5.10269e+15
-4.62461e+15
-5.35213e+15
-4.60449e+15
-5.5303e+15
-1.69241e+15
-2.16805e+15
-2.02126e+15
-2.12137e+15
-1.88156e+15
-1.91805e+15
-1.91939e+15
-2.07536e+15
-2.76039e+15
-4.22758e+15
-3.91365e+15
-5.2666e+15
-3.3457e+15
-3.52888e+15
-3.7581e+15
-4.11064e+15
-2.3598e+15
-3.24808e+15
-2.57796e+15
-2.66177e+15
-2.80302e+15
-2.66408e+15
-3.18806e+15
-3.22342e+15
-2.87092e+15
-5.21753e+15
-3.72727e+15
-4.86619e+15
-3.8937e+15
-3.92902e+15
-4.55022e+15
-4.75791e+15
-2.50299e+15
-2.30954e+15
-2.64153e+15
-3.9968e+15
-2.65996e+15
-2.43203e+15
-3.11141e+15
-2.76623e+15
-2.43467e+15
-4.281e+15
-3.29099e+15
-2.29644e+15
-2.75939e+15
-3.16071e+15
-2.47487e+15
-3.05516e+15
-2.4173e+15
-2.84092e+15
-4.3365e+15
-4.05104e+15
-2.8485e+15
-2.96596e+15
-3.56714e+15
-3.6089e+15
-2.45479e+15
-3.97901e+15
-5.06993e+15
-3.6855e+15
-2.99431e+15
-3.33384e+15
-3.35509e+15
-4.01154e+15
-6.24078e+13
-6.66919e+13
-1.25826e+14
-1.19563e+14
-8.19787e+13
-6.8466e+13
-1.1473e+14
-9.26444e+13
-6.7506e+13
-6.08476e+13
-9.68066e+13
-8.38773e+13
-7.23047e+13
-6.94377e+13
-8.75994e+13
-8.17985e+13
-2.12661e+14
-1.5669e+14
-2.80572e+14
-2.4665e+14
-2.03442e+14
-1.91321e+14
-2.56342e+14
-2.24302e+14
-1.5382e+14
-1.15964e+14
-2.21701e+14
-1.59813e+14
-1.38861e+14
-1.46331e+14
-1.81231e+14
-1.76596e+14
-8.20972e+13
-1.40157e+14
-1.13506e+14
-9.82689e+13
-1.04288e+14
-1.14821e+14
-1.05537e+14
-1.13643e+14
-7.36173e+13
-9.98673e+13
-1.12137e+14
-1.28836e+14
-9.43435e+13
-9.814e+13
-1.1797e+14
-1.15e+14
-1.9088e+14
-1.50563e+14
-1.2438e+14
-2.30788e+14
-1.83829e+14
-1.48183e+14
-1.82149e+14
-1.43411e+14
-1.62194e+14
-2.1323e+14
-1.19931e+14
-1.33921e+14
-1.60598e+14
-1.76257e+14
-1.42365e+14
-1.34631e+14
-2.43351e+14
-2.62212e+14
-1.59601e+14
-2.24311e+14
-2.44763e+14
-2.28164e+14
-2.1266e+14
-1.96978e+14
-2.91488e+14
-2.81687e+14
-1.80249e+14
-2.52954e+14
-2.72876e+14
-2.48911e+14
-2.2427e+14
-2.1444e+14
-1.04473e+14
-1.07951e+14
-6.72387e+13
-8.43405e+13
-1.03839e+14
-9.70251e+13
-8.27495e+13
-8.03732e+13
-2.00297e+14
-2.17548e+14
-1.23977e+14
-1.60863e+14
-2.09036e+14
-1.85887e+14
-1.64023e+14
-1.512e+14
-2.70782e+14
-1.5972e+14
-2.33866e+14
-2.48137e+14
-2.24735e+14
-1.90291e+14
-2.54226e+14
-2.06664e+14
-2.53328e+14
-2.25845e+14
-1.60058e+14
-1.44538e+14
-2.16041e+14
-1.99261e+14
-1.68258e+14
-1.69824e+14
-1.34353e+14
-1.89207e+14
-2.02405e+14
-1.14568e+14
-1.44519e+14
-1.75034e+14
-1.48547e+14
-1.71139e+14
-1.23663e+14
-1.11124e+14
-1.79633e+14
-1.30367e+14
-1.26767e+14
-1.38686e+14
-1.43639e+14
-1.54164e+14
-2.33159e+13
-5.11816e+13
-4.80215e+13
-4.03799e+13
-3.25634e+13
-4.29863e+13
-3.82991e+13
-4.85371e+13
-8.01165e+13
-1.13472e+14
-1.20715e+14
-9.07109e+13
-8.40169e+13
-1.04443e+14
-8.78435e+13
-1.07085e+14
-7.81819e+13
-1.30882e+14
-1.38103e+14
-1.06222e+14
-9.71278e+13
-1.1209e+14
-1.05039e+14
-1.22359e+14
-5.00528e+13
-6.68891e+13
-8.14335e+13
-5.481e+13
-5.6582e+13
-6.69568e+13
-6.38799e+13
-6.99641e+13
-5.55292e+13
-5.82256e+13
-4.7971e+13
-6.99558e+13
-5.97745e+13
-5.28316e+13
-5.87432e+13
-5.76217e+13
-7.19039e+13
-7.91823e+13
-1.08879e+14
-7.00424e+13
-8.03027e+13
-8.43394e+13
-8.0671e+13
-9.28087e+13
-6.37464e+13
-5.33322e+13
-7.56641e+13
-8.10444e+13
-6.84774e+13
-6.19935e+13
-7.66349e+13
-6.55222e+13
-7.99956e+13
-9.41579e+13
-8.77694e+13
-1.16445e+14
-8.73624e+13
-8.73949e+13
-9.8133e+13
-9.37869e+13
-1.73199e+13
-3.31986e+13
-2.5345e+13
-2.14751e+13
-2.38903e+13
-3.16617e+13
-2.31978e+13
-2.90889e+13
-6.91839e+13
-1.08379e+14
-7.91599e+13
-6.43046e+13
-7.96408e+13
-1.0009e+14
-7.67176e+13
-9.09087e+13
-3.25807e+13
-5.15801e+13
-3.01207e+13
-2.95103e+13
-3.81282e+13
-4.56184e+13
-3.30636e+13
-3.77281e+13
-2.48354e+13
-3.72776e+13
-2.52909e+13
-2.45098e+13
-3.02557e+13
-3.68163e+13
-2.52783e+13
-2.99235e+13
-4.85947e+13
-3.4404e+13
-2.91201e+13
-4.8495e+13
-4.34417e+13
-3.37841e+13
-3.89785e+13
-3.66164e+13
-6.16269e+13
-6.00594e+13
-6.9533e+13
-4.31621e+13
-5.47985e+13
-5.91788e+13
-4.96298e+13
-5.51504e+13
-3.01234e+13
-2.42844e+13
-4.37043e+13
-2.93365e+13
-2.75892e+13
-3.00449e+13
-3.38411e+13
-3.55315e+13
-3.59868e+13
-3.32488e+13
-5.12945e+13
-6.29963e+13
-4.03303e+13
-4.01584e+13
-5.0005e+13
-4.63229e+13
-1.90112e+13
-1.18273e+13
-1.4121e+13
-2.17873e+13
-1.77805e+13
-1.40171e+13
-1.83912e+13
-1.52528e+13
-7.62165e+12
-6.06369e+12
-6.19293e+12
-9.59036e+12
-6.62659e+12
-6.24152e+12
-6.86795e+12
-6.36704e+12
-1.05734e+13
-6.54049e+12
-7.31401e+12
-1.15159e+13
-9.33919e+12
-6.8933e+12
-1.00453e+13
-7.75379e+12
-2.3509e+13