/*--------------------------------*- C++ -*----------------------------------*\
| =========                 |                                                 |
| \\      /  F ield         | OpenFOAM: The Open Source CFD Toolbox           |
|  \\    /   O peration     | Version:  2506                                  |
|   \\  /    A nd           | Website:  www.openfoam.com                      |
|    \\/     M anipulation  |                                                 |
\*---------------------------------------------------------------------------*/
FoamFile
{
    version     2.0;
    format      ascii;
    arch        "LSB;label=32;scalar=64";
    class       volVectorField;
    location    "200";
    object      U;
}
// * * * * * * * * * * * * * * * * * * * * * * * * * * * * * * * * * * * * * //

dimensions      [0 1 -1 0 0 0 0];

internalField   nonuniform List<vector> 
60096
(
(0.0564464 0.758646 2.27643)
(0.126528 0.244363 1.45697)
(0.182167 0.332136 1.47331)
(0.0450111 0.370558 1.52071)
(0.306443 0.283859 1.68044)
(0.25168 0.281361 1.6389)
(0.260324 0.46474 1.67998)
(0.123532 0.27285 1.44438)
(0.0765549 0.147109 1.29804)
(0.0748909 0.112293 1.22677)
(0.123812 0.137396 1.2099)
(0.146382 0.158675 1.33261)
(0.140984 0.105868 1.29474)
(0.11381 0.117532 1.24273)
(0.154392 0.161696 1.27447)
(0.103395 0.139039 1.23355)
(0.135418 0.190878 1.14622)
(0.123824 0.141382 1.13588)
(0.0750197 0.0951925 1.03207)
(0.174594 0.210023 1.15852)
(0.178671 0.192719 1.15715)
(0.118504 0.140168 1.08362)
(0.15039 0.184147 1.13076)
(0.0958855 0.122586 1.05532)
(0.177985 0.303912 1.50977)
(0.19535 0.26004 1.42662)
(0.23648 0.273902 1.39135)
(0.318366 0.274789 1.67758)
(0.283162 0.301338 1.54252)
(0.244325 0.245374 1.45678)
(0.281111 0.309246 1.51766)
(0.222331 0.285644 1.45182)
(0.198629 0.0996829 1.41952)
(0.203911 0.236921 1.33526)
(0.20883 0.206573 1.56176)
(0.21535 0.196478 1.39271)
(0.214086 0.198545 1.39622)
(0.185319 0.22877 1.37238)
(0.189792 0.211485 1.43633)
(0.198361 0.24349 1.45512)
(0.131582 0.122265 1.36886)
(0.1628 0.163341 1.30995)
(0.12654 0.131272 1.17733)
(0.144642 0.212197 1.27525)
(0.143966 0.178595 1.32593)
(0.176315 0.155914 1.27313)
(0.170457 0.210933 1.29586)
(0.17717 0.175719 1.2348)
(0.181977 0.249492 1.23934)
(0.264457 0.314388 1.53908)
(0.213397 0.232594 1.40061)
(0.228293 0.282787 1.28222)
(0.229221 0.301034 1.37423)
(0.226045 0.278729 1.45829)
(0.240739 0.288796 1.33416)
(0.246317 0.247694 1.3854)
(0.161258 0.184386 1.18605)
(0.158543 0.227649 1.21954)
(0.160751 0.201783 1.31782)
(0.123806 0.14711 1.14802)
(0.183646 0.213024 1.20361)
(0.196019 0.19733 1.25448)
(0.157222 0.205353 1.22578)
(0.182253 0.194799 1.28656)
(-0.168898 0.136176 1.64468)
(-0.185622 0.0689426 1.69014)
(-0.111873 0.176367 1.54043)
(-0.18805 0.172219 1.66396)
(-0.178444 0.147492 1.6474)
(-0.184496 0.124725 1.68314)
(-0.179598 0.163181 1.66088)
(-0.176616 0.132617 1.68984)
(-0.133867 -0.0321025 1.69571)
(-0.0126309 -0.131688 1.863)
(-0.115696 0.0584272 1.6676)
(-0.149032 0.0463216 1.76197)
(-0.131718 -0.0701584 1.69136)
(-0.150237 -0.0636909 1.72748)
(-0.164384 0.0492551 1.74229)
(-0.138987 -0.00584826 1.7666)
(-0.1273 0.125915 1.34588)
(-0.140167 0.0821418 1.36188)
(-0.129714 0.110318 1.23513)
(-0.175557 0.174621 1.29494)
(-0.143534 0.135533 1.3471)
(-0.115867 0.101636 1.40048)
(-0.143889 0.154485 1.31137)
(-0.121026 0.125666 1.34967)
(-0.203351 0.210108 1.66982)
(-0.216729 0.191204 1.74084)
(-0.183371 0.278495 1.50028)
(-0.239152 0.262282 1.63311)
(-0.220045 0.223564 1.65363)
(-0.232829 0.216263 1.74025)
(-0.240561 0.255738 1.64981)
(-0.230872 0.246781 1.73084)
(-0.191456 0.0720393 1.68489)
(-0.119529 0.190576 1.55248)
(-0.191076 0.17757 1.66242)
(-0.202739 0.115032 1.71796)
(-0.185857 0.0937929 1.71088)
(-0.188056 0.137063 1.6988)
(-0.195506 0.110332 1.70578)
(-0.208079 0.165368 1.72226)
(-0.179882 0.0773067 1.71734)
(-0.19965 0.107357 1.74405)
(-0.0939107 0.0857423 1.64251)
(-0.119152 0.176216 1.5562)
(-0.182938 0.0825531 1.72228)
(-0.180663 0.0851094 1.72763)
(-0.115071 0.146754 1.59637)
(-0.127599 0.135035 1.61036)
(-0.124048 0.196521 1.55706)
(-0.201115 0.202022 1.67895)
(-0.223623 0.17067 1.71667)
(-0.158058 0.244839 1.50557)
(-0.1332 0.225277 1.5535)
(-0.202663 0.191013 1.73084)
(-0.14482 0.228613 1.54884)
(-0.216294 0.190474 1.73244)
(-0.132114 0.191515 1.56797)
(-0.155175 0.245067 1.53723)
(-0.193848 0.147649 1.74941)
(-0.0975832 0.108801 1.63164)
(-0.134822 0.194543 1.57497)
(-0.132167 0.236776 1.57184)
(-0.10926 0.171538 1.58429)
(-0.136708 0.243118 1.57064)
(-0.0779293 -0.106849 1.56514)
(-0.0549659 -0.0904363 1.44196)
(-0.140758 -0.0967356 1.57634)
(-0.0991432 -0.0934768 1.61154)
(-0.0715721 -0.0967367 1.5685)
(-0.0959107 -0.100439 1.51702)
(-0.109105 -0.0971974 1.60532)
(-0.130771 -0.0982265 1.55778)
(-0.0604891 -0.0609912 1.28089)
(-0.0708996 -0.0883118 1.22295)
(-0.179833 -0.0389512 1.3527)
(-0.06531 -0.100126 1.24978)
(-0.0542471 -0.0568551 1.28804)
(-0.100209 -0.101246 1.34032)
(-0.11585 -0.0920809 1.26656)
(-0.137618 -0.140799 1.35228)
(-0.20693 -0.0941915 1.52261)
(-0.186636 -0.0422044 1.60774)
(-0.28372 -0.0690129 1.76131)
(-0.214405 -0.02526 1.59802)
(-0.173357 -0.0622947 1.56487)
(-0.189673 -0.0167834 1.57575)
(-0.207579 -0.0564766 1.55879)
(-0.192401 0.00448731 1.56426)
(-0.140755 -0.0996628 1.63198)
(-0.0801094 -0.174392 1.41174)
(-0.176042 -0.140097 1.69118)
(-0.149325 -0.175595 1.59567)
(-0.135053 -0.0779851 1.63037)
(-0.174758 -0.0968819 1.64695)
(-0.178387 -0.163163 1.64305)
(-0.205127 -0.144474 1.68003)
(-0.0592034 -0.0821787 1.45826)
(-0.146014 -0.0899001 1.57912)
(-0.0997733 -0.0859348 1.6108)
(-0.0769399 -0.0910314 1.46582)
(-0.0986779 -0.109197 1.46525)
(-0.134513 -0.103245 1.56039)
(-0.0742002 -0.0950844 1.45875)
(-0.127134 -0.094416 1.58212)
(-0.0975716 -0.0936714 1.44432)
(-0.132855 -0.11949 1.50595)
(-0.156938 -0.123061 1.5341)
(-0.155802 -0.0992271 1.55644)
(-0.136563 -0.109336 1.50232)
(-0.140453 -0.128966 1.46791)
(-0.129378 -0.10505 1.49995)
(-0.128436 -0.104557 1.51458)
(-0.16904 -0.095974 1.6096)
(-0.144247 -0.101422 1.62674)
(-0.116162 -0.15971 1.45441)
(-0.182544 -0.11201 1.66856)
(-0.167678 -0.0936409 1.62468)
(-0.167936 -0.100404 1.62623)
(-0.174712 -0.0975497 1.63666)
(-0.174005 -0.11984 1.61866)
(-0.17965 -0.0889943 1.61087)
(-0.173051 -0.13946 1.66263)
(-0.157491 -0.164872 1.53941)
(-0.181654 -0.162292 1.56974)
(-0.181041 -0.0921875 1.62148)
(-0.180345 -0.104057 1.64367)
(-0.174154 -0.118551 1.52104)
(-0.157256 -0.137679 1.50695)
(0.0588899 -0.0733309 1.02764)
(0.0816774 -0.120517 1.10183)
(0.0758052 -0.187746 1.14196)
(0.128223 -0.164746 1.14554)
(0.0704489 -0.110557 1.05531)
(0.070834 -0.108971 1.06173)
(0.0936687 -0.135745 1.13485)
(0.109736 -0.139089 1.126)
(0.0664923 -0.109408 1.16619)
(0.0301153 -0.0424242 1.20764)
(0.0224808 -0.106235 1.31437)
(0.0646106 -0.108517 1.24109)
(0.062499 -0.105512 1.18799)
(0.0611592 -0.0552915 1.20398)
(0.0855034 -0.110492 1.24014)
(0.0388388 -0.071557 1.3033)
(0.0826773 -0.307633 1.40579)
(0.0451657 -0.343799 1.4682)
(-0.0673962 -0.792996 2.04266)
(0.0116193 -0.44607 1.56109)
(0.102487 -0.259286 1.35827)
(0.0686307 -0.369326 1.57071)
(0.120253 -0.411514 1.69043)
(0.202699 -0.260499 1.67741)
(0.179037 -0.234359 1.38582)
(0.113025 -0.163866 1.39038)
(-0.00110594 -0.283984 1.50699)
(0.151909 -0.181927 1.62764)
(0.155319 -0.22208 1.4601)
(0.150972 -0.175565 1.4416)
(0.121195 -0.233196 1.46408)
(0.0642427 -0.214088 1.49085)
(0.0743065 -0.120866 1.13299)
(0.103384 -0.143522 1.18657)
(0.116604 -0.185103 1.21282)
(0.0848642 -0.13838 1.27073)
(0.0807714 -0.149492 1.18807)
(0.114948 -0.15066 1.18181)
(0.093547 -0.140879 1.23487)
(0.116137 -0.13819 1.22518)
(0.0647692 -0.110232 1.13777)
(0.0759155 -0.128208 1.26529)
(0.0509855 -0.124596 1.37235)
(0.0596732 -0.19604 1.24224)
(0.0819608 -0.136193 1.20076)
(0.0690146 -0.118616 1.2541)
(0.0712539 -0.218285 1.28594)
(0.056989 -0.165854 1.32025)
(0.0886886 -0.214612 1.24127)
(0.145055 -0.210077 1.28345)
(0.12546 -0.136068 1.32914)
(0.107632 -0.226212 1.54147)
(0.109957 -0.209228 1.38336)
(0.149148 -0.194236 1.32414)
(0.0970489 -0.171036 1.3855)
(0.125659 -0.160062 1.36522)
(0.0861356 -0.209242 1.34036)
(0.0599952 -0.195695 1.49435)
(0.0928804 -0.109308 1.36644)
(0.0942618 -0.0808554 1.41654)
(0.0841464 -0.248926 1.36647)
(0.0948373 -0.152919 1.41004)
(0.0888583 -0.213522 1.38519)
(0.0438494 -0.135178 1.32671)
(-0.149339 -0.795797 2.23243)
(-0.113585 -0.379389 1.39089)
(-0.153703 -0.41012 1.5221)
(-0.0433133 -0.496819 1.71237)
(-0.296555 -0.489606 1.80372)
(-0.222222 -0.38126 1.61056)
(-0.282776 -0.567827 1.83097)
(-0.108218 -0.379816 1.51453)
(-0.0515342 -0.185877 1.18475)
(-0.0544448 -0.0905304 1.17867)
(-0.0858334 -0.120269 1.1768)
(-0.0707595 -0.103476 1.29408)
(-0.0667581 -0.105871 1.28537)
(-0.0866074 -0.0875083 1.19092)
(-0.0845376 -0.149186 1.24451)
(-0.0809768 -0.0975632 1.20475)
(-0.0942227 -0.210874 1.14972)
(-0.0853624 -0.125783 1.09072)
(-0.0497911 -0.0603831 1.0151)
(-0.100111 -0.158228 1.11586)
(-0.108675 -0.15127 1.10768)
(-0.0795562 -0.11245 1.05465)
(-0.0811887 -0.129356 1.08012)
(-0.069911 -0.0725809 1.03779)
(-0.105473 -0.294937 1.58498)
(-0.138972 -0.179998 1.39419)
(-0.132176 -0.187563 1.33326)
(-0.20561 -0.1807 1.62237)
(-0.17954 -0.200132 1.46478)
(-0.151358 -0.171204 1.40196)
(-0.178027 -0.221255 1.46268)
(-0.139628 -0.168798 1.36819)
(-0.188402 -0.186837 1.36515)
(-0.168773 -0.324398 1.36327)
(-0.154728 -0.284657 1.61591)
(-0.128703 -0.135709 1.35817)
(-0.175563 -0.3006 1.4148)
(-0.159376 -0.344281 1.44215)
(-0.173058 -0.148201 1.43381)
(-0.149871 -0.316041 1.48162)
(-0.138034 -0.150904 1.27845)
(-0.0939563 -0.108609 1.26395)
(-0.0868174 -0.115465 1.14602)
(-0.123194 -0.215799 1.19574)
(-0.123482 -0.218263 1.2173)
(-0.0926872 -0.16326 1.22792)
(-0.142025 -0.219306 1.23205)
(-0.116172 -0.149304 1.20068)
(-0.148652 -0.34158 1.34627)
(-0.212045 -0.320186 1.5892)
(-0.145035 -0.214053 1.3483)
(-0.151301 -0.205057 1.23676)
(-0.158399 -0.304467 1.43124)
(-0.135917 -0.289722 1.48705)
(-0.155455 -0.222288 1.29522)
(-0.13843 -0.230358 1.34289)
(-0.110979 -0.207167 1.17302)
(-0.0922226 -0.142176 1.17469)
(-0.10401 -0.150301 1.24188)
(-0.0971114 -0.100369 1.12126)
(-0.097562 -0.18979 1.14753)
(-0.108233 -0.167161 1.19472)
(-0.0936002 -0.177314 1.1597)
(-0.109133 -0.180426 1.21131)
(-0.051566 -0.000143717 1.42401)
(-0.104655 0.00959949 1.42108)
(-0.057657 -0.0623124 1.54381)
(-0.0667959 0.0340244 1.3736)
(-0.0595586 0.0105584 1.39099)
(-0.0793668 -0.0376759 1.43203)
(-0.0527911 0.0124939 1.40394)
(-0.084601 -0.0468234 1.44689)
(-0.117975 0.102262 1.54406)
(-0.16444 0.126681 1.64403)
(-0.166277 0.0392431 1.67675)
(-0.105962 0.162124 1.54876)
(-0.139111 0.130062 1.56324)
(-0.166594 0.086371 1.65356)
(-0.124411 0.131111 1.55298)
(-0.174853 0.0866095 1.66126)
(-0.0970937 -0.110674 1.64983)
(-0.155013 -0.112879 1.66906)
(-0.0761158 -0.178029 1.81655)
(-0.117042 0.0162746 1.63945)
(-0.101046 -0.0595057 1.65302)
(-0.158043 -0.215361 1.65193)
(-0.111413 -0.0487808 1.67)
(-0.201604 -0.238296 1.6934)
(-0.0831268 0.0776173 1.332)
(-0.114264 0.116156 1.35606)
(-0.113531 0.0684855 1.37956)
(-0.117544 0.103659 1.23231)
(-0.0816388 0.076843 1.31795)
(-0.116166 0.0797297 1.41487)
(-0.0920101 0.0854623 1.29792)
(-0.113584 0.084502 1.39376)
(-0.104801 0.0395594 1.40887)
(-0.0792851 -0.0294387 1.50535)
(-0.0717971 0.0388088 1.35964)
(-0.106474 0.0787198 1.39407)
(-0.10196 0.0268527 1.40597)
(-0.0815035 -0.0280456 1.42418)
(-0.114159 0.052563 1.40435)
(-0.0928178 0.00167016 1.40555)
(-0.105623 0.0598538 1.54604)
(-0.109186 0.108669 1.56063)
(-0.169131 -0.00240231 1.6689)
(-0.0796492 -0.0827225 1.58019)
(-0.0951025 0.0521851 1.5525)
(-0.120361 0.101517 1.57899)
(-0.0978212 -0.0136798 1.56712)
(-0.116052 0.0321964 1.59976)
(-0.0564719 -0.0294608 1.52478)
(-0.0732156 0.0500233 1.36559)
(-0.120057 0.0764138 1.38379)
(-0.0977796 0.0174768 1.45688)
(-0.0778707 -0.0114989 1.49513)
(-0.092334 0.0023426 1.42525)
(-0.0836004 0.000890133 1.4641)
(-0.096314 0.0306543 1.41164)
(-0.0868382 -0.0791418 1.60139)
(-0.1013 0.0236365 1.6443)
(-0.116065 0.124644 1.56246)
(-0.1782 -0.0251337 1.67232)
(-0.0828559 -0.053767 1.63091)
(-0.0966034 0.0238661 1.64037)
(-0.10099 0.0223583 1.58556)
(-0.109559 0.0996291 1.59498)
(0.0072775 0.0453258 1.00633)
(0.0241904 0.0474125 1.00183)
(0.0503837 0.148236 1.05775)
(0.03167 0.104224 1.04976)
(0.0148885 0.0497773 1.0187)
(0.0131059 0.0601303 1.01147)
(0.0372081 0.0979295 1.02994)
(0.0426834 0.0806118 1.04189)
(0.0336375 0.055826 1.0017)
(0.0555387 0.046495 0.992173)
(0.112269 0.143906 1.12191)
(0.102237 0.123139 1.08288)
(0.0528292 0.0573492 1.0445)
(0.0605569 0.0521851 1.01211)
(0.102814 0.117225 1.05017)
(0.0976096 0.111417 1.03952)
(0.0992103 0.337585 1.26789)
(0.225515 0.339953 1.37582)
(0.22825 0.591933 1.89121)
(0.167129 0.263634 1.60305)
(0.126413 0.298883 1.35202)
(0.120909 0.43922 1.50773)
(0.179757 0.316796 1.53369)
(0.302626 0.261287 1.69554)
(0.0611051 0.11539 1.1447)
(0.0955191 0.150071 1.16854)
(0.108891 0.156163 1.30805)
(0.0747388 0.103652 1.21898)
(0.0598471 0.114558 1.16843)
(0.0880785 0.129941 1.18031)
(0.08172 0.114084 1.20908)
(0.111905 0.111823 1.22499)
(0.0303826 0.0568519 1.04044)
(0.0655169 0.134284 1.1121)
(0.0427672 0.100346 1.09212)
(0.0694124 0.119592 1.11369)
(0.0609079 0.107188 1.03587)
(0.0454225 0.107525 1.06979)
(0.0696031 0.124587 1.06138)
(0.0518019 0.125798 1.07886)
(0.0370995 0.0586327 1.00988)
(0.0868339 0.140093 1.09879)
(0.0916529 0.19593 1.13792)
(0.0484137 0.195778 1.13388)
(0.0536385 0.104759 1.03574)
(0.0864769 0.125332 1.07219)
(0.0862879 0.130464 1.06549)
(0.0950422 0.131023 1.13259)
(0.0881304 0.196214 1.15636)
(0.0611772 0.128791 1.12561)
(0.10241 0.147264 1.14102)
(0.100007 0.155399 1.31384)
(0.0837415 0.196566 1.20293)
(0.0698874 0.129708 1.11643)
(0.0763476 0.172725 1.23735)
(0.083471 0.110432 1.17536)
(0.11283 0.173383 1.19252)
(0.143896 0.155859 1.33702)
(0.120755 0.145154 1.13602)
(0.129553 0.216957 1.23588)
(0.110895 0.175262 1.27747)
(0.108539 0.191155 1.28943)
(0.124956 0.196897 1.17514)
(0.135844 0.183485 1.18484)
(-0.290567 -0.104818 1.71064)
(-0.16142 0.059465 1.51402)
(-0.268769 0.0767436 1.67098)
(-0.214551 0.024717 1.84456)
(-0.183886 0.0647585 1.82502)
(-0.175658 0.00668188 1.56366)
(-0.290662 0.142602 1.91575)
(-0.291306 0.111792 1.71457)
(-0.0987327 0.0117853 1.27262)
(-0.0551093 -0.0533531 1.20557)
(-0.0759977 -0.0311373 1.26561)
(-0.0453234 -0.0200839 1.18378)
(-0.10406 -0.0615436 1.30437)
(-0.0752559 -0.053618 1.27211)
(-0.0922129 -0.0474924 1.26201)
(-0.0662923 -0.0380082 1.26545)
(-0.155386 0.0256124 1.4833)
(-0.100471 0.0170685 1.28985)
(-0.120922 0.0369453 1.33993)
(-0.10113 0.0243655 1.3719)
(-0.126583 0.0159955 1.37317)
(-0.0983163 0.011115 1.32755)
(-0.11348 0.0212731 1.37367)
(-0.115543 0.029705 1.33211)
(-0.168985 -0.0147669 1.58804)
(-0.0976169 0.0239371 1.23026)
(-0.106866 0.0255752 1.34137)
(-0.0943352 0.0300122 1.26107)
(-0.109093 -0.0189776 1.4174)
(-0.0712235 -0.0110528 1.31976)
(-0.120705 0.0314748 1.40911)
(-0.108379 0.0216136 1.34911)
(-0.169294 0.00561475 1.51012)
(-0.192272 0.073942 1.55611)
(-0.138659 0.0392936 1.73684)
(-0.0901882 -0.0509999 1.38305)
(-0.163387 -0.0231297 1.47741)
(-0.183771 0.0725139 1.52826)
(-0.095402 -0.0124949 1.33965)
(-0.107009 0.00912101 1.53512)
(-0.124005 0.0167305 1.36818)
(-0.0627824 -0.0332584 1.30233)
(-0.0793557 -0.0176355 1.30189)
(-0.164128 0.0123598 1.43946)
(-0.135497 -0.00868152 1.41621)
(-0.094771 -0.0180636 1.31109)
(-0.152092 0.0122571 1.42656)
(-0.105316 -0.0185575 1.33897)
(-0.17168 0.0884427 1.58582)
(-0.176353 0.0650823 1.7183)
(-0.111346 -0.01632 1.34981)
(-0.116757 0.0295679 1.40614)
(-0.172512 0.037704 1.58381)
(-0.166318 0.0434352 1.60157)
(-0.115768 0.0012091 1.4178)
(-0.0903951 0.0105042 1.3797)
(-0.154998 0.0488324 1.49161)
(-0.109438 0.0214124 1.37196)
(-0.106709 0.00191433 1.30646)
(-0.095896 0.00245729 1.29843)
(-0.103291 0.020435 1.34738)
(-0.0953733 -0.000329999 1.35658)
(-0.098155 0.0216268 1.31442)
(-0.101238 0.00301302 1.297)
(-0.109267 0.00257885 1.29853)
(-0.169676 0.0312012 1.36268)
(-0.10676 -0.0320023 1.3226)
(-0.091873 -0.00288718 1.27329)
(-0.102896 -0.00846248 1.28022)
(-0.136855 -0.00565293 1.32429)
(-0.0874577 -0.00458679 1.2577)
(-0.119564 -0.00394467 1.30703)
(-0.206435 0.0493214 1.4956)
(-0.427834 0.0298868 1.67902)
(-0.169592 -0.0491153 1.48262)
(-0.171062 -1.31825e-05 1.54906)
(-0.167417 -0.00619926 1.4911)
(-0.285913 0.000834361 1.5659)
(-0.129732 -0.0119882 1.53839)
(-0.148968 -0.0107463 1.50676)
(-0.103767 -0.109248 1.44294)
(-0.15849 -0.105713 1.54651)
(-0.0878911 -0.109119 1.54007)
(-0.0907394 -0.0964475 1.46297)
(-0.10626 -0.107281 1.44406)
(-0.119799 -0.111999 1.51365)
(-0.0904495 -0.088001 1.44679)
(-0.0871609 -0.102208 1.49868)
(-0.0814769 -0.0455151 1.25559)
(-0.167181 -0.0446079 1.30896)
(-0.077651 -0.0727025 1.31031)
(-0.0851993 -0.0782001 1.22913)
(-0.0721099 -0.0451729 1.25538)
(-0.109445 -0.0725433 1.37706)
(-0.0791307 -0.0762101 1.23641)
(-0.0913315 -0.0888245 1.34869)
(-0.154912 0.0276436 1.35062)
(-0.123621 -0.0529182 1.34179)
(-0.0892161 -0.00759047 1.2687)
(-0.132248 0.00626413 1.36873)
(-0.144993 0.000576389 1.37733)
(-0.127499 0.0039035 1.3372)
(-0.147197 0.00756272 1.37555)
(-0.122975 -0.00806382 1.32351)
(-0.173969 0.00437474 1.46673)
(-0.154458 -0.0465727 1.53696)
(-0.148732 -0.0850388 1.49924)
(-0.136093 -0.0787573 1.44186)
(-0.150971 -0.0254268 1.49928)
(-0.15285 -0.031305 1.53308)
(-0.152282 -0.049968 1.47628)
(-0.153392 -0.0885995 1.4967)
(-0.0996108 -0.063338 1.31257)
(-0.0840911 -0.0420699 1.25649)
(-0.16462 -0.0532571 1.34673)
(-0.0790842 -0.0717607 1.3049)
(-0.104368 -0.0622053 1.32137)
(-0.115645 -0.054682 1.35225)
(-0.10786 -0.0604444 1.31482)
(-0.119546 -0.0596934 1.367)
(-0.125129 -0.108237 1.44547)
(-0.0935455 -0.0995963 1.44097)
(-0.166698 -0.10439 1.55447)
(-0.157138 -0.103503 1.55896)
(-0.130649 -0.108055 1.46407)
(-0.117589 -0.091012 1.4296)
(-0.158262 -0.116651 1.5197)
(-0.155547 -0.10371 1.52281)
(-0.0232558 -0.0504985 1.01899)
(-0.0452336 -0.0956124 1.06107)
(-0.0743609 -0.138993 1.08173)
(-0.0494692 -0.0816283 1.05183)
(-0.0190216 -0.0419901 1.02166)
(-0.0386579 -0.0794967 1.03244)
(-0.0377339 -0.0812001 1.03186)
(-0.0468464 -0.0916467 1.05323)
(-0.0635983 -0.103746 1.1301)
(-0.0562408 -0.0751534 1.19677)
(-0.115889 -0.167507 1.24232)
(-0.06488 -0.0811959 1.18733)
(-0.063449 -0.0884009 1.14982)
(-0.061353 -0.0955477 1.16466)
(-0.0693428 -0.105981 1.15276)
(-0.0799288 -0.112516 1.17449)
(-0.199937 -0.266378 1.29287)
(-0.231657 -0.312701 1.41918)
(-0.428999 -0.786181 1.81401)
(-0.305485 -0.307191 1.39858)
(-0.181989 -0.189964 1.20591)
(-0.173409 -0.245953 1.3546)
(-0.107767 -0.328017 1.5141)
(-0.0566222 -0.34348 1.64929)
(-0.059454 -0.112418 1.14704)
(-0.060116 -0.0836635 1.17449)
(-0.109425 -0.130928 1.17945)
(-0.0310711 -0.0900438 1.1982)
(-0.0489304 -0.0903475 1.15836)
(-0.0527695 -0.107461 1.17977)
(-0.0647895 -0.12327 1.17969)
(-0.0489409 -0.107156 1.19054)
(-0.0407548 -0.0796675 1.0748)
(-0.0673206 -0.115337 1.08817)
(-0.0409197 -0.0690075 1.04944)
(-0.0528857 -0.0885467 1.11444)
(-0.0502268 -0.109884 1.0867)
(-0.0536799 -0.119906 1.07234)
(-0.0503516 -0.100808 1.11337)
(-0.0417877 -0.0950802 1.08489)
(-0.059676 -0.0929524 1.10634)
(-0.0646282 -0.0852468 1.1507)
(-0.105103 -0.139089 1.24669)
(-0.0859037 -0.148249 1.13255)
(-0.0678406 -0.109916 1.12114)
(-0.0677068 -0.104455 1.15177)
(-0.0840936 -0.160914 1.18516)
(-0.0844159 -0.141611 1.18424)
(-0.0902189 -0.196794 1.11622)
(-0.0376734 -0.1216 1.09073)
(-0.0589281 -0.114353 1.1477)
(-0.0894058 -0.208934 1.29451)
(-0.103586 -0.166682 1.15793)
(-0.0522945 -0.133025 1.11248)
(-0.0909831 -0.14259 1.1743)
(-0.0526022 -0.136623 1.15735)
(-0.0770163 -0.171686 1.17402)
(-0.0935902 -0.203602 1.32518)
(-0.0617402 -0.0999081 1.15377)
(-0.116818 -0.188867 1.25832)
(-0.0986688 -0.204925 1.19825)
(-0.10872 -0.178823 1.19684)
(-0.11457 -0.191747 1.24419)
(-0.108849 -0.133015 1.20091)
(-0.0487052 -0.000120448 1.44651)
(-0.0536131 0.0330407 1.40676)
(-0.0690471 -0.0629453 1.57351)
(-0.050633 0.0407769 1.44463)
(-0.0384835 0.00146245 1.43926)
(-0.0407405 -0.0215152 1.44846)
(-0.0426996 0.0133404 1.44879)
(-0.0492767 -0.0149418 1.4778)
(-0.0743422 0.0902245 1.36128)
(-0.0756433 0.0973966 1.21036)
(-0.0637633 0.0637571 1.38337)
(-0.015069 0.0727012 1.2259)
(-0.0636292 0.0852175 1.34165)
(-0.0771243 0.0868422 1.34665)
(-0.0767614 0.0871026 1.34133)
(-0.09485 0.0827024 1.37514)
(-0.106244 -0.144162 1.71407)
(-0.081266 0.00370094 1.66141)
(-0.196025 -0.152243 1.89144)
(-0.0994705 0.0228083 1.63068)
(-0.0972494 -0.128502 1.73929)
(-0.0715584 -0.118022 1.75979)
(-0.0878699 -0.0941122 1.74585)
(-0.0750812 -0.109111 1.815)
(-0.0345977 0.0662865 1.44048)
(-0.0491637 0.118024 1.30273)
(-0.0430465 0.081486 1.5135)
(-0.0194109 0.0952921 1.33066)
(-0.0316925 0.0633097 1.44059)
(-0.000389465 0.0782285 1.46505)
(-0.0269129 0.0605994 1.43727)
(-0.00155954 0.0695098 1.49231)
(-0.0447842 0.0217596 1.39761)
(-0.0710605 -0.0623274 1.57605)
(-0.0238622 0.0324969 1.44046)
(-0.0477218 0.0753028 1.36073)
(-0.05704 0.0274509 1.40205)
(-0.0398739 0.00218377 1.45691)
(-0.0431529 0.0836884 1.35881)
(-0.0184017 0.0461849 1.42529)
(-0.0570959 0.0288219 1.4168)
(-0.0279685 0.0758077 1.34538)
(-0.0745754 0.0165652 1.57369)
(-0.067894 -0.0566424 1.60302)
(-0.0709321 0.0115608 1.43973)
(-0.0746177 0.0284247 1.3921)
(-0.0886743 0.00898005 1.60172)
(-0.0900929 0.0202192 1.56349)
(-0.0550295 -0.0533344 1.56299)
(-0.0342951 0.0348606 1.48402)
(-0.0626828 0.0857891 1.39052)
(-0.0554214 0.0215803 1.61177)
(-0.0583319 0.0209255 1.54484)
(-0.0352812 0.0370466 1.4924)
(-0.0461469 0.0143205 1.55618)
(-0.0218533 0.0482337 1.46397)
(-0.0555945 -0.0612705 1.60444)
(-0.0383092 0.0247559 1.63696)
(-0.0621653 0.085942 1.41934)
(-0.0885319 0.0362085 1.61441)
(-0.047286 -0.0196993 1.59345)
(-0.0190708 0.0426589 1.53846)
(-0.0924201 0.0335912 1.57057)
(-0.0655442 0.063918 1.40104)
(-0.0171104 -0.030672 1.0089)
(-0.0235227 -0.037946 1.00959)
(-0.0497704 -0.134934 1.07031)
(-0.0493635 -0.0933087 1.04098)
(-0.0240272 -0.0359707 1.01749)
(-0.019835 -0.0526743 1.00837)
(-0.0437496 -0.0792934 1.02528)
(-0.0444553 -0.0751206 1.03228)
(-0.0282907 -0.0428477 1.00952)
(-0.032646 -0.0273013 1.00658)
(-0.1011 -0.145676 1.07805)
(-0.0704101 -0.090466 1.05985)
(-0.036331 -0.0404132 1.03153)
(-0.0366322 -0.0444017 1.00554)
(-0.0742698 -0.0927333 1.03737)
(-0.0681105 -0.0884339 1.03142)
(-0.0815056 -0.319404 1.29571)
(-0.178077 -0.370101 1.29508)
(-0.128264 -0.673903 1.87788)
(-0.171761 -0.29628 1.56903)
(-0.119945 -0.270588 1.30731)
(-0.116278 -0.389866 1.4144)
(-0.16047 -0.341266 1.46071)
(-0.282922 -0.269769 1.57941)
(-0.0739633 -0.10986 1.12191)
(-0.0758882 -0.114947 1.13624)
(-0.10626 -0.159828 1.26898)
(-0.0619048 -0.0906731 1.19211)
(-0.0582976 -0.0976818 1.13717)
(-0.0774514 -0.123047 1.15061)
(-0.0714067 -0.10018 1.17308)
(-0.075792 -0.112673 1.18999)
(-0.0288368 -0.0447279 1.03444)
(-0.0712592 -0.116394 1.08443)
(-0.0497675 -0.082478 1.07898)
(-0.0698499 -0.0874153 1.08845)
(-0.0565081 -0.0861525 1.02625)
(-0.0472735 -0.0965171 1.04881)
(-0.0658748 -0.101568 1.04816)
(-0.0510373 -0.11263 1.06213)
(-0.0227674 -0.0540981 1.00967)
(-0.0710789 -0.111623 1.07265)
(-0.0730495 -0.185209 1.09407)
(-0.0546208 -0.16604 1.09873)
(-0.0489528 -0.0871335 1.02306)
(-0.06491 -0.116658 1.06426)
(-0.0890157 -0.127499 1.05505)
(-0.0829112 -0.131503 1.10427)
(-0.0945344 -0.166984 1.12613)
(-0.0698464 -0.115534 1.09549)
(-0.0846064 -0.125383 1.11443)
(-0.107602 -0.176367 1.25012)
(-0.102198 -0.176509 1.15135)
(-0.0721121 -0.124165 1.09216)
(-0.0935235 -0.17404 1.17489)
(-0.07701 -0.120119 1.13225)
(-0.107168 -0.163957 1.16273)
(-0.166743 -0.162098 1.27707)
(-0.0794923 -0.14888 1.10698)
(-0.121426 -0.211247 1.16754)
(-0.114971 -0.196338 1.20431)
(-0.103431 -0.21822 1.22119)
(-0.123576 -0.198286 1.12712)
(-0.144575 -0.188173 1.13618)
(0.00839415 -0.0176214 1.00824)
(0.00318581 -0.113995 1.0598)
(0.0158633 -0.0114677 1.00308)
(0.0297136 -0.0940578 1.06681)
(0.0207394 -0.0589669 1.02245)
(0.0154786 -0.0711707 1.01052)
(0.0298221 -0.100188 1.04016)
(0.0168174 -0.070747 1.02482)
(0.0147588 -0.347954 1.29935)
(0.0376331 -0.663572 1.82603)
(0.115123 -0.390995 1.32179)
(0.0737028 -0.315439 1.64794)
(0.0689085 -0.349106 1.56478)
(0.0688395 -0.342461 1.65619)
(0.103602 -0.330265 1.55783)
(0.0542346 -0.373893 1.56817)
(0.0174087 -0.0172319 1.0011)
(0.0605663 -0.132764 1.06657)
(0.0447451 -0.0320936 0.995913)
(0.0495891 -0.110183 1.0812)
(0.0443532 -0.0879816 1.0378)
(0.0437138 -0.0811257 1.01204)
(0.0571102 -0.105967 1.03792)
(0.0448899 -0.0671085 1.02059)
(0.032617 -0.0853241 1.14465)
(0.0615917 -0.103228 1.29138)
(0.0546871 -0.0943867 1.14743)
(0.0301469 -0.048063 1.21781)
(0.0367858 -0.0861157 1.18425)
(0.0535904 -0.100459 1.15899)
(0.0477722 -0.0658021 1.20089)
(0.0489633 -0.0634985 1.21548)
(0.049078 -0.216292 1.1886)
(0.0267911 -0.0664758 1.01462)
(0.0415239 -0.105165 1.10714)
(0.0575578 -0.178621 1.3191)
(0.044326 -0.196234 1.21701)
(0.0415779 -0.080997 1.03592)
(0.0280798 -0.220686 1.23072)
(0.0408509 -0.0914438 1.0804)
(0.0475177 -0.212052 1.2065)
(0.0562906 -0.169198 1.30718)
(0.0501089 -0.224344 1.23268)
(0.0345607 -0.0779896 0.996871)
(0.0184989 -0.179721 1.16808)
(0.0568374 -0.21042 1.24229)
(0.0344292 -0.0909061 1.0587)
(0.0750604 -0.209961 1.20024)
(0.033242 -0.091395 1.05034)
(0.0392452 -0.0927585 1.1403)
(0.0530416 -0.111582 1.31386)
(0.0556854 -0.0950174 1.15093)
(0.0388429 -0.101208 1.05595)
(0.0246341 -0.102583 1.11982)
(0.0719958 -0.110789 1.11593)
(0.0571119 -0.116251 1.13233)
(0.03069 -0.062086 1.01507)
(0.0501259 -0.121166 1.12042)
(0.0445899 -0.188059 1.32479)
(0.0388242 -0.223063 1.21507)
(0.0659554 -0.0920247 1.04867)
(0.0639585 -0.104975 1.09107)
(0.0529742 -0.200297 1.23345)
(0.0626943 -0.236204 1.253)
(0.175252 -0.877264 2.09247)
(0.161455 -0.289743 1.45098)
(0.0401351 -0.338019 1.33944)
(0.0979442 -0.0636382 1.12327)
(-0.0231575 -0.267627 1.57147)
(0.13188 -0.331325 1.53736)
(0.0429159 -0.379456 1.50385)
(0.108514 -0.292897 1.31697)
(0.0321725 -0.0667806 1.29281)
(0.0363037 -0.0382535 1.18128)
(0.0288712 -0.079976 1.1556)
(0.00246349 -0.057942 1.18471)
(0.0283966 -0.0545823 1.21468)
(0.0448607 -0.0619463 1.20809)
(0.00625379 -0.0553079 1.18747)
(0.0280519 -0.0744251 1.15496)
(0.0245243 -0.146121 1.09739)
(0.0251381 -0.0931095 1.08271)
(0.0105776 -0.0510544 1.01697)
(0.0177311 -0.0940227 1.069)
(0.0145188 -0.0944232 1.06293)
(0.0135434 -0.0774497 1.04821)
(0.00841247 -0.074758 1.03713)
(0.00891409 -0.0501541 1.03175)
(-0.0474483 -0.0911357 1.22266)
(0.0136788 -0.0762935 1.16572)
(0.0106698 -0.0962755 1.13104)
(-0.00655362 -0.0840803 1.18345)
(0.000861708 -0.062312 1.21583)
(0.0265154 -0.0707283 1.19075)
(-0.0201564 -0.0979777 1.18929)
(0.00473773 -0.0697392 1.13085)
(0.0467016 -0.100654 1.31546)
(0.0244433 -0.191117 1.24414)
(-0.00307782 -0.110772 1.40771)
(0.0142054 -0.0675175 1.16765)
(0.0520815 -0.177748 1.30181)
(0.0558946 -0.218716 1.29532)
(0.0322251 -0.142396 1.28324)
(0.0817823 -0.130286 1.32856)
(0.0690755 -0.123335 1.33227)
(0.0296008 -0.0782942 1.17674)
(0.0336102 -0.0894678 1.11859)
(0.0463415 -0.191515 1.20146)
(0.0419775 -0.155502 1.24894)
(0.0302147 -0.0817863 1.16812)
(0.0381861 -0.181134 1.2528)
(0.0261796 -0.0970897 1.14054)
(0.00642262 -0.161322 1.13767)
(-0.0319068 -0.210339 1.31726)
(0.0262253 -0.0860124 1.17374)
(0.0140951 -0.110171 1.09)
(0.0278036 -0.21921 1.20282)
(0.00352734 -0.153274 1.23165)
(0.00948358 -0.115459 1.13645)
(0.030685 -0.11593 1.17441)
(0.0177318 -0.121852 1.10274)
(0.0138797 -0.0766299 1.07932)
(0.016394 -0.071944 1.14363)
(0.0223633 -0.073363 1.09872)
(0.0169932 -0.11494 1.09582)
(0.0131592 -0.093984 1.10624)
(0.0240651 -0.103171 1.11186)
(0.0225726 -0.0852206 1.1451)
(-0.0700161 0.0747779 1.0295)
(-0.136029 0.167098 1.09568)
(-0.130958 0.224049 1.13231)
(-0.182281 0.206127 1.14752)
(-0.100958 0.117927 1.04144)
(-0.106269 0.162705 1.07587)
(-0.132477 0.168193 1.09695)
(-0.166468 0.19676 1.12657)
(-0.133842 0.174628 1.17941)
(-0.101876 0.138613 1.19626)
(-0.105234 0.180334 1.27352)
(-0.171194 0.208448 1.28579)
(-0.139352 0.165778 1.20128)
(-0.140376 0.141243 1.19425)
(-0.179199 0.207368 1.26914)
(-0.159779 0.139813 1.31528)
(-0.147458 0.418977 1.42993)
(-0.130774 0.369909 1.42993)
(0.0433401 0.631405 1.85409)
(0.0319711 0.502029 1.63779)
(-0.175296 0.367006 1.51248)
(-0.188964 0.413396 1.59895)
(-0.225833 0.587326 1.73291)
(-0.219381 0.353802 1.68526)
(-0.281764 0.303574 1.40831)
(-0.258485 0.307373 1.43254)
(-0.128929 0.398243 1.63051)
(-0.299074 0.281113 1.56296)
(-0.285333 0.352995 1.46652)
(-0.262164 0.311496 1.45209)
(-0.28021 0.36776 1.52685)
(-0.207122 0.370961 1.61002)
(-0.129743 0.182806 1.13565)
(-0.145931 0.222684 1.18742)
(-0.187974 0.229227 1.19734)
(-0.192257 0.238203 1.26126)
(-0.157781 0.229887 1.18746)
(-0.171577 0.228062 1.17839)
(-0.177732 0.22987 1.26138)
(-0.183269 0.237549 1.2245)
(-0.129745 0.169669 1.15709)
(-0.167224 0.222945 1.26682)
(-0.183419 0.16189 1.33506)
(-0.157167 0.222043 1.21022)
(-0.163673 0.225809 1.21639)
(-0.158734 0.220219 1.27233)
(-0.17433 0.242147 1.24076)
(-0.162391 0.235154 1.25819)
(-0.145133 0.353552 1.30696)
(-0.241429 0.270099 1.2493)
(-0.22045 0.244266 1.38561)
(-0.180926 0.264299 1.55629)
(-0.188938 0.275556 1.44396)
(-0.231876 0.290924 1.34071)
(-0.200708 0.278709 1.44155)
(-0.233963 0.24077 1.38724)
(-0.165922 0.337879 1.35691)
(-0.079291 0.354913 1.55698)
(-0.208569 0.214925 1.38643)
(-0.235185 0.178794 1.4248)
(-0.16214 0.368043 1.44234)
(-0.205801 0.320484 1.47481)
(-0.217433 0.338031 1.41526)
(-0.203295 0.254819 1.33879)
(0.0206116 0.0666234 1.01535)
(0.0349568 0.115969 1.06434)
(0.0676476 0.162759 1.0846)
(0.038525 0.0941908 1.05313)
(0.0170507 0.0644853 1.01793)
(0.0314901 0.0977849 1.03399)
(0.0298527 0.0871033 1.03852)
(0.0301866 0.105639 1.05563)
(0.0619163 0.115743 1.16368)
(0.0674888 0.0877844 1.23188)
(0.0864807 0.0995958 1.32949)
(0.036806 0.0918676 1.19872)
(0.0514108 0.104858 1.17743)