/*--------------------------------*- C++ -*----------------------------------*\
| =========                 |                                                 |
| \\      /  F ield         | OpenFOAM: The Open Source CFD Toolbox           |
|  \\    /   O peration     | Version:  2506                                  |
|   \\  /    A nd           | Website:  www.openfoam.com                      |
|    \\/     M anipulation  |                                                 |
\*---------------------------------------------------------------------------*/
FoamFile
{
    version     2.0;
    format      ascii;
    arch        "LSB;label=32;scalar=64";
    class       volVectorField;
    location    "200";
    object      U;
}
// * * * * * * * * * * * * * * * * * * * * * * * * * * * * * * * * * * * * * //

dimensions      [0 1 -1 0 0 0 0];

internalField   nonuniform List<vector> 
49664
(
(-0.131977 0.0443466 1.909)
(-0.126828 -0.0191431 1.88536)
(-0.262293 -0.0774956 1.70281)
(-0.104131 -0.0393753 1.68486)
(-0.138101 0.0131668 1.95903)
(-0.131974 -0.0130031 1.91122)
(-0.277446 -0.0703982 1.78588)
(-0.256899 -0.0382348 1.80104)
(-0.115113 -0.0447078 1.8229)
(-0.0711521 -0.107138 1.69711)
(-0.124327 0.0264733 1.70608)
(-0.164895 -0.0363919 1.7365)
(-0.124496 -0.0491598 1.7828)
(-0.137662 -0.0344258 1.81088)
(-0.190679 -0.0591286 1.77148)
(-0.195391 -0.0525617 1.75294)
(-0.123691 -0.0382504 1.34893)
(-0.129404 -0.0275536 1.39676)
(-0.0649985 -0.0411172 1.20937)
(-0.0800048 -0.0245197 1.1902)
(-0.088685 -0.0441412 1.31513)
(-0.0883204 -0.00412868 1.33202)
(-0.0826808 -0.0288571 1.1982)
(-0.0460506 -0.0272818 1.19552)
(-0.0374027 -0.0250719 1.27378)
(-0.0631346 -0.016616 1.30997)
(-0.0685671 -0.0403546 1.17433)
(-0.0415547 0.017904 1.18178)
(-0.0283614 -0.021525 1.25971)
(-0.0195449 -0.00956664 1.24193)
(-0.0606791 0.00843417 1.21439)
(-0.053915 -0.0053523 1.19668)
(-0.140207 -0.021494 1.87004)
(-0.236815 -0.0784818 1.67228)
(-0.0993704 -0.0535814 1.70828)
(-0.126907 -0.0408552 1.70166)
(-0.199498 -0.0575925 1.83579)
(-0.255958 -0.069802 1.74116)
(-0.143309 -0.049358 1.73514)
(-0.123612 -0.0688613 1.6636)
(-0.140352 -0.0323192 1.88714)
(-0.155588 -0.0414351 1.71878)
(-0.142106 -0.00727308 1.68426)
(-0.207743 0.00494503 1.69586)
(-0.233869 -0.110003 1.78421)
(-0.208852 -0.0598063 1.74466)
(-0.180445 0.0102426 1.69136)
(-0.146316 0.0235649 1.62214)
(-0.163043 -0.0265247 1.40901)
(-0.119937 -0.0263856 1.36675)
(-0.148478 -0.0546983 1.4724)
(-0.0981444 -0.0227898 1.18842)
(-0.147769 -0.0328546 1.35569)
(-0.142605 -0.0394489 1.40653)
(-0.105127 -0.0289761 1.35225)
(-0.124003 -0.0415976 1.35831)
(-0.13307 -0.0194816 1.48193)
(-0.0751126 -0.0171852 1.18973)
(-0.130679 -0.0489795 1.42189)
(-0.10841 -0.0309019 1.44044)
(-0.126215 -0.0288477 1.41556)
(-0.129621 -0.00584148 1.35228)
(-0.109431 -0.0386533 1.48148)
(-0.123158 -0.0204049 1.39265)
(-0.520643 -0.183318 2.12167)
(-0.333974 -0.078218 2.06982)
(-0.344622 0.057782 1.62822)
(-0.268235 -0.0977344 1.59063)
(-0.422438 -0.0960698 2.03123)
(-0.518162 -0.17163 2.14285)
(-0.520006 -0.0987761 1.8636)
(-0.584377 -0.136354 1.814)
(-0.20803 0.0205535 1.99961)
(-0.131954 0.0726353 1.98263)
(-0.382646 -0.122929 1.88439)
(0.0169958 -0.0301406 1.62295)
(-0.149557 0.063433 1.97777)
(-0.173058 0.000449409 1.93302)
(-0.30453 -0.0998554 1.83449)
(-0.333812 -0.101512 1.80894)
(-0.158473 -0.0239175 1.33725)
(-0.085858 -0.0265575 1.26959)
(-0.0568306 -0.0355232 1.20177)
(-0.0777713 -0.0190519 1.1862)
(-0.108934 -0.0229513 1.27538)
(-0.136731 -0.0293526 1.35368)
(-0.0773961 -0.02907 1.18167)
(-0.0718967 -0.0289029 1.1877)
(-0.104413 -0.0340957 1.26041)
(-0.029339 -0.00305509 1.24574)
(-0.0635616 -0.0376636 1.16241)
(-0.0359774 0.0159248 1.17154)
(-0.0629288 -0.00662647 1.26018)
(-0.0936205 -0.0269137 1.28816)
(-0.0539759 0.00638747 1.1837)
(-0.0508048 0.00365154 1.18563)
(-0.255501 -0.00769752 2.02373)
(-0.319516 0.0319321 1.58968)
(-0.256723 -0.0883872 1.58279)
(-0.0968463 -0.0670496 1.63306)
(-0.394665 -0.0967577 1.85158)
(-0.46907 -0.104017 1.91234)
(-0.21283 -0.0871152 1.56383)
(-0.219455 -0.0407898 1.63835)
(-0.30304 -0.0396614 2.03723)
(-0.21772 -0.0826329 1.64432)
(-0.257544 -0.0184952 1.65834)
(-0.402141 -0.0208144 1.76664)
(-0.381299 -0.131292 1.83745)
(-0.440488 -0.145091 1.86513)
(-0.248429 0.0130498 1.59238)
(-0.373597 -0.0929119 1.78465)
(-0.108359 -0.0464414 1.282)
(-0.15526 -0.0274878 1.3255)
(-0.119126 -0.00321482 1.33567)
(-0.0942275 -0.0311148 1.17669)
(-0.145952 -0.0412732 1.32223)
(-0.164242 -0.00313629 1.35391)
(-0.143169 -0.0246303 1.33327)
(-0.152796 -0.00557868 1.36273)
(-0.115811 -0.0493337 1.3139)
(-0.0862409 -0.0268486 1.18215)
(-0.125129 -0.0226413 1.35231)
(-0.113337 -0.0261562 1.4142)
(-0.0953089 -0.0335006 1.34862)
(-0.138673 -0.0251396 1.34502)
(-0.173298 -0.0377424 1.35373)
(-0.12702 -0.0248341 1.33545)
(0.116332 0.0279735 1.833)
(0.144935 0.0792635 1.8859)
(0.296696 0.110822 1.64886)
(0.199823 0.0847457 1.62606)
(0.0724222 0.0617175 1.84493)
(0.156385 0.0615314 1.87987)
(0.170561 0.0663073 1.81553)
(0.186682 0.0673564 1.79089)
(0.114898 0.131292 1.81562)
(0.0549666 0.168318 1.61603)
(0.190793 0.11104 1.76693)
(0.177756 0.0605996 1.71328)
(0.118907 0.120827 1.79275)
(0.102473 0.12804 1.74496)
(0.220987 0.0586391 1.77096)
(0.24857 0.078046 1.77505)
(0.261887 0.143902 1.39174)
(0.245775 0.164234 1.49866)
(0.188373 0.171388 1.34337)
(0.199824 0.11896 1.27073)
(0.230444 0.137706 1.38286)
(0.214729 0.127536 1.39831)
(0.213418 0.128937 1.33193)
(0.158772 0.0986444 1.35457)
(0.1511 0.0757182 1.3045)
(0.151354 0.0729907 1.41363)
(0.143553 0.0890036 1.22582)
(0.102927 0.0539339 1.18364)
(0.13235 0.0706365 1.34493)
(0.12658 0.0725586 1.32674)
(0.0860716 0.0663563 1.28902)
(0.0629356 0.0302659 1.28433)
(0.150989 0.095348 1.87792)
(0.272428 0.101144 1.66354)
(0.153391 0.0934737 1.66622)
(0.142728 0.07971 1.67807)
(0.204528 0.0552928 1.79196)
(0.229007 0.0625172 1.74576)
(0.169753 0.0840797 1.6977)
(0.143037 0.0877869 1.64489)
(0.163909 0.0945728 1.86294)
(0.155684 0.0791954 1.6897)
(0.228828 0.120646 1.76516)
(0.279914 0.131108 1.67827)
(0.229309 0.0679306 1.73621)
(0.245 0.0660422 1.76442)
(0.239772 0.102536 1.73592)
(0.211978 0.110142 1.72081)
(0.236028 0.158676 1.54581)
(0.131523 0.087424 1.53458)
(0.151406 0.0649771 1.5873)
(0.174411 0.0827823 1.27647)
(0.229813 0.140093 1.34303)
(0.152967 0.040262 1.59508)
(0.166151 0.104295 1.30017)
(0.148758 0.0579816 1.48972)
(0.219037 0.0963005 1.60959)
(0.129142 0.0688815 1.28854)
(0.160362 0.0683684 1.52538)
(0.21037 0.141968 1.57858)
(0.212133 0.120474 1.52976)
(0.177011 0.0730505 1.2969)
(0.210593 0.134561 1.63212)
(0.211181 0.112476 1.4154)
(0.134703 -0.00294213 1.84221)
(0.29704 0.130474 1.67702)
(0.103203 0.016256 1.99036)
(0.200706 0.0881989 1.60984)
(0.199084 0.0612235 1.80394)
(0.304212 0.133287 1.95957)
(0.118863 -0.0313202 1.73591)
(0.267942 0.0575411 1.86794)
(0.219147 0.126761 1.34133)
(0.185652 0.16589 1.35457)
(0.280675 0.174972 1.44211)
(0.1787 0.0958907 1.24483)
(0.250762 0.118433 1.35432)
(0.215562 0.167745 1.50184)
(0.298097 0.114998 1.24602)
(0.259045 0.132447 1.40306)
(0.241859 0.0739617 2.19522)
(0.461181 0.140491 1.7753)
(0.573067 0.247053 2.1409)
(0.303219 0.147004 1.48504)
(0.517933 0.228114 1.99423)
(0.492177 0.245667 2.08893)
(0.384705 0.0906737 1.80383)
(0.565668 0.1748 1.96235)
(0.103639 0.0287902 1.25546)
(0.114729 0.0797932 1.20835)
(0.167027 0.0825532 1.33024)
(0.0700056 0.0185815 1.17234)
(0.13291 0.0594988 1.27572)
(0.194449 0.0752957 1.27225)
(0.0957317 0.0382143 1.27945)
(0.165339 0.0572887 1.2588)
(0.326828 0.107273 1.57992)
(0.307115 0.0870756 1.91204)
(0.23921 0.0676856 1.57066)
(0.194252 0.0830426 1.28519)
(0.351265 0.112617 1.58993)
(0.401951 0.143812 1.76923)
(0.180786 0.0525254 1.23465)
(0.353266 0.101161 1.48352)
(0.300726 0.194484 1.63523)
(0.221753 0.138285 1.26942)
(0.343212 0.112667 1.7442)
(0.402702 0.236898 1.98139)
(0.330674 0.115521 1.59254)
(0.297574 0.147436 1.24128)
(0.393324 0.17743 1.95337)
(0.385039 0.121528 1.585)
(0.173917 0.0121727 1.80978)
(0.149732 0.0884785 1.62543)
(0.222373 0.0238222 1.24672)
(0.27927 0.0942101 1.6393)
(0.29935 0.190653 1.74186)
(0.263287 0.104052 1.52287)
(0.269851 0.0996382 1.50494)
(0.25656 0.00346955 1.31241)
(0.39012 0.167369 1.93094)
(0.280085 0.106314 1.38876)
(0.206914 0.0913224 1.23564)
(0.394655 0.0959455 1.6488)
(0.521483 0.297388 1.62914)
(0.295974 0.117191 1.32301)
(0.420843 0.187059 1.52778)
(0.22385 0.0812149 1.26588)
(-0.318106 -0.0617149 1.31186)
(0.316698 -0.686042 2.4101)
(-0.0947149 -0.633792 2.40991)
(0.537253 -0.33391 2.61569)
(0.307776 -0.376921 2.23811)
(0.0183173 -0.468188 1.83534)
(0.733042 -0.274642 2.78653)
(0.577888 -0.520386 2.72895)
(0.302086 -0.39924 2.4157)
(0.292895 0.0258751 2.58761)
(0.913972 -0.532023 2.85781)
(0.565721 -0.29379 1.96317)
(0.402142 -0.335645 2.47553)
(0.215623 -0.403158 2.46427)
(0.754561 -0.294783 2.42609)
(0.716623 -0.51719 2.56618)
(0.499784 -0.868366 2.90725)
(1.18762 -0.932378 3.15097)
(1.20582 -0.807108 3.18857)
(1.08228 -0.95326 2.71814)
(1.03955 -0.665043 3.14419)
(0.989056 -0.903113 2.9906)
(0.694175 -0.741185 2.97981)
(0.924596 -0.83365 3.11122)
(0.199798 -0.318274 1.8484)
(-0.0164605 -0.182892 1.27352)
(0.454298 -0.236037 2.0049)
(0.386672 -0.102162 1.75082)
(0.146003 -0.084394 1.53078)
(0.306446 -0.287075 1.74629)
(0.283888 -0.00794037 1.76152)
(0.397535 -0.0993125 1.8205)
(0.400664 -0.463586 2.33241)
(0.830245 -0.341714 2.83609)
(0.571386 -0.527736 2.41544)
(0.559041 -0.399677 2.17675)
(0.621926 -0.700673 2.68477)
(1.15551 -0.406233 3.00584)
(0.336316 -0.52254 2.18825)
(0.67681 -0.374302 2.53655)
(0.352019 -0.641536 2.39313)
(0.532873 -0.577224 2.13972)
(0.972577 -0.686145 2.81678)
(0.547052 -0.777634 2.66002)
(0.917075 -0.539009 2.8172)
(0.633715 -0.683833 2.69959)
(0.979962 -0.608976 2.82949)
(0.93364 -0.770481 2.86099)
(0.835972 -0.659834 2.90432)
(0.456699 -0.585057 2.32399)
(0.257616 -0.412864 1.89561)
(0.553587 -0.624113 2.4999)
(0.583052 -0.819807 2.76716)
(0.644073 -0.573966 2.30045)
(0.749326 -0.593991 2.33375)
(0.48477 -0.375092 2.14626)
(0.916418 -0.735509 3.02822)
(0.794307 -0.648725 2.38763)
(0.430899 -0.453056 1.89877)
(1.05433 -0.801582 2.83615)
(1.28323 -0.67893 3.14074)
(0.82239 -0.644939 2.63122)
(1.00648 -0.795788 2.7829)
(0.391049 -0.637459 1.98466)
(0.16305 -0.209767 2.66016)
(0.203838 -0.766008 2.71209)
(0.426739 -0.541553 2.89459)
(0.535871 -0.500537 2.50417)
(0.470289 -0.444075 2.85443)
(0.273267 -0.597525 2.49073)
(0.548997 -0.436507 3.02968)
(0.411672 -0.55817 2.65915)
(0.750007 -0.854297 2.9574)
(0.822145 -0.64459 3.03333)
(0.471945 -0.0891349 3.07882)
(0.511002 0.077639 2.23428)
(0.908343 -0.786105 3.22308)
(1.09083 -0.635947 3.12327)
(0.570891 -0.588852 3.1968)
(0.369953 -0.297359 3.21807)
(0.40972 -0.151963 3.18322)
(0.552221 -0.128248 3.08331)
(0.325804 -0.0409543 2.86251)
(0.121008 0.046712 2.09528)
(0.339551 -0.146008 3.23729)
(0.533699 -0.142322 3.07667)
(0.349243 -0.0697813 2.90403)
(0.493859 -0.111835 3.00037)
(0.226455 -0.0386337 1.76332)
(0.241416 -0.146153 1.17495)
(-0.191102 0.0175036 1.53526)
(0.271512 -0.27222 1.37053)
(0.334557 0.162927 1.74998)
(0.384291 -0.11149 1.28703)
(0.137999 0.116859 1.49181)
(-0.282641 0.110477 1.3345)
(0.743516 -0.698703 3.2599)
(0.647112 -0.592833 3.12253)
(0.550917 -0.606605 2.45639)
(0.884976 -0.310175 2.45157)
(0.726228 -0.626007 3.16847)
(0.691141 -0.653421 3.09289)
(0.734416 -0.529539 2.60425)
(0.804439 -0.529171 2.42082)
(0.591776 -0.806293 3.02666)
(0.889807 -0.140146 2.2308)
(0.455478 -0.13268 3.07717)
(0.645678 -0.56324 3.16972)
(0.747066 -0.681016 3.06204)
(0.756663 -0.62678 3.12202)
(0.668627 -0.600569 3.04442)
(0.535179 -0.47539 3.08316)
(0.623751 -0.386486 3.14445)
(0.51045 -0.398801 2.25495)
(0.425215 -0.0592367 2.49474)
(-0.00608776 0.18571 1.99877)
(0.603062 -0.152685 2.32018)
(0.704668 -0.412443 2.41783)
(0.316122 0.10634 2.22317)
(0.457695 -0.105039 2.12941)
(0.474562 -0.428994 3.06712)
(0.117117 0.106806 2.1211)
(-0.0382367 0.297584 2.12363)
(0.610742 -0.134632 3.10992)
(0.262441 -0.060605 2.97798)
(0.0218677 0.309599 2.06917)
(0.481631 -0.334641 3.25791)
(-0.0699209 0.218634 2.18179)
(-0.0214819 -0.0478827 1.17872)
(-0.0578063 -0.0224971 1.15602)
(-0.0289207 -0.0289031 1.21782)
(-0.0199744 -0.0591082 1.1352)
(-0.0345492 -0.0336465 1.15379)
(-0.0429438 -0.0197358 1.19454)
(-0.035099 -0.0378957 1.15297)
(-0.0373021 -0.0289073 1.18249)
(-0.0497415 -0.0147605 1.13765)
(-0.0224077 0.0105631 1.13072)
(-0.0133055 -0.00158224 1.15718)
(-0.0243733 -0.0014929 1.09126)
(-0.0402404 -0.0113938 1.11744)
(-0.0214042 0.00759935 1.14058)
(-0.0389552 -0.014245 1.12137)
(-0.0282805 0.000194014 1.13862)
(-0.0347466 -0.0241714 1.22746)
(-0.0107479 -0.0101089 1.1896)
(-0.0130984 -0.0184592 1.22046)
(-0.0302342 -0.0111227 1.1429)
(-0.0247694 -0.0225484 1.19349)
(-0.0110172 -0.0155872 1.20006)
(-0.0210735 -0.0190392 1.19762)
(-0.0224253 -0.017695 1.19999)
(-0.0131805 -0.0569287 1.10317)
(-0.0180517 -0.0153792 1.07521)
(-0.0250777 -0.0238544 1.11585)
(-0.0102267 -0.0394791 1.07495)
(-0.0161874 -0.0347176 1.08445)
(-0.0153593 -0.0188673 1.09972)
(-0.0226624 -0.0433306 1.09221)
(-0.0152121 -0.0222895 1.10185)
(-0.045821 -0.021836 1.1352)
(-0.0338934 -0.0238532 1.18244)
(-0.0259021 -0.0375932 1.11613)
(-0.0296371 -0.0170568 1.09498)
(-0.0400631 -0.0211638 1.13956)
(-0.0351091 -0.0203369 1.15596)
(-0.0335357 -0.0244787 1.10886)
(-0.0256078 -0.0284893 1.13741)
(-0.0466095 -0.0192374 1.16016)
(-0.0221256 -0.000375946 1.11132)
(-0.0104939 -0.00243024 1.16918)
(-0.0334869 -0.0250901 1.20536)
(-0.043366 -0.0132577 1.16255)
(-0.0379679 -0.0115578 1.14773)
(-0.0355778 -0.0210267 1.17745)
(-0.0312176 -0.0136675 1.16038)
(-0.0205802 -0.0167977 1.18119)
(-0.0261739 -0.0421719 1.1167)
(-0.0314275 -0.0171815 1.10005)
(-0.0244801 -0.0224782 1.14267)
(-0.0249719 -0.0367917 1.15981)
(-0.0238844 -0.0281453 1.13633)
(-0.0217803 -0.0224654 1.1371)
(-0.0239173 -0.0143901 1.11624)
(-0.0315021 -0.0214839 1.18831)
(-0.0197484 -0.0112158 1.14141)
(-0.0252922 -0.00765713 1.11704)
(-0.0207408 -0.00818373 1.17136)
(-0.0203318 -0.0168172 1.17159)
(-0.0231137 -0.0111348 1.13774)
(-0.028514 -0.0162706 1.16589)
(-0.0285342 -0.00781819 1.12344)
(0.097922 0.094638 1.34856)
(0.119471 0.115089 1.30693)
(0.0631806 0.0622574 1.29326)
(0.0883919 0.0834866 1.21441)
(0.0960816 0.0982052 1.29767)
(0.0999559 0.0952545 1.33063)
(0.0676947 0.0831854 1.23245)
(0.0835318 0.0848672 1.24545)
(0.133636 0.123197 1.2918)
(0.134566 0.139202 1.23628)
(0.148455 0.0962323 1.21461)
(0.120417 0.101376 1.15909)
(0.142647 0.12221 1.2477)
(0.139797 0.138497 1.26397)
(0.1394 0.0795903 1.19865)
(0.137916 0.0956318 1.18597)
(0.0635658 0.0553794 1.23592)
(0.0923964 0.0725552 1.16467)
(0.0539136 0.0387131 1.16094)
(0.0711772 0.0411701 1.11541)
(0.0788142 0.0616139 1.17157)
(0.0731633 0.0885972 1.21755)
(0.0728362 0.00922261 1.1131)
(0.0827764 0.0418862 1.12046)
(0.0754771 0.0681373 1.13877)
(0.0758128 0.0716265 1.10529)
(0.0617194 0.0429663 1.09255)
(0.0506383 0.0493272 1.07782)
(0.0745139 0.067325 1.11573)
(0.0717354 0.0677101 1.12011)
(0.0576521 0.04497 1.08684)
(0.059336 0.0506357 1.08397)
(0.122937 0.11245 1.27196)
(0.0835958 0.0780188 1.2325)
(0.0883687 0.0877267 1.1878)
(0.105503 0.0985761 1.17573)
(0.0963055 0.104135 1.20677)
(0.0810263 0.0989079 1.22021)
(0.110186 0.10177 1.19237)
(0.0884305 0.0865623 1.20609)
(0.12946 0.113776 1.30172)
(0.107017 0.0997185 1.17949)
(0.12552 0.112643 1.26301)
(0.0778283 0.0946572 1.28321)
(0.113611 0.10003 1.22158)
(0.122526 0.0904194 1.22012)
(0.0994668 0.111779 1.24373)
(0.110406 0.0962306 1.21289)
(0.0651964 0.0474254 1.16246)
(0.0692855 0.0638915 1.13622)
(0.0840646 0.074601 1.11744)
(0.0658542 0.0404659 1.09904)
(0.0674566 0.0542496 1.16475)
(0.0776588 0.0674197 1.14486)
(0.0772808 0.0630076 1.13451)
(0.0796038 0.0768456 1.13086)
(0.0750406 0.0676651 1.17837)
(0.0720238 0.0477155 1.09714)
(0.0868163 0.0820444 1.11738)
(0.104701 0.0800041 1.14066)
(0.0785379 0.0666498 1.15297)
(0.0773644 0.0702577 1.15533)
(0.0927271 0.0706447 1.13725)
(0.0908366 0.0730084 1.13231)
(1.2208 0.322755 3.05649)
(0.73212 0.714934 3.01236)
(1.04456 0.217846 2.93343)
(0.463856 0.269101 2.49274)
(0.995461 0.611609 3.04083)
(0.985056 0.549203 3.04413)
(0.891187 0.608425 2.94602)
(1.0155 0.603985 3.03662)
(0.361456 0.724939 2.7551)
(0.231427 0.643607 2.76449)
(0.596346 0.746567 2.67519)
(0.427685 0.526346 2.44817)
(0.382877 0.731913 2.65444)
(0.344716 0.573499 2.68074)
(0.498262 0.769121 2.54085)
(0.549527 0.764932 2.5302)
(0.852057 0.16651 2.76739)
(0.704747 0.536748 2.81434)
(0.665135 0.204442 2.68388)
(0.349631 0.206102 2.03939)
(0.818986 0.318902 2.89138)
(0.840298 0.326776 2.94158)
(0.623025 0.302948 2.69509)
(0.802226 0.292656 2.80427)
(0.221251 0.619426 2.18322)
(0.167802 0.310121 1.67473)
(0.233578 0.367041 1.73141)
(0.164642 0.155139 1.34627)
(0.0849273 0.368405 1.63895)
(0.0633166 0.344383 1.71257)
(0.299984 0.417016 1.78704)
(0.186567 0.37528 1.69768)
(0.746397 0.710128 2.86396)
(0.90065 0.436137 3.03836)
(0.481319 0.368565 2.27621)
(0.529061 0.543729 2.28662)
(0.745933 0.659505 2.87969)
(0.894359 0.620506 2.99247)
(0.593188 0.48608 2.26198)
(0.445391 0.282287 2.38155)
(0.725513 0.621023 2.9162)
(0.63255 0.568811 2.49655)
(0.717486 0.770823 3.03668)
(1.04469 0.323099 2.93196)
(0.795119 0.717296 2.85493)
(0.765876 0.858844 2.44296)
(0.652996 0.423778 3.44953)
(0.782418 0.620983 2.94557)
(0.679152 0.328882 2.89418)
(0.382232 0.474047 2.19567)
(0.258788 0.444262 2.03453)
(0.348852 0.296975 1.91)
(0.407131 0.306656 2.47204)
(0.521405 0.351098 2.30671)
(0.462295 0.329349 2.23233)
(0.349387 0.326142 2.1093)
(0.91552 0.346308 2.92693)
(0.322681 0.237215 2.10004)
(0.3988 0.493155 2.19589)
(0.754019 0.647262 2.9388)
(0.74105 0.402896 3.02635)
(0.362956 0.231759 2.49865)
(0.673795 0.456758 2.81642)
(0.398199 0.370663 2.21298)
(0.341737 0.176672 2.93196)
(0.213583 0.422658 2.64401)
(0.844303 0.82766 2.79686)
(0.432979 0.382626 2.04513)
(0.21961 0.125462 2.63064)
(0.43698 0.484923 2.85881)
(0.464749 0.687285 2.31118)
(0.657741 0.765122 2.37182)
(0.197257 0.593598 2.42785)
(0.100243 0.542952 2.07175)
(0.302302 0.710197 2.44439)
(0.407638 0.605614 2.43596)
(0.183864 0.539917 2.52379)
(0.431925 0.645289 2.6055)
(0.494663 0.673326 2.80905)
(0.402081 0.522959 2.39496)
(1.17233 0.961589 3.08997)
(0.922542 0.829633 2.9362)
(1.24046 0.396671 3.3129)
(0.641402 0.679982 2.64257)
(1.13728 0.923395 2.97516)
(1.37907 0.706821 3.62169)
(0.716269 0.974354 3.05361)
(0.825579 0.841424 3.03722)
(0.208283 0.240731 1.58508)
(0.322787 0.238168 1.74231)
(-0.226085 0.0628599 1.20931)
(0.22679 0.200713 1.44803)
(0.231522 0.221264 1.67373)
(0.245038 0.14552 1.55936)
(0.364573 0.22043 1.68187)
(0.0285407 0.0766681 1.1974)
(0.277017 0.491441 2.61779)
(0.729712 0.573314 2.67479)
(0.367535 0.35621 1.99398)
(0.304902 0.45555 2.21078)
(0.61851 0.864825 2.58516)
(0.631983 0.683061 2.45232)
(0.445555 0.53979 2.21814)
(0.326254 0.325197 2.02396)
(0.365691 0.627761 2.59469)
(0.392408 0.512625 2.26615)
(0.784876 0.682914 3.19834)
(0.802526 0.647228 2.7165)
(0.641114 0.737706 2.45669)
(0.618316 0.696381 2.639)
(0.64632 0.915246 2.99708)
(0.543453 0.672114 3.06194)
(0.521615 0.550642 2.50942)
(0.206231 0.326122 1.83617)
(0.289331 0.510576 2.18134)
(0.131327 0.156373 1.64004)
(0.586508 0.591845 2.2724)
(0.363473 0.509317 2.01004)
(0.459762 0.472444 2.17719)
(0.415227 0.494301 2.10745)
(0.852113 0.846907 2.8018)
(0.476428 0.534103 2.18125)
(0.450958 0.617287 2.33224)
(0.813055 0.670283 2.70071)
(0.879311 0.805655 2.83574)
(0.482078 0.447049 2.07822)
(0.823601 0.789735 3.06909)
(0.640815 0.668699 2.4851)
(0.0192264 -0.017504 1.00769)
(0.0496785 -0.0414023 1.03155)
(0.0449791 -0.0229816 1.02692)
(0.0376803 -0.0282341 1.02699)
(0.0268941 -0.0206473 1.01378)
(0.0350133 -0.0270873 1.02409)
(0.0338214 -0.0274875 1.02045)
(0.0387243 -0.0304464 1.03072)
(0.0799857 -0.0838229 1.09362)
(0.121047 -0.114344 1.19212)
(0.095382 -0.0663153 1.15926)
(0.0810201 -0.0743233 1.13123)
(0.0839049 -0.0845228 1.11053)
(0.0997775 -0.0746836 1.17214)
(0.0812132 -0.078572 1.12818)
(0.0839368 -0.0635185 1.16386)
(0.0713204 -0.0184375 1.0617)
(0.0925951 -0.0324821 1.12712)
(0.0752694 -0.00889771 1.11447)
(0.0694046 -0.00954754 1.10983)
(0.0716933 -0.0182264 1.08285)
(0.0922535 -0.0187984 1.11314)
(0.0692087 -0.0163993 1.10451)
(0.0779319 -0.00938528 1.13281)
(0.0470455 -0.0242739 1.05988)
(0.0620988 -0.0391285 1.10238)
(0.0601221 -0.0139859 1.09915)
(0.0531688 -0.0170957 1.09102)
(0.0531685 -0.0239125 1.06884)
(0.0595819 -0.0323647 1.08491)
(0.0547718 -0.0231107 1.08314)
(0.0599951 -0.0186699 1.09401)
(0.0561836 -0.0458874 1.04672)
(0.0490248 -0.0241923 1.0395)
(0.0411604 -0.0274866 1.03978)
(0.0649543 -0.0491727 1.07943)
(0.0583776 -0.0463003 1.05183)
(0.0471014 -0.033971 1.04033)
(0.0571546 -0.0471161 1.07049)
(0.0525256 -0.0309091 1.05158)
(0.0644702 -0.0536194 1.07971)
(0.069965 -0.0579944 1.10901)
(0.0854481 -0.0432186 1.1301)
(0.0588611 -0.0277971 1.06038)
(0.0684315 -0.0563128 1.08204)
(0.0643616 -0.0549265 1.09995)
(0.0709445 -0.0404009 1.07117)
(0.0733237 -0.0465377 1.09279)
(0.0544956 -0.0210603 1.05106)
(0.0473225 -0.0252899 1.04763)
(0.0657543 -0.0463948 1.09997)
(0.0606564 -0.0171795 1.09062)
(0.0581578 -0.0178243 1.06153)
(0.0562463 -0.0331846 1.06196)
(0.0607625 -0.0195835 1.07609)
(0.0562124 -0.0296322 1.07671)
(0.0639577 -0.0308741 1.06744)
(0.0680169 -0.0150696 1.11262)
(0.0706584 -0.0425319 1.11513)
(0.0824629 -0.0403315 1.13673)
(0.0646466 -0.0267002 1.08501)
(0.0691694 -0.0243554 1.09314)
(0.0744885 -0.0451498 1.10301)
(0.0761875 -0.0399944 1.11603)
(0.577499 -0.3593 2.23975)
(0.450715 -0.150521 1.84242)
(0.218819 -0.195033 2.09104)
(0.474565 0.017209 1.75778)
(0.418671 -0.174858 1.89192)
(0.37064 -0.145415 2.04838)
(0.400306 -0.142898 1.85403)
(0.412931 -0.15162 1.94719)
(0.262138 -0.125962 1.48528)
(0.162761 -0.168027 1.34868)
(0.0702796 -0.0385886 1.16594)
(0.107897 -0.0567684 1.19096)
(0.163948 -0.107564 1.32052)
(0.180436 -0.0731003 1.48521)
(0.178342 -0.0986206 1.16132)
(0.150425 -0.077037 1.30891)
(0.104565 -0.144103 1.90342)
(0.215416 -0.076286 1.61736)
(0.152458 -0.0441936 1.77495)
(0.25287 -0.070327 1.69786)
(0.233123 -0.0621929 1.82549)
(0.278743 -0.12065 1.86208)
(0.148573 -0.025006 1.70157)
(0.194611 -0.0660084 1.75954)
(0.172863 0.0198937 1.31707)
(0.0953173 -0.0490274 1.16933)
(0.0952322 0.0482812 1.30651)
(0.0874054 0.0266998 1.18773)
(0.155852 -0.00265177 1.25347)
(0.174924 -0.0198373 1.28906)
(0.133561 0.0188656 1.27679)
(0.12729 0.00496002 1.27419)
(0.239242 -0.0764049 1.45613)
(0.309772 -0.156885 1.92436)
(0.323329 -0.0254169 1.45363)
(0.196817 -0.0395404 1.22366)
(0.336774 -0.126292 1.56003)
(0.456743 -0.10856 1.70526)
(0.289507 -0.00039408 1.28824)
(0.29258 0.0359682 1.51515)
(0.215116 -0.0613598 1.58043)
(0.193917 -0.0763493 1.26322)
(0.179294 -0.146134 1.57198)
(0.306545 -0.205657 2.01489)
(0.256577 -0.0229869 1.51722)
(0.226437 -0.0135661 1.18065)
(0.285088 -0.165166 1.91588)
(0.230072 -0.0347076 1.5584)
(0.21132 -0.0314187 1.69403)
(0.313059 -0.0646223 1.56998)
(0.226967 0.0209065 1.2872)
(0.187395 -0.0345335 1.64111)
(0.352777 -0.125109 1.71336)
(0.314661 0.0232318 1.56079)
(0.303675 -0.0223165 1.57799)
(0.258297 0.104599 1.37414)
(0.260858 -0.0938107 1.87108)
(0.248479 -0.0203565 1.6129)
(0.173012 -0.00774186 1.2919)
(0.282768 -0.0339649 1.56643)
(0.382342 -0.0334475 1.7265)
(0.389397 -0.035857 1.53019)
(0.340265 -0.0117585 1.56389)
(0.199316 -0.000149727 1.31496)
(-0.319116 -0.112416 3.51658)
(-0.523925 -0.232525 3.54096)
(-0.124005 0.0659953 3.1453)
(0.261212 0.176242 2.36405)
(-0.394478 -0.27555 3.41738)
(-0.357825 -0.284896 3.80508)
(-0.0791987 -0.116757 2.90814)
(-0.223978 -0.17395 3.29915)
(-0.190513 -0.144478 3.3633)
(-0.216527 -0.0855191 3.40622)
(-0.202442 -0.382326 3.08412)
(-0.139876 -0.255004 2.27612)
(-0.23527 -0.27426 3.13606)
(-0.0921965 -0.10921 3.23328)
(-0.243136 -0.536401 2.80968)
(-0.20017 -0.346109 2.91511)
(-0.11389 0.0653167 2.67872)
(-0.042267 -0.144507 3.01134)
(-0.0109996 0.00576342 2.29306)
(-0.0329077 -0.107955 2.08526)
(-0.104209 -0.00521945 2.8804)
(0.0180945 0.00350892 3.01468)
(-0.0534226 -0.0530313 2.28017)
(-0.0490027 -0.0288678 2.59181)
(0.0753166 0.0381015 1.68327)
(-0.0456462 -0.0582458 1.58719)
(-0.0101466 -0.0282511 1.5008)
(-0.0199173 -0.0558734 1.23554)
(-0.0243971 -0.0370025 1.62521)
(0.0534101 0.0304681 1.65939)
(-0.0417979 -0.0776441 1.48441)
(-0.00599284 -0.0176126 1.52598)
(-0.358062 -0.386486 3.25159)
(-0.157775 -0.0391698 3.21662)
(-0.121742 -0.0962172 2.21172)
(-0.188018 -0.261629 2.15233)
(-0.124089 -0.316109 3.03378)
(-0.128536 -0.110727 3.2796)
(-0.282097 -0.170241 2.08532)
(0.0433586 0.124744 2.42356)
(-0.337386 -0.379541 3.36714)
(-0.200909 -0.247318 2.27115)
(-0.206507 -0.271771 3.44131)
(-0.169343 0.165236 3.40805)
(-0.285179 -0.372902 3.17276)
(-0.260748 -0.580212 2.78296)
(-0.0799081 -0.00143847 3.56556)
(-0.260899 -0.199886 3.1419)
(0.0377389 -0.158065 2.6759)
(0.0398765 -0.190281 2.0279)
(-0.0253808 -0.0497606 1.98654)
(-0.00700678 -0.0587806 1.88402)
(0.114908 -0.337831 2.4098)
(0.0251901 -0.0296006 2.21325)
(0.0118647 -0.105083 2.2272)
(0.0901142 0.166023 2.0209)
(-0.114032 -0.0763679 2.96333)
(0.0420344 -0.0589059 2.04241)
(-0.0631766 -0.111794 2.05716)
(-0.103626 -0.209745 3.05409)
(0.0249805 -0.0943152 3.05813)
(0.164043 -0.109644 2.45215)
(0.027954 -0.169882 2.73717)
(-0.00960046 -0.109516 2.23611)
(-0.128908 0.407314 3.30681)
(-0.119113 -0.0281269 3.09284)
(-0.47868 -0.204547 2.89531)
(-0.216031 -0.189786 1.98228)
(0.163557 0.329604 2.97182)
(-0.274437 -0.257879 3.33801)
(-0.28407 -0.752153 2.75729)
(-0.452642 -0.590537 2.5828)
(-0.0961677 -0.0439309 2.92592)
(-0.169051 -0.00262215 2.73012)
(-0.224829 -0.258017 3.19351)
(-0.114855 -0.269893 2.34405)
(-0.0770297 -0.130095 2.70454)
(-0.27756 -0.212103 3.25854)
(-0.244257 -0.351345 3.00579)
(-0.264275 -0.264301 2.90995)
(-0.69508 -0.555496 3.09576)
(-0.427271 -0.334083 3.42027)
(-0.496598 -0.367361 4.01997)
(-0.298557 -0.467419 2.60211)
(-0.677077 -0.585042 3.0564)
(-0.569189 -0.52019 3.28987)
(-0.226164 -0.895691 3.09947)
(-0.423837 -0.67317 3.58027)
(-0.103473 0.0040364 1.51891)
(-0.0681712 -0.0590931 1.63156)
(-0.111969 -0.11834 1.71684)
(0.0191244 0.0432918 1.32953)
(0.0115797 0.0609344 1.45112)
(-0.0486651 0.0150794 1.51318)
(0.0431679 0.0159817 1.4483)
(-0.0871085 -0.0465555 1.54453)
(-0.0146266 0.0228042 3.04487)
(-0.36913 -0.158481 2.60795)
(-0.211181 -0.162975 1.97658)
(-0.0408027 -0.165318 2.07212)
(-0.385669 -0.561749 2.73425)
(-0.236345 -0.391019 2.53244)
(-0.125801 -0.227772 2.12179)
(-0.0344191 -0.0987969 1.83052)
(-0.215828 -0.291178 2.8471)
(-0.0825573 -0.28268 2.05375)
(-0.381133 -0.115253 3.25982)
(-0.315241 -0.317316 2.68279)
(-0.397307 -0.38028 2.66924)
(-0.292339 -0.424607 2.74483)
(-0.274013 -0.237435 3.13203)
(-0.157269 -0.297042 3.02912)
(-0.0620078 -0.269921 2.42183)
(0.0430628 -0.0773253 1.7494)
(-0.029716 -0.28983 1.98959)
(0.0101406 -0.206105 1.89701)
(-0.202391 -0.262595 2.05921)
(-0.0148849 -0.213856 1.83173)
(-0.15744 -0.226004 2.033)
(-0.0850443 -0.23615 1.96432)
(-0.210928 -0.485719 2.77576)
(-0.244137 -0.306825 2.23666)
(-0.112894 -0.348242 2.18163)
(-0.349596 -0.438758 2.98782)
(-0.3616 -0.588314 2.83793)
(-0.157059 -0.176521 1.92689)
(-0.348733 -0.583535 3.0868)
(-0.219447 -0.402989 2.36896)
(0.0897182 -0.075247 1.57394)
(0.0690637 -0.0970491 1.67116)
(0.123289 -0.14636 1.89131)
(0.208294 -0.0756776 1.67696)
(0.0871661 -0.062125 1.63754)
(0.0914277 -0.0984592 1.61971)
(0.18543 -0.0624134 1.70716)
(0.175312 -0.0745808 1.71917)
(0.0812895 -0.143526 1.71842)
(0.0775317 -0.0806034 1.75387)
(0.237918 -0.0881279 1.63041)
(0.245548 -0.0809478 1.68155)
(0.143192 -0.118758 1.74328)
(0.126803 -0.106481 1.74784)
(0.186694 -0.044641 1.71477)
(0.21115 -0.0561873 1.73573)
(0.141488 -0.199297 1.39167)
(0.13337 -0.126984 1.3382)
(0.147999 -0.174186 1.35513)
(0.113143 -0.0723614 1.24166)
(0.122431 -0.16192 1.36031)
(0.108594 -0.151217 1.3712)
(0.107338 -0.110504 1.32483)
(0.151785 -0.0991357 1.31884)
(0.175933 -0.0501414 1.42423)
(0.165563 -0.00457575 1.31793)
(0.114915 -0.0445951 1.18749)
(0.104741 0.0090587 1.19618)
(0.162315 -0.045215 1.38911)
(0.169885 -0.0136139 1.39268)
(0.101939 -0.0457332 1.2586)
(0.125965 -0.0174139 1.23968)
(0.107092 -0.106776 1.7189)
(0.130574 -0.15254 1.71994)
(0.201803 -0.0762326 1.68299)
(0.204468 -0.085171 1.68866)
(0.2205 -0.0372843 1.68272)
(0.217229 -0.0503598 1.65351)
(0.214971 -0.0733894 1.68963)
(0.204945 -0.0657041 1.66859)
(0.0995659 -0.110483 1.71958)
(0.238587 -0.0649584 1.68889)
(0.18547 -0.0950666 1.69164)
(0.110236 -0.125791 1.79798)
(0.206211 -0.0494241 1.70017)
(0.229648 -0.037804 1.69068)
(0.144472 -0.116881 1.72394)
(0.212333 -0.0968727 1.66133)
(0.111854 -0.0875835 1.50951)
(0.177903 -0.0192439 1.55898)
(0.20137 -0.0183577 1.54386)
(0.119969 -0.0572156 1.2825)
(0.194471 -0.0981646 1.38715)
(0.198466 -0.045126 1.55332)
(0.202118 -0.094143 1.38749)
(0.206379 -0.03392 1.58008)
(0.175555 -0.0840466 1.52108)
(0.156936 -0.0318699 1.25671)
(0.200461 -0.022772 1.51824)
(0.187744 -0.0551191 1.4954)
(0.163087 -0.0596062 1.51144)
(0.177453 -0.0725764 1.39154)
(0.193494 -0.0313611 1.51323)
(0.22758 -0.0598155 1.36879)
(-0.00133808 0.240691 2.81933)
(-0.188201 0.88 2.75402)
(-0.491197 0.920864 2.45189)
(-0.667378 0.594703 2.45285)
(-0.266762 0.763019 3.25615)
(-0.126029 1.04446 2.37976)
(-0.250001 0.770796 2.97864)
(-0.329486 0.948833 2.49182)
(-0.890221 0.757104 2.98162)
(-1.17657 0.360024 3.28616)
(-0.657348 0.212625 3.12291)
(-0.578272 0.134891 2.40948)
(-0.857327 0.396536 3.10775)
(-1.08945 0.46323 3.44427)
(-0.699018 0.452265 3.30435)
(-0.677427 0.346167 3.37622)
(-0.53738 0.377633 3.00353)
(-0.724545 0.204471 2.95362)
(-0.611505 0.0745452 2.74539)
(-0.327216 -0.135997 1.88202)
(-0.550218 0.218463 2.98484)
(-0.722609 0.212144 2.90169)
(-0.532149 0.13268 2.88648)
(-0.682551 0.135556 2.8512)
(-0.0712962 0.0362946 1.62801)
(-0.378236 0.149833 1.30256)
(0.0810904 -0.0534637 1.52214)
(-0.241553 0.297907 1.39198)