/*--------------------------------*- C++ -*----------------------------------*\
| =========                 |                                                 |
| \\      /  F ield         | OpenFOAM: The Open Source CFD Toolbox           |
|  \\    /   O peration     | Version:  2506                                  |
|   \\  /    A nd           | Website:  www.openfoam.com                      |
|    \\/     M anipulation  |                                                 |
\*---------------------------------------------------------------------------*/
FoamFile
{
    version     2.0;
    format      ascii;
    arch        "LSB;label=32;scalar=64";
    class       surfaceScalarField;
    location    "700";
    object      phi;
}
// * * * * * * * * * * * * * * * * * * * * * * * * * * * * * * * * * * * * * //

dimensions      [0 3 -1 0 0 0 0];

oriented        oriented;

internalField   nonuniform List<scalar> 
129632
(
1.17126e-06
-7.10343e-07
-4.13381e-07
-4.75378e-08
-1.10963e-07
1.23365e-06
-7.15264e-07
-4.07425e-07
-3.67131e-07
1.23721e-06
-7.27732e-07
-1.42343e-07
-7.10884e-07
1.25555e-06
-4.14035e-07
-1.3063e-07
4.88712e-07
1.08516e-06
-4.02614e-07
1.10103e-06
-7.23279e-07
4.98928e-07
-1.24648e-07
1.23282e-06
1.2873e-06
-8.37872e-08
-7.48957e-07
-4.54556e-07
-3.19382e-08
-7.86479e-07
-4.75976e-07
1.29439e-06
-4.71975e-07
-6.16139e-08
-8.01797e-07
1.33539e-06
-7.68151e-07
-5.57687e-08
-4.80275e-07
1.30419e-06
5.14486e-07
1.23471e-06
-4.61897e-07
1.25326e-06
-7.70716e-07
5.24884e-07
-5.83228e-08
1.30617e-06
1.33308e-06
-3.36737e-07
-7.90325e-07
-2.06017e-07
-1.03022e-07
-4.3929e-07
-8.78327e-07
1.42064e-06
-3.96699e-07
-9.98852e-07
-1.68864e-07
1.56442e-06
-8.62507e-07
-4.53504e-07
-1.45668e-07
1.46168e-06
5.34443e-07
1.18359e-06
-3.84949e-07
1.3145e-06
-8.83077e-07
5.68329e-07
-2.47249e-07
1.48613e-06
1.34656e-06
-7.65214e-07
-4.63089e-07
-1.18256e-07
-6.66763e-08
-7.74527e-07
-4.88496e-07
1.3297e-06
-4.78769e-07
-8.11156e-07
-1.07338e-07
1.39726e-06
-7.93352e-07
-4.88303e-07
-1.06783e-07
1.38844e-06
5.72464e-07
1.26084e-06
-4.86741e-07
1.2867e-06
-7.80912e-07
5.61802e-07
-9.43182e-08
1.36973e-06
1.13951e-06
5.19518e-07
-4.25375e-07
-3.84459e-07
5.18122e-07
1.10354e-06
5.42417e-07
1.15616e-06
-4.4303e-07
-1.29738e-06
5.34667e-07
1.23194e-06
-4.69221e-07
-1.09955e-07
7.37099e-07
5.12365e-07
7.3841e-07
-1.00067e-07
-4.60217e-07
1.18076e-06
1.17602e-06
-7.40291e-07
-7.84918e-07
1.26382e-06
-5.25993e-07
1.26497e-06
-8.00593e-07
1.36255e-07
1.144e-06
-7.62135e-07
1.28357e-06
4.04816e-07
4.4033e-07
1.30612e-06
-7.6505e-07
1.22046e-06
7.78909e-07
5.05591e-07
-1.80955e-07
5.36106e-07
-1.45158e-07
-7.92863e-08
5.36696e-07
-1.23012e-06
5.66232e-07
-1.47266e-07
-4.09194e-07
1.3333e-06
-1.45193e-07
1.30767e-06
-4.47475e-07
5.5065e-07
1.31286e-06
-1.30517e-06
1.4179e-06
4.7564e-07
1.32487e-06
-5.28028e-07
1.35371e-06
8.29688e-07
9.82202e-08
7.51631e-08
7.90651e-07
1.34145e-06
5.81516e-07
8.8352e-07
2.49189e-07
-1.71423e-06
2.29191e-07
5.72533e-07
7.83719e-07
-1.58544e-06
-1.6107e-06
4.97135e-07
7.59844e-07
3.53717e-07
8.05539e-07
5.94544e-07
1.98175e-07
-1.59826e-06
1.43192e-06
8.27312e-07
-1.67772e-06
8.28789e-07
8.32324e-07
1.32366e-06
3.09193e-07
5.41751e-07
5.67622e-07
1.89306e-07
7.07022e-07
-1.46395e-06
1.54566e-07
6.77501e-07
5.50472e-07
-1.38254e-06
-1.45169e-06
2.1008e-07
6.97539e-07
5.44074e-07
7.10399e-07
1.52312e-07
5.54583e-07
-1.41729e-06
1.28382e-06
7.37888e-07
-1.45409e-06
7.35802e-07
7.02584e-07
1.26817e-06
1.80118e-07
5.52277e-07
4.43383e-07
-1.47803e-06
7.10755e-07
3.23892e-07
2.66159e-07
-1.44974e-06
6.97899e-07
4.85682e-07
-1.41557e-06
6.88663e-07
4.31759e-07
2.95148e-07
7.09546e-07
-1.45754e-06
4.79022e-07
2.6897e-07
1.14721e-06
7.38376e-07
-1.4422e-06
7.13549e-07
6.99821e-07
1.15842e-06
2.89504e-07
4.56396e-07
5.83351e-07
7.54302e-07
1.88033e-07
-1.52569e-06
1.55473e-07
7.15738e-07
5.6738e-07
-1.43859e-06
-1.48847e-06
7.24804e-07
5.37479e-07
2.26184e-07
7.43092e-07
5.92355e-07
1.59154e-07
-1.4946e-06
1.33226e-06
7.57714e-07
-1.50663e-06
7.40352e-07
7.47383e-07
1.30301e-06
1.97794e-07
5.54895e-07
7.76693e-07
1.35002e-06
-1.55418e-06
-1.55871e-06
1.2655e-06
7.90339e-07
1.38841e-06
7.84084e-07
-1.57795e-06
-5.72139e-07
1.30377e-06
7.41995e-07
-1.47362e-06
2.24127e-07
-7.32972e-07
1.28554e-06
-7.9283e-07
1.84882e-07
-1.48999e-06
7.80462e-07
7.88738e-07
7.50584e-07
7.27887e-07
7.28193e-07
-1.24664e-06
7.42947e-07
7.13772e-07
-2.58159e-07
7.63586e-07
7.60078e-07
5.54497e-07
1.51978e-06
1.4625e-06
5.24921e-07
7.36697e-07
7.40785e-07
-7.14802e-07
1.19034e-06
3.14802e-07
1.29357e-06
2.44816e-07
1.9096e-07
1.26677e-06
-7.64206e-07
1.2421e-06
2.46905e-07
-1.52777e-06
5.33966e-07
2.79001e-07
5.46261e-07
-1.4846e-06
1.25436e-06
4.75896e-07
-7.18266e-07
5.02834e-07
1.4437e-06
5.5127e-07
-1.2254e-06
5.18606e-07
-7.29317e-07
-2.36993e-07
-1.9322e-07
-7.21607e-07
5.28869e-07
-1.92496e-06
8.61317e-07
1.18158e-06
-1.17942e-07
-1.23348e-07
-1.95588e-06
8.75367e-07
1.20386e-06
8.61315e-07
-1.93454e-06
1.19231e-06
-1.19089e-07
1.18613e-06
-1.93736e-06
8.69306e-07
-1.18075e-07
-7.39422e-07
-2.04799e-06
8.62453e-07
-2.05437e-06
1.1916e-06
-7.42866e-07
-1.18993e-07
-1.93592e-06
-1.98142e-06
-1.27787e-07
8.87079e-07
1.22213e-06
-1.27379e-07
8.96641e-07
1.2306e-06
-1.99986e-06
8.83693e-07
-1.22661e-07
1.22043e-06
-1.98146e-06
1.22064e-06
-1.27416e-07
8.86199e-07
-1.97943e-06
-7.59564e-07
-2.10981e-06
8.87956e-07
-2.11137e-06
1.22443e-06
-7.60336e-07
-1.28833e-07
-1.98801e-06
-1.95308e-06
8.62973e-07
1.20832e-06
-1.18218e-07
-1.18446e-07
8.73627e-07
1.21596e-06
-1.97114e-06
8.64599e-07
1.21855e-06
-1.96601e-06
-1.17136e-07
1.20587e-06
8.6879e-07
-1.95572e-06
-1.18937e-07
-7.46258e-07
-2.07318e-06
8.66359e-07
-2.07895e-06
1.21425e-06
-7.48967e-07
-1.18343e-07
-1.96332e-06
-1.94899e-06
1.19224e-06
8.75201e-07
-1.18456e-07
-1.22672e-07
1.20896e-06
8.79607e-07
-1.96589e-06
8.73109e-07
1.19779e-06
-1.95273e-06
-1.18168e-07
1.19737e-06
8.78403e-07
-1.95733e-06
-1.18434e-07
-7.54398e-07
-2.07039e-06
8.75805e-07
-2.07791e-06
1.20084e-06
-7.54523e-07
-1.18506e-07
-1.95933e-06
-2.08347e-06
-7.4828e-07
8.75866e-07
8.65408e-07
-7.42336e-07
-2.05761e-06
-7.48289e-07
-2.06017e-06
8.711e-07
1.96107e-06
-7.54012e-07
-2.08624e-06
8.79177e-07
-1.24266e-07
-1.20791e-06
-7.51296e-07
-1.19478e-06
-1.24861e-07
8.78027e-07
-2.06793e-06
-2.08751e-06
1.21144e-06
1.21416e-06
-2.09559e-06
7.53223e-07
-2.09207e-06
1.21618e-06
1.21467e-07
-2.0667e-06
1.2029e-06
-1.96559e-06
-8.73209e-07
-8.80263e-07
-1.9591e-06
1.20736e-06
-2.08614e-06
-1.19523e-06
-7.43662e-07
-1.18719e-07
-7.4912e-07
-1.18811e-07
-1.23627e-07
-7.53651e-07
2.06668e-06
-7.50163e-07
-1.18729e-07
8.68367e-07
-1.94479e-06
-1.18803e-07
-1.94868e-06
8.71463e-07
-7.49575e-07
-1.94739e-06
2.07605e-06
-1.95742e-06
-8.78388e-07
-1.97085e-06
7.54226e-07
-1.97267e-06
-1.20323e-06
1.22197e-07
1.23248e-07
-1.20972e-06
-1.96486e-06
-1.18931e-06
7.83359e-07
1.09461e-06
1.07273e-06
-1.21127e-06
8.36445e-07
7.99535e-07
-1.24797e-06
1.15919e-06
-6.91809e-07
-1.20454e-06
8.04237e-07
1.09211e-06
-1.88814e-06
-1.03369e-07
8.02198e-07
-1.15588e-07
-1.91692e-06
1.12174e-06
-1.23297e-06
-1.2066e-06
1.03097e-06
8.73164e-07
9.79587e-07
8.92382e-07
-1.19447e-06
9.09444e-07
1.0643e-06
-1.26672e-06
-6.83558e-07
9.928e-07
9.0385e-07
-1.21309e-06
-1.89545e-06
-1.97558e-07
8.86407e-07
-2.13274e-07
-1.91395e-06
1.03284e-06
-1.21778e-06
-1.34998e-06
8.55666e-07
1.25416e-06
1.20001e-06
9.69218e-07
-1.38551e-06
9.98695e-07
1.33772e-06
-1.4529e-06
-8.57049e-07
9.70208e-07
1.29352e-06
-1.40667e-06
-2.18139e-06
-9.09308e-08
9.22345e-07
-1.49059e-07
-2.26414e-06
1.31616e-06
-1.4145e-06
-1.23577e-06
-7.15415e-07
8.68499e-07
1.08269e-06
1.01826e-06
-6.93509e-07
9.10892e-07
-1.23564e-06
9.28281e-07
-7.84171e-07
1.15703e-06
-1.30114e-06
-7.17183e-07
9.01621e-07
1.0648e-06
-1.24924e-06
-1.93123e-06
-1.87872e-07
8.83329e-07
-1.95518e-07
-7.17452e-07
-1.97757e-06
1.07251e-06
-1.24481e-06
-1.50164e-07
-1.91478e-06
8.53678e-07
8.40898e-07
-1.99509e-06
-9.37828e-08
-1.89594e-06
-1.3178e-07
8.23185e-07
1.21005e-06
-1.90105e-06
-1.88291e-07
8.79288e-07
1.09391e-06
6.95629e-07
-1.9397e-06
7.01837e-07
1.04827e-06
8.57415e-07
-1.4584e-07
-1.70042e-07
-6.98037e-07
-2.10211e-07
2.00592e-06
-1.91036e-07
-1.133e-06
-1.02003e-07
-1.23669e-06
-8.73054e-07
-9.01888e-07
-1.26936e-06
-1.65328e-07
7.45027e-07
-2.05621e-06
1.2174e-06
-1.96312e-06
1.11592e-06
1.06214e-06
-1.94394e-06
1.53466e-07
-2.13408e-06
1.19644e-06
8.62947e-07
-1.29499e-06
1.17707e-06
-1.24601e-06
9.01322e-07
-2.04284e-06
-1.30254e-06
1.59934e-07
-1.3238e-06
-9.1957e-07
-1.23458e-06
2.06673e-06
-1.28855e-06
7.79601e-07
-1.1598e-06
-1.10331e-06
7.41605e-07
-1.28127e-06
2.81009e-07
-1.75274e-06
-1.74958e-07
1.64669e-06
1.31548e-06
2.14519e-07
-1.41547e-06
-1.14528e-07
-1.4087e-06
1.89711e-07
-1.96741e-07
1.41573e-06
-1.44872e-07
1.41783e-07
-1.48284e-06
1.48592e-06
8.46208e-08
1.7129e-06
-1.51651e-06
1.60865e-06
-2.0855e-07
7.6175e-09
1.56041e-06
2.07572e-07
1.39885e-07
1.21107e-06
-1.22289e-06
-1.28073e-07
1.18394e-06
-1.14993e-06
-1.46817e-07
1.12807e-07
-1.21491e-06
1.21261e-06
-1.26199e-07
1.28504e-07
-1.08424e-07
1.21379e-06
-1.23752e-06
1.3215e-07
3.84256e-09
1.34008e-06
-1.20404e-06
1.31915e-06
-1.31364e-07
2.10944e-08
1.21056e-06
1.25332e-07
1.3882e-07
-1.2971e-06
-1.45893e-07
1.30418e-06
1.25711e-06
-1.25207e-06
-1.28155e-07
1.23119e-07
-1.24598e-06
-1.44813e-07
1.01835e-07
1.28896e-06
-1.39571e-07
-1.29414e-06
1.07329e-07
1.32639e-06
2.59823e-09
1.43181e-06
-1.29559e-06
1.38945e-06
-1.29745e-07
-2.61087e-08
1.31835e-06
1.17365e-07
1.13918e-07
-5.18874e-08
-1.45505e-06
1.39302e-06
1.29769e-06
-6.73043e-08
-1.35516e-06
1.24774e-07
-1.38003e-06
-8.52029e-08
1.00357e-07
1.36487e-06
-4.66598e-08
-1.4466e-06
1.16218e-07
1.37704e-06
8.02245e-08
1.50606e-06
-1.47236e-06
1.44636e-06
-6.84411e-08
5.61002e-08
1.4033e-06
1.22427e-07
1.46708e-06
6.08444e-08
-1.31341e-06
-1.3812e-06
4.90033e-08
1.5219e-06
5.14972e-08
1.5422e-06
-1.45192e-06
-1.54887e-07
6.68454e-08
1.41819e-06
-1.33015e-06
1.29882e-06
9.23859e-08
7.58788e-08
1.25194e-07
1.28995e-06
-1.35245e-06
1.46664e-06
1.38694e-06
-1.15021e-07
-9.97584e-08
1.38039e-06
-2.43596e-08
1.35719e-06
-1.20227e-07
-1.27535e-06
1.44863e-06
-1.2428e-07
1.54865e-07
1.30795e-06
1.26566e-06
1.50626e-07
-1.18024e-07
1.39193e-06
1.48922e-07
-1.81434e-08
1.39112e-06
4.00465e-08
1.45027e-06
1.29325e-06
5.76417e-08
-1.45694e-06
1.49228e-08
1.35681e-06
-1.36018e-06
1.20006e-07
1.3891e-06
1.46502e-07
-1.37131e-06
3.43776e-08
1.33389e-07
-1.40722e-06
1.28001e-07
1.3034e-06
1.34637e-07
-2.58692e-08
1.30989e-07
1.03753e-07
-1.26596e-06
-1.26909e-06
1.00106e-07
1.34414e-07
-2.17645e-07
1.45983e-06
2.53755e-07
-1.49594e-06
1.40777e-06
-1.52567e-07
1.86951e-07
-1.44215e-06
-1.37547e-06
-1.94063e-07
1.39636e-06
1.73174e-07
1.69716e-07
-1.58575e-07
1.46872e-06
-1.47986e-06
-1.21007e-08
1.29489e-06
-1.50043e-06
1.22951e-06
1.66161e-07
-3.77453e-08
1.50235e-06
-1.83708e-07
-1.18601e-07
1.27888e-06
1.83765e-07
-1.34405e-06
1.21022e-06
1.76426e-07
-9.57754e-08
-1.29087e-06
-1.28491e-06
1.22983e-06
1.61416e-07
-1.06336e-07
1.96738e-07
1.20623e-06
-9.86364e-08
-1.30433e-06
8.30214e-08
1.14971e-06
-1.35134e-06
1.11812e-06
1.75123e-07
6.86877e-08
1.27777e-06
-9.80977e-08
-1.63751e-07
-1.27588e-06
1.2915e-06
1.4813e-07
1.22423e-06
-1.25865e-06
1.49148e-07
-1.14729e-07
-1.21278e-06
1.2083e-06
1.26358e-07
-1.2188e-07
1.40425e-07
-1.27341e-06
1.25719e-06
-1.24206e-07
1.39768e-08
1.11693e-06
-1.29466e-06
1.0951e-06
1.43108e-07
-1.44657e-09
1.2588e-06
-1.19127e-07
-1.18394e-07
2.12714e-07
1.36563e-06
-1.45995e-06
1.2546e-06
1.87834e-07
-9.18283e-08
-1.3506e-06
-1.34143e-06
1.66243e-07
1.29434e-06
-1.19151e-07
2.10463e-07
1.32484e-06
-9.95852e-08
-1.43572e-06
9.37874e-08
1.23155e-06
-1.44373e-06
1.15387e-06
1.94517e-07
8.44026e-08
1.35761e-06
-1.03164e-07
1.23287e-06
5.08934e-08
-1.43633e-06
-1.38987e-06
-5.05481e-09
1.20086e-06
4.93458e-08
1.26077e-06
-1.46869e-06
1.02837e-07
9.30553e-08
1.19203e-06
-1.38793e-06
1.38665e-06
-1.8709e-07
3.33105e-08
-1.86923e-07
1.309e-06
-1.39325e-06
1.17142e-06
1.15458e-06
1.75192e-07
1.82484e-07
1.1168e-06
-3.98974e-08
1.11462e-06
1.55105e-07
-1.29701e-06
1.13326e-06
1.58695e-07
-1.32453e-07
1.32035e-06
1.3278e-06
-1.45546e-07
1.68881e-07
1.14235e-06
-1.65881e-07
-1.03763e-08
1.37711e-06
4.7632e-08
1.42585e-06
1.30604e-06
7.38241e-08
-1.16769e-06
3.17725e-08
1.30216e-06
-1.35677e-06
-1.53728e-07
1.34462e-06
-1.37717e-07
-1.36284e-06
4.14262e-08
-1.52991e-07
-1.12204e-06
-1.19604e-07
1.30412e-06
-1.13489e-07
-3.15273e-08
-1.12504e-07
-1.64815e-07
-1.28283e-06
-1.24542e-06
-1.72008e-07
-1.13317e-07
1.20597e-07
-1.28083e-06
-8.47272e-07
2.0075e-06
1.99021e-06
1.28073e-07
-1.27106e-06
-8.47223e-07
-8.42527e-07
1.24106e-07
-1.27402e-06
1.99244e-06
-1.27145e-06
1.22416e-07
-8.43804e-07
1.99284e-06
-1.14815e-06
2.11549e-06
-8.46746e-07
2.11658e-06
-1.27452e-06
-1.15001e-06
1.99406e-06
1.24042e-07
1.25307e-07
1.97672e-06
-1.26086e-06
-8.41162e-07
1.96866e-06
-1.25444e-06
-8.36792e-07
1.22573e-07
-8.37065e-07
1.97168e-06
-1.2577e-06
1.2309e-07
-1.25583e-06
1.97077e-06
-8.38264e-07
1.23322e-07
-1.13197e-06
2.09526e-06
-8.37987e-07
2.09267e-06
-1.25598e-06
-1.13261e-06
1.97204e-06
1.22998e-07
1.25581e-07
-8.40579e-07
-1.27056e-06
1.98556e-06
1.97688e-06
-8.3733e-07
-1.26303e-06
1.23488e-07
-8.39763e-07
-1.269e-06
1.98397e-06
1.24795e-07
-1.26578e-06
-8.388e-07
1.98083e-06
1.23748e-07
-1.14064e-06
2.10553e-06
-8.39309e-07
2.10411e-06
-1.26787e-06
-1.14062e-06
1.98037e-06
1.23724e-07
1.23025e-07
-1.26258e-06
-8.42203e-07
1.98175e-06
1.97378e-06
-1.25721e-06
-8.40282e-07
1.23709e-07
-8.39218e-07
-1.26095e-06
1.97735e-06
1.22823e-07
-1.25806e-06
-8.42151e-07
1.97754e-06
1.22677e-07
-1.13439e-06
2.0997e-06
-8.42288e-07
2.09739e-06
-1.25801e-06
-1.1349e-06
1.97654e-06
1.23275e-07
2.10687e-06
-1.13675e-06
-8.42042e-07
-8.42015e-07
-1.14359e-06
2.10971e-06
-1.13932e-06
2.10521e-06
-8.4347e-07
-1.24897e-07
-1.13296e-06
2.0981e-06
-8.40248e-07
1.98264e-06
1.26223e-06
-1.138e-06
1.26466e-06
1.97848e-06
-8.41139e-07
2.10382e-06
2.10432e-06
-1.26435e-06
-1.25754e-06
2.09535e-06
1.13552e-06
2.09724e-06
-1.26108e-06
-1.98254e-06
2.10935e-06
-1.27039e-06
1.24443e-07
8.41876e-07
8.38944e-07
1.25832e-07
-1.2665e-06
2.1003e-06
1.26875e-06
-1.14477e-06
1.98573e-06
-1.13988e-06
1.98251e-06
1.97423e-06
-1.13333e-06
-2.10108e-06
-1.13717e-06
1.97729e-06
-8.4046e-07
1.24149e-07
1.98506e-06
1.23477e-07
-8.39699e-07
-1.13723e-06
1.23998e-07
-2.09904e-06
1.23073e-07
8.38519e-07
1.23501e-07
1.13652e-06
1.23393e-07
1.26141e-06
-1.97672e-06
-1.97486e-06
1.2601e-06
1.23756e-07
-1.00442e-07
6.4192e-07
-1.00905e-06
4.67575e-07
-9.83057e-07
-1.52814e-07
5.86635e-07
5.49235e-07
5.38043e-07
-1.05874e-07
5.80873e-07
-1.01304e-06
5.15923e-07
1.27258e-09
-1.04485e-06
5.27652e-07
4.39474e-07
-1.06416e-06
5.24242e-07
-1.13029e-06
5.86708e-07
4.56307e-07
-1.00454e-06
-1.35939e-07
-1.1249e-07
-9.06178e-07
5.40574e-07
4.78094e-07
-8.2459e-07
-1.11097e-07
5.07332e-07
4.28354e-07
4.48057e-07
-8.63369e-07
-1.27936e-07
5.43248e-07
5.10636e-07
-9.07302e-07
-5.92202e-08
4.55886e-07
3.97679e-07
-9.6097e-07
4.508e-07
-9.63708e-07
5.36797e-07
4.12275e-07
-8.62609e-07
-1.03376e-07
-9.14118e-08
5.17477e-07
5.81728e-07
-1.00779e-06
-9.50668e-07
4.92241e-07
-1.19205e-07
5.77632e-07
4.92991e-07
-9.13123e-08
6.15565e-07
-1.01724e-06
4.89329e-07
4.99181e-07
-7.90177e-09
-9.80609e-07
4.38502e-07
-1.02718e-06
4.97261e-07
-1.08363e-06
5.71463e-07
4.68157e-07
-1.006e-06
-1.22481e-07
3.27586e-08
4.50877e-07
-9.82731e-07
4.99095e-07
-9.11194e-07
4.64902e-07
-1.44668e-08
4.60759e-07
4.7347e-07
4.32993e-07
4.30046e-08
-9.49468e-07
4.01808e-07
5.87517e-08
-9.2524e-07
4.6468e-07
4.57876e-07
-8.91563e-07
4.66445e-07
-9.2285e-07
4.69531e-07
4.55878e-07
-9.45633e-07
6.49877e-09
-1.06565e-06
4.12838e-07
4.99998e-07
5.34532e-07
4.31077e-07
-1.07148e-06
5.00109e-07
-1.01232e-06
5.13482e-07
5.88303e-08
4.36552e-07
-9.54521e-07
4.59139e-07
-9.43767e-07
-5.51278e-07
4.29395e-07
-5.45174e-07
-1.00579e-06
5.13345e-07
-1.05086e-06
-1.06285e-06
5.69508e-07
5.10263e-07
-9.81013e-07
-3.98987e-07
-1.03254e-06
5.68159e-07
9.65448e-07
-1.10529e-06
5.7092e-07
-1.07881e-07
-5.25572e-07
-4.60226e-07
-1.30869e-07
5.70745e-07
-9.90082e-07
-5.05697e-07
4.66324e-07
-1.03211e-06
4.91747e-07
-1.05319e-06
-9.43617e-07
4.53997e-07
9.65723e-07
4.74564e-07
-1.00729e-06
5.38003e-07
1.35983e-09
-1.04506e-06
-2.11072e-08
4.95192e-07
4.7189e-07
-1.21489e-07
1.01091e-06
-3.71606e-08
-4.84222e-07
-4.27933e-08
-4.38943e-07
-1.01358e-07
-5.24311e-07
9.00083e-07
9.58484e-07
-5.28941e-07
-5.46792e-08
-9.56375e-07
2.82456e-07
-3.2602e-07
9.99939e-07
2.86973e-07
-9.93636e-07
-3.44135e-07
1.0508e-06
-3.42406e-07
-1.048e-06
3.71243e-07
1.01916e-06
1.00217e-06
-1.01239e-06
3.42232e-07
-3.32006e-07
5.65169e-08
-6.72029e-07
-3.40863e-07
-6.74873e-07
1.01836e-06
-5.25668e-09
3.35395e-07
-1.02254e-06
-1.06514e-06
3.07348e-07
-3.63023e-07
1.12082e-06
3.76303e-07
-4.39822e-07
1.18685e-06
-1.12333e-06
-3.97078e-07
4.69917e-07
1.1565e-06
-1.22934e-06
1.11749e-06
4.68783e-07
-3.78543e-07
-1.20773e-06
3.88711e-08
-7.23514e-07
-3.80502e-07
-7.25013e-07
1.14019e-06
-5.53133e-08
4.49292e-07
-1.17741e-06
-1.17552e-06
-4.26747e-07
5.01938e-07
1.10033e-06
5.58657e-07
-4.31025e-07
1.15108e-06
-1.27872e-06
-5.26094e-07
5.10678e-07
1.2262e-06
-1.21078e-06
1.13518e-06
-4.20391e-07
5.38378e-07
-1.25317e-06
-5.30139e-08
-6.72886e-07
-4.4962e-07
-6.56277e-07
1.16192e-06
-8.10016e-08
5.433e-07
-1.26337e-06
-1.05794e-06
9.86143e-07
4.10567e-07
-3.38771e-07
4.72619e-07
9.84007e-07
-3.35624e-07
-1.121e-06
-3.61248e-07
1.0164e-06
4.89626e-07
-1.14477e-06
9.33823e-07
4.74649e-07
-3.20482e-07
-1.08799e-06
-9.49023e-08
-6.22047e-07
-3.4099e-07
-6.36434e-07
1.01415e-06
-1.52856e-07
4.64632e-07
-1.15054e-06
-7.05692e-07
4.8707e-08
-3.36652e-07
-3.73939e-07
-1.73599e-08
-6.56701e-07
-7.34905e-09
-6.54739e-07
-3.50305e-07
1.06935e-06
-5.83196e-08
-6.57354e-07
-3.53678e-07
3.69884e-07
-1.03911e-06
-3.64643e-08
-1.02659e-06
3.7704e-07
-3.468e-07
-6.569e-07
-7.37239e-07
1.09329e-06
1.1064e-06
-6.95939e-07
5.27779e-08
-7.23504e-07
1.14064e-06
-4.27306e-07
-6.80792e-07
1.09074e-06
-1.14889e-06
3.75187e-07
4.06803e-07
-1.15746e-06
1.10534e-06
-6.97881e-07
-1.03709e-06
-5.73138e-08
4.37704e-07
-6.59209e-08
3.97325e-07
4.5681e-07
-1.30157e-07
6.57925e-07
-1.22587e-07
4.81058e-07
-3.68175e-07
-1.10754e-06
4.38625e-07
-1.091e-06
-3.79964e-07
-6.96523e-08
-1.16485e-06
6.63546e-07
-1.20652e-06
3.84197e-07
-1.21029e-06
1.08152e-07
-1.26268e-06
-1.0996e-06
-5.14872e-07
-5.05706e-07
-1.1046e-06
-1.22611e-06
7.88121e-07
-2.29094e-07
-8.9229e-07
3.33264e-07
3.88906e-07
7.9148e-07
-1.66066e-07
-1.01432e-06
-1.38015e-07
8.31042e-07
-1.05513e-06
3.62102e-07
-1.04126e-06
8.28993e-07
-1.89335e-07
4.01603e-07
-1.90305e-07
1.1669e-06
-1.88469e-07
1.18034e-06
-9.81743e-07
-2.34697e-07
3.60331e-07
8.07631e-07
8.7251e-07
5.13501e-07
-1.77239e-07
-1.20877e-06
7.0008e-07
-3.51524e-07
-1.50226e-06
1.1537e-06
-2.07685e-07
5.41395e-07
-1.36541e-06
1.0317e-06
-1.30805e-06
5.36473e-07
-2.93591e-07
1.06516e-06
-4.60398e-07
1.54334e-06
-2.10432e-07
1.62689e-06
-1.38721e-06
-3.1944e-07
5.54733e-07
1.09976e-06
9.29111e-07
-5.93679e-08
-1.30351e-06
4.33772e-07
5.10486e-07
-1.52192e-07
-1.39871e-06
1.04041e-06
-1.4254e-07
-1.48022e-06
4.73442e-07
1.14932e-06
-1.32128e-06
-2.25795e-07
4.75931e-07
1.07114e-06
-3.98795e-07
1.45893e-06
-1.31023e-07
1.5178e-06
-1.40611e-06
-3.17181e-07
4.54834e-07
1.05808e-06
9.1989e-07
-1.13388e-06
-2.37742e-07
4.51727e-07
4.75713e-07
-1.18695e-06
-2.92159e-07
1.00339e-06
-2.61785e-07
-1.2217e-06
4.60977e-07
1.02251e-06
-1.13586e-06
-2.88048e-07
4.47506e-07
9.76403e-07
-2.22222e-07
1.40021e-06
-2.58094e-07
1.4342e-06
-1.18071e-06
-1.90434e-07
4.54776e-07
9.81984e-07
1.27971e-06
-3.18097e-07
-1.70137e-07
-1.16945e-07
-3.22549e-07
1.27054e-06
-2.83448e-07
1.30191e-06
-1.89474e-07
-9.09617e-07
-2.73785e-07
1.43219e-06
-2.48788e-07
4.47068e-07
1.16713e-06
-3.34489e-07
1.13775e-06
4.75263e-07
-2.17746e-07
1.32957e-06
1.34695e-06
-1.15154e-06
-1.25435e-06
1.51703e-06
3.60218e-07
1.4996e-06
-1.31842e-06
-4.5836e-07
1.30342e-06
-1.16761e-06
8.96148e-07
1.1631e-07
1.96534e-07
8.78685e-07
-1.22074e-06
1.43544e-06
1.21211e-06
-3.32413e-07
3.90837e-07
-2.61572e-07
4.29611e-07
4.83929e-07
-2.38687e-07
-1.43092e-06
-2.36399e-07
4.45616e-07
-1.63733e-07
9.37417e-07
4.38426e-07
9.04263e-07
-2.0748e-07
-2.86025e-07
9.11643e-07
-1.48354e-06
1.02134e-06
2.53014e-07
1.02533e-06
3.17882e-07
1.02952e-06
1.26654e-06
-4.85923e-07
-5.0302e-07
1.26739e-06
1.01739e-06
-5.6534e-07
-7.78381e-07
-4.37018e-07
1.78074e-06
1.56503e-06
-4.348e-07
-7.22995e-07
-4.07229e-07
-2.20416e-07
-5.24851e-07
-7.52973e-07
1.49824e-06
-7.72332e-07
-5.48235e-07
-2.67416e-07
1.58798e-06
-1.2497e-06
1.07498e-06
-3.90625e-07
1.08992e-06
-7.74594e-07
-1.35961e-06
1.66227e-06
-4.9011e-07
-4.26756e-07
1.41146e-06
-6.77718e-07
-3.0699e-07
1.33479e-06
-6.65419e-07
-4.78038e-07
-1.91333e-07
-2.12355e-07
1.38716e-06
-6.88979e-07
-4.85826e-07
-6.84468e-07
1.39771e-06
-4.77057e-07
-2.36187e-07
-1.11337e-06
9.13616e-07
-2.26998e-07
8.8257e-07
-6.61154e-07
-1.14329e-06
1.37244e-06
-4.73076e-07
-5.40389e-07
-1.75889e-07
-7.11311e-07
1.42759e-06
1.40834e-06
-1.85829e-07
-7.05124e-07
-5.17387e-07
-1.61989e-07
-6.83693e-07
-5.38199e-07
1.38388e-06
-7.07704e-07
-1.69953e-07
-5.53195e-07
1.43085e-06
-1.24025e-06
8.85788e-07
-1.85923e-07
8.78125e-07
-7.10038e-07
-1.24527e-06
1.42336e-06
-5.29138e-07
-5.47656e-07
-7.30192e-07
-2.31057e-07
1.5089e-06
1.45236e-06
-7.05081e-07
-5.08469e-07
-2.38814e-07
-1.84633e-07
-6.95171e-07
-5.67328e-07
1.44713e-06
-7.08247e-07
-5.45668e-07
-2.18333e-07
1.47225e-06
-1.24121e-06
9.2697e-07
-2.33419e-07
9.20244e-07
-7.09087e-07
-1.26789e-06
1.48661e-06
-5.32276e-07
9.96612e-07
-1.11949e-06
-3.11923e-07
-2.42745e-07
-1.24156e-06
9.59457e-07
-1.24759e-06
9.8418e-07
-2.84826e-07
4.92458e-07
-1.17437e-06
9.30884e-07
-2.48971e-07
1.47594e-06
7.29884e-07
-1.20921e-06
7.43087e-07
1.50134e-06
-2.78998e-07
9.96837e-07
9.82308e-07
-6.90333e-07
-6.9847e-07
9.21811e-07
1.18799e-06
9.05611e-07
-7.06442e-07
-1.46072e-06
9.39099e-07
-7.19939e-07
-4.53314e-07
2.26408e-07
2.20655e-07
-5.08641e-07
-7.25673e-07
9.00004e-07
7.49199e-07
-1.29041e-06
1.50066e-06
-1.32116e-06
1.57515e-06
1.43368e-06
-1.20787e-06
-8.87845e-07
-1.26956e-06
1.46223e-06
-1.9411e-07
-5.59304e-07
1.50261e-06
-5.1843e-07
-2.06159e-07
-1.24099e-06
-5.27196e-07
-8.96368e-07
-5.43144e-07
2.03995e-07
-4.90056e-07
1.2153e-06
-4.95518e-07
7.07931e-07
-1.42105e-06
-1.42943e-06
6.94253e-07
-5.31178e-07
-5.32705e-07
-1.06158e-06
-1.58454e-07
1.55123e-06
-4.58554e-07
-9.03386e-07
-1.89286e-07
-1.32185e-07
-4.50489e-07
-8.32799e-07
-9.02812e-07
-5.10487e-07
-6.95373e-08
-1.43239e-06
1.03117e-06
-1.31487e-07
1.0617e-06
-9.42867e-07
-1.38814e-06
-4.58629e-07
-4.54803e-07
1.35047e-06
-7.81761e-07
-1.13908e-07
1.22842e-06
-7.3052e-07
-4.63164e-08
-4.51588e-07
-2.83773e-08
1.18889e-06
-7.27353e-07
-4.33163e-07
-7.54054e-07
1.38093e-06
-1.35223e-07
-4.91649e-07
-1.19188e-06
8.29169e-07
-9.20889e-08
7.75864e-07
-7.39322e-07
-1.20808e-06
1.28319e-06
-4.60591e-07
-4.36678e-07
-4.69449e-08
-7.39263e-07
1.16845e-06
-1.46523e-08
-7.25843e-07
-4.2796e-07
5.02198e-09
-7.23169e-07
-4.31786e-07
-7.33981e-07
-5.33036e-08
-4.50232e-07
-1.16332e-06
7.58989e-07
-3.23422e-08
7.29293e-07
-7.24163e-07
-1.17903e-06
-4.44712e-07
-5.39075e-07
-8.29607e-07
-8.63705e-08
1.45911e-06
-7.88121e-07
-1.37723e-07
-5.33263e-07
-9.65228e-08
-7.63747e-07
-4.94891e-07
-8.11019e-07
-8.67467e-08
-5.48833e-07
-1.34307e-06
9.18271e-07
-1.14278e-07
9.07498e-07
-7.91459e-07
-1.36511e-06
-5.54138e-07
9.28044e-07
-1.27327e-06
-1.1333e-07
-9.54541e-08
-1.22375e-06
8.68711e-07
-1.34688e-06
9.21637e-07
-8.52433e-08
5.12695e-07
-1.27124e-06
9.06429e-07
-1.47887e-07
1.39512e-06
8.05377e-07
-1.27245e-06
8.41033e-07
1.43613e-06
-1.18062e-07
9.30287e-07
8.9963e-07
-8.22425e-07
-7.64436e-07
8.74126e-07
1.16555e-06
7.51852e-07
-7.28509e-07
-1.28164e-06
8.22975e-07
-7.65083e-07
-4.58175e-07
8.53556e-08
6.05808e-08
-4.42367e-07
-7.53916e-07
7.83765e-07
7.77394e-07
-1.22209e-06
-1.35989e-06
1.41303e-06
-1.29472e-06
-8.44282e-07
-1.24962e-06
-9.62042e-08
-4.78849e-07
-5.25803e-07
-9.57671e-08
-1.22736e-06
-4.4606e-07
-8.15849e-07
-4.8707e-07
8.93048e-08
-5.099e-07
1.19361e-06
-4.56414e-07
7.56084e-07
-1.23449e-06
-1.28713e-06
7.42892e-07
-4.54932e-07
1.12595e-06
-8.18938e-07
-9.72428e-07
-7.70574e-07
1.17205e-06
-1.07919e-06
-1.03419e-06
1.16818e-06
-8.2297e-07
6.85126e-07
1.15452e-06
-8.1758e-07
-1.02206e-06
1.78914e-06
3.42746e-07
-1.00594e-06
3.5741e-07
1.83994e-06
-8.12068e-07
1.16317e-06
1.28836e-06
-7.70448e-07
-1.24091e-06
-8.65282e-07
-1.44519e-06
1.53209e-06
-1.13691e-06
-8.74019e-07
1.25795e-06
7.53846e-07
-8.55647e-07
-1.24518e-06
1.34698e-06
2.07329e-06
4.88627e-07
-1.27355e-06
4.33411e-07
2.10419e-06
-8.61721e-07
1.4007e-06
1.1883e-06
-1.03462e-06
-8.58808e-07
-8.84621e-07
-1.02811e-06
1.20142e-06
-9.87543e-07
-8.77582e-07
1.18143e-06
6.9633e-07
-1.01517e-06
-8.77172e-07
1.19602e-06
1.90505e-06
3.18554e-07
-1.0353e-06
3.1039e-07
1.88219e-06
-8.67306e-07
1.20504e-06
1.17531e-06
6.97901e-07
-8.22004e-07
-1.0512e-06
-8.46849e-07
7.32959e-07
-1.12081e-06
1.23469e-06
-1.02973e-06
7.08475e-07
-8.62674e-07
1.18393e-06
7.17356e-07
-8.3715e-07
-1.06558e-06
1.18537e-06
1.90036e-06
3.40245e-07
-1.0653e-06
3.32626e-07
7.2089e-07
1.90856e-06
-8.50962e-07
1.21146e-06
4.08921e-07
1.86867e-06
-1.10554e-06
-1.05585e-06
1.88328e-06
3.4075e-07
1.85179e-06
3.54054e-07
-1.05132e-06
-1.21651e-06
1.95801e-06
3.911e-07
-1.13259e-06
-8.07737e-07
-6.99442e-07
1.9161e-06
-7.00422e-07
-7.97209e-07
-1.11875e-06
3.54155e-07
4.07886e-07
7.3151e-07
3.70851e-07
-1.94583e-06
3.51869e-07
8.39158e-07
3.37677e-07
1.21805e-06
1.10594e-06
1.08784e-06
1.21942e-06
3.61434e-07
-7.01419e-07
1.88389e-06
-8.41715e-07
1.87517e-06
-8.23217e-07
-8.60358e-07
1.98442e-06
-3.23051e-07
1.89464e-06
-8.63109e-07
-1.0468e-06
1.18369e-06
-8.38311e-07
1.18252e-06
-1.04306e-06
1.9037e-06
1.18695e-06
-3.21002e-07
1.20046e-06
1.07355e-06
1.28172e-06
-1.93824e-06
1.262e-06
-7.02698e-07
8.54341e-07
8.8e-07
-7.22467e-07
1.23108e-06
4.7717e-07
9.11845e-07
7.08127e-08
7.42359e-08
4.59376e-07
8.62746e-07
-1.47262e-06
4.70294e-07
8.9697e-07
1.05352e-07
9.10114e-07
5.13576e-07
4.50302e-08
1.40117e-06
5.78342e-07
5.68178e-07
9.07233e-07
1.39897e-06
8.9489e-08
4.94526e-07
4.61039e-07
3.33911e-08
7.97067e-07
1.94433e-08
7.40548e-07
4.48311e-07
-1.25313e-06
3.43617e-08
7.65217e-07
4.53549e-07
7.74579e-07
1.76059e-08
4.65009e-07
1.23875e-06
4.81089e-07
4.82775e-07
7.7542e-07
1.22779e-06
2.78793e-08
4.57436e-07
4.75655e-07
-1.41965e-06
8.67473e-07
7.65257e-08
5.7428e-08
-1.30101e-06
7.85992e-07
4.57592e-07
-1.38399e-06
8.12144e-07
7.44699e-08
4.97381e-07
8.51734e-07
-1.403e-06
4.81614e-08
5.03108e-07
1.31842e-06
5.43186e-07
-1.38595e-06
5.51767e-07
8.24077e-07
1.3269e-06
6.80235e-08
4.9467e-07
5.1368e-07
8.90347e-07
-3.83979e-08
-8.49377e-09
8.16576e-07
4.86258e-07
-1.38826e-06
8.71748e-07
-9.95831e-10
5.1751e-07
8.72533e-07
-6.28945e-08
5.15202e-07
1.39425e-06
4.7704e-07
5.10446e-07
8.75305e-07
1.39565e-06
-4.60723e-08
5.1783e-07
5.10693e-07
1.3258e-06
-1.44477e-06
1.35702e-06
5.58044e-07
1.41762e-06
5.21812e-07
-4.73145e-07
1.2985e-06
4.7681e-07
4.71012e-08
-8.41254e-07
1.30485e-06
-9.03147e-07
3.02168e-08
5.44687e-07
5.15599e-07
8.43588e-07
8.15873e-07
5.00229e-07
-1.26827e-06
5.06422e-07
7.96212e-07
-6.06444e-08
5.46999e-07
8.7067e-07
4.70426e-07
1.35002e-06
1.31418e-06
4.50082e-07
8.39293e-07
4.9599e-07
-8.8483e-07
1.35836e-06
8.45153e-08
1.39927e-06
1.2888e-08
2.46219e-09
1.29092e-06
-5.22438e-07
1.37454e-06
1.96436e-08
-1.43618e-06
4.98988e-07
5.23636e-08
5.07778e-07
-1.38555e-06
1.3621e-06
4.85703e-07
-5.40021e-07
5.1156e-07
1.31104e-06
4.80108e-07
-1.2583e-06
4.6371e-07
-8.56264e-07
-4.39807e-08
-3.41891e-08
-8.06291e-07
4.70564e-07
-8.90634e-07
4.56258e-07
-2.69582e-07
7.03958e-07
7.12179e-07
-8.99872e-07
4.67741e-07
-2.80048e-07
-2.85367e-07
-8.70252e-07
4.57929e-07
6.9769e-07
4.60545e-07
-8.84613e-07
-2.85308e-07
7.09376e-07
-4.34157e-07
-1.75572e-07
-2.80905e-07
-1.81526e-07
4.59548e-07
-4.20034e-07
7.05006e-07
-8.86927e-07
-9.02929e-07
7.23782e-07
4.72968e-07
-2.93821e-07
7.29662e-07
4.76443e-07
-3.09464e-07
-3.02292e-07
7.175e-07
4.71871e-07
4.74178e-07
7.2263e-07
-3.10609e-07
-4.26461e-07
-1.72762e-07
-3.03706e-07
-1.6923e-07
4.72431e-07
-4.16434e-07
7.1785e-07
-8.64814e-07
-2.90517e-07
4.56068e-07
6.99264e-07
7.09187e-07
-2.96842e-07
4.63022e-07
-2.95672e-07
4.57878e-07
6.99112e-07
4.54009e-07
-2.96172e-07
7.1147e-07
-4.1158e-07
-1.5771e-07
-2.95524e-07
-1.60996e-07
4.58603e-07
-4.05785e-07
7.02083e-07
-8.78331e-07
4.60621e-07
-2.97255e-07
7.14966e-07
7.20612e-07
4.6755e-07
-3.08555e-07
-2.97469e-07
4.54843e-07
7.17827e-07
4.57645e-07
-3.03845e-07
7.24603e-07
-4.15833e-07
-1.59387e-07
-3.03111e-07
-1.6017e-07
4.64949e-07
-4.18166e-07
7.16425e-07
-1.78016e-07
-4.33624e-07
-2.88232e-07
-2.86896e-07
-4.16316e-07
-1.67041e-07
-4.24016e-07
-1.67802e-07
-2.92795e-07
8.86442e-07
-4.16414e-07
-1.66378e-07
-3.0365e-07
7.11953e-07
-4.67291e-07
-4.22677e-07
-4.61869e-07
7.16638e-07
-2.97488e-07
-1.69247e-07
-1.77537e-07
4.67694e-07
4.70595e-07
-1.64379e-07
4.16769e-07
-1.66067e-07
4.66798e-07
-7.05474e-07
-1.7048e-07
4.59638e-07
-8.92194e-07
2.9198e-07
2.96251e-07
-8.81463e-07
4.67969e-07
-1.68442e-07
-4.5535e-07
-4.14216e-07
7.02526e-07
-4.17927e-07
7.10745e-07
7.14985e-07
-4.13813e-07
1.58135e-07
-4.13562e-07
7.10271e-07
-2.92146e-07
-8.72903e-07
7.09699e-07
-8.7932e-07
-3.00613e-07
-4.14155e-07
-8.75214e-07
1.61366e-07
3.00986e-07
4.12956e-07
-4.6205e-07
-7.08688e-07
-7.14839e-07
-4.64174e-07
-6.6869e-07
-2.14681e-07
-7.21175e-07
1.60455e-06
-1.37596e-07
-6.92352e-07
-6.02592e-07
1.43254e-06
1.39641e-06
-5.98362e-07
-2.39047e-07
-5.59002e-07
-5.75308e-07
-7.0018e-07
-1.83264e-07
1.45875e-06
-1.318e-06
-8.82193e-07
1.5315e-06
-7.94212e-07
-6.61386e-07
-1.25073e-06
-2.06771e-07
-6.48531e-07
-6.88582e-07
-6.05438e-08