/*--------------------------------*- C++ -*----------------------------------*\
| =========                 |                                                 |
| \\      /  F ield         | OpenFOAM: The Open Source CFD Toolbox           |
|  \\    /   O peration     | Version:  2506                                  |
|   \\  /    A nd           | Website:  www.openfoam.com                      |
|    \\/     M anipulation  |                                                 |
\*---------------------------------------------------------------------------*/
FoamFile
{
    version     2.0;
    format      ascii;
    arch        "LSB;label=32;scalar=64";
    class       surfaceScalarField;
    location    "1100";
    object      phi;
}
// * * * * * * * * * * * * * * * * * * * * * * * * * * * * * * * * * * * * * //

dimensions      [0 3 -1 0 0 0 0];

oriented        oriented;

internalField   nonuniform List<scalar> 
94240
(
-1.128e-06
1.67339e-06
4.3867e-07
1.82384e-06
-1.28179e-06
4.41923e-07
4.08497e-07
-9.84075e-07
1.55965e-06
-1.19438e-06
-3.69825e-06
3.68562e-06
1.20674e-06
-2.207e-06
6.49519e-07
4.29311e-07
6.01122e-07
-2.84406e-06
2.29912e-06
-1.83446e-06
-1.55704e-06
2.07245e-06
4.68695e-07
2.28534e-06
5.5271e-07
-1.85411e-06
6.36659e-07
1.70181e-06
-1.35446e-06
-1.57996e-06
4.7419e-06
2.69066e-06
-5.85292e-06
-2.62412e-06
5.72109e-07
4.9455e-07
6.45521e-07
-4.6318e-06
3.62402e-06
-3.34968e-06
-1.16165e-06
5.67507e-07
1.57828e-06
1.58737e-06
9.24008e-07
-1.52736e-06
1.31421e-06
1.56527e-06
-1.89544e-06
-1.99241e-06
3.30604e-06
4.12787e-06
-5.44174e-06
-2.22506e-06
5.02092e-07
5.60983e-07
3.46597e-07
-4.78143e-06
3.29104e-06
-3.12066e-06
-7.83945e-06
-2.78768e-06
7.24577e-06
3.3814e-06
6.88409e-06
-3.37931e-06
6.04982e-06
-9.55463e-06
6.56838e-06
-3.942e-06
8.2868e-06
-1.09133e-05
-5.89484e-06
1.1242e-05
7.976e-06
-1.3323e-05
-1.18445e-05
-8.94932e-07
4.89998e-06
-1.86581e-06
-3.09446e-06
-1.62119e-05
9.42224e-06
-1.15093e-05
7.55672e-07
-2.3836e-06
3.46033e-07
3.34804e-07
-1.90836e-06
5.89517e-07
-5.72018e-06
4.52997e-07
1.56895e-06
5.10021e-06
-6.88053e-06
-4.44417e-07
2.22429e-06
2.84884e-06
1.63259e-06
-3.7257e-06
1.34918e-06
4.84389e-06
1.88886e-06
4.72999e-07
6.73207e-07
-1.44554e-06
-6.93054e-07
2.09502e-06
5.91135e-07
-1.67052e-06
7.46628e-07
-2.59039e-06
-4.62003e-07
-4.11875e-07
-1.14817e-06
5.34964e-07
1.47121e-06
-3.65706e-06
2.77543e-06
-8.25477e-06
5.92024e-06
7.01067e-06
-1.08343e-05
-4.03311e-07
-9.95161e-06
6.41289e-06
1.46695e-06
-3.6615e-06
3.66595e-06
-6.31477e-06
2.39857e-06
-6.46326e-06
-2.34292e-06
2.09378e-07
-6.85504e-06
-3.33373e-06
-8.19365e-06
4.8416e-06
-3.32654e-06
1.67798e-06
-3.45991e-06
-4.57588e-06
1.91666e-06
-5.99299e-06
1.06035e-06
1.22098e-06
-6.0818e-07
1.20379e-06
9.75285e-07
-6.19818e-07
-2.42424e-06
7.51294e-07
2.46687e-06
-7.94256e-07
1.37666e-07
1.01696e-06
2.53068e-06
7.44176e-07
2.61502e-06
2.44766e-06
-4.99824e-07
8.82757e-07
1.86941e-06
9.06087e-07
6.31611e-07
1.51488e-06
-5.6858e-07
2.2069e-06
1.64252e-08
-6.58962e-07
-2.75677e-06
3.78305e-06
-2.48689e-07
-7.78072e-07
-5.99215e-07
5.25168e-06
-5.24615e-07
1.92649e-07
3.72994e-06
2.74118e-06
-3.41889e-07
-3.14464e-07
3.44473e-06
-3.30434e-07
1.1094e-07
-2.89755e-06
4.96073e-06
-2.17448e-06
5.41285e-06
-3.34799e-06
1.45529e-07
-2.21062e-06
-3.46361e-06
-1.09234e-06
8.77925e-06
-4.22349e-06
-2.13139e-06
-5.59586e-06
2.40068e-06
5.32633e-06
-2.09226e-06
6.10986e-06
-3.90698e-06
6.09454e-06
-2.77395e-06
-1.10258e-06
5.08101e-06
1.5284e-06
1.10921e-07
-2.3608e-07
7.37106e-06
1.01785e-05
-1.24918e-06
-6.42756e-07
-8.55869e-06
-1.3655e-06
1.20688e-06
8.71663e-06
-2.67163e-06
-1.54715e-06
1.54609e-05
-1.10012e-06
1.06335e-05
9.8065e-06
-7.28174e-07
-2.08765e-06
1.00494e-05
-8.40035e-07
3.12188e-06
6.28737e-07
-3.15029e-06
-3.23182e-07
4.22444e-06
1.17607e-06
5.76105e-06
-7.48098e-07
-7.11623e-08
7.23231e-06
2.74044e-06
1.26285e-07
2.5517e-07
4.9623e-07
3.04409e-06
4.71638e-06
2.70525e-06
-5.61669e-07
-4.34351e-07
5.61488e-06
7.67558e-07
4.19672e-06
-1.1816e-06
-3.0675e-06
3.89535e-06
-1.15128e-06
4.31127e-07
2.52929e-06
3.44143e-06
4.224e-07
-9.60838e-07
4.63129e-06
1.05864e-06
-3.43512e-09
3.16866e-06
1.30879e-06
4.2159e-06
5.74367e-06
2.39511e-07
-7.14282e-06
5.28147e-07
5.24883e-06
-4.55526e-06
1.40846e-06
4.20506e-06
1.46994e-06
-6.48544e-06
7.51223e-07
9.93866e-07
-6.91966e-06
1.85193e-06
5.35817e-06
4.96375e-07
4.41978e-07
4.06036e-07
1.20854e-06
-4.12177e-06
-4.95999e-06
9.51462e-07
1.34953e-06
-5.43164e-06
1.04338e-05
-6.09453e-06
-1.12978e-06
-7.14222e-06
1.06727e-05
7.75584e-06
-4.75998e-06
-2.85051e-06
-1.16027e-06
-8.19773e-06
1.22346e-05
-2.87683e-06
-7.10469e-06
-8.95333e-06
1.06264e-05
-6.70609e-06
-5.88264e-06
-4.23104e-06
-4.83289e-06
-1.28468e-05
-1.38048e-06
1.5434e-05
-5.06618e-06
1.9956e-05
-1.64369e-05
1.43876e-05
-2.1038e-06
-1.29267e-05
2.73636e-06
-4.80577e-06
1.80115e-05
-1.5942e-05
-1.24557e-05
-1.65879e-05
1.61966e-05
-1.8362e-05
-1.13738e-05
-2.4778e-06
-1.53481e-05
-4.463e-06
5.30771e-06
-1.09354e-06
-1.13826e-06
8.71763e-06
-8.10409e-06
4.51462e-06
-4.83278e-07
-4.01529e-06
5.6792e-07
1.07151e-05
-1.68092e-06
-9.60248e-06
-4.79962e-06
-6.34702e-06
6.68267e-06
-6.26846e-06
-3.67374e-06
-2.10575e-06
-5.42764e-06
-1.58782e-05
-1.06068e-06
2.01115e-05
-3.17219e-06
-4.18142e-06
-3.24637e-07
1.69465e-05
-1.24398e-05
1.83026e-05
2.72916e-06
-3.78396e-06
-1.72475e-05
1.57501e-06
1.32972e-05
-3.18267e-06
-1.16896e-05
-1.61073e-05
-1.9529e-05
1.97587e-05
-2.16973e-05
1.40893e-06
-1.3681e-05
-4.27275e-06
-1.70757e-05
-9.28994e-06
-1.02829e-05
1.24306e-05
7.4924e-06
-6.04621e-06
-6.20647e-06
-1.08416e-05
-1.12021e-05
1.38459e-05
1.29416e-05
-1.36791e-05
-1.74166e-05
1.81544e-05
-1.48927e-06
1.72771e-06
-9.52842e-06
1.17008e-06
-2.74203e-06
1.74113e-05
-1.24136e-05
-9.81153e-06
-1.10606e-06
-1.73787e-05
9.78596e-06
-1.13936e-05
6.04049e-07
-6.2443e-06
-9.0469e-06
-1.02931e-05
-1.26308e-05
-8.33954e-06
-1.11844e-05
6.25451e-07
-4.69348e-06
-2.13943e-06
-1.05167e-05
-1.74612e-06
-4.60271e-06
-1.31383e-05
1.43451e-05
-8.75313e-06
-2.86366e-06
1.13668e-05
-9.35768e-06
-1.38387e-06
-1.15635e-05
1.47573e-05
-9.77033e-06
-5.63037e-06
1.51702e-05
-1.32086e-05
-1.63434e-05
-1.41737e-05
7.69815e-06
-1.03742e-05
-1.29539e-06
2.34693e-06
4.10445e-06
-1.13948e-06
-1.33784e-05
9.99184e-06
1.70112e-05
-2.40777e-06
-2.45954e-05
1.65276e-05
3.99422e-06
-4.52534e-06
-1.59963e-05
-5.71299e-06
1.29244e-05
1.93479e-05
-2.65595e-05
-2.45647e-05
1.45754e-05
1.39294e-05
-3.93992e-06
-1.44641e-05
2.70219e-05
-2.56608e-06
2.58781e-05
-2.38148e-05
-1.30306e-05
1.54877e-05
7.13448e-06
-4.70519e-06
2.97106e-06
-9.65293e-07
2.70006e-06
1.41942e-07
-3.95055e-06
1.17583e-07
3.69141e-06
-2.25471e-06
1.5886e-06
-3.03474e-06
3.70102e-06
4.44142e-06
2.01343e-06
-4.05238e-06
-2.40201e-06
-1.06853e-06
-1.58039e-06
-2.05575e-06
-2.26965e-06
1.34432e-06
4.55537e-07
2.40577e-06
-4.06875e-06
9.25783e-06
-4.75547e-06
1.47514e-05
-1.92537e-05
4.20612e-06
-2.31814e-06
1.82849e-06
-3.71648e-06
-2.42348e-06
8.56032e-06
1.3513e-05
-1.96497e-05
-1.00865e-05
2.54777e-07
1.55092e-06
8.28092e-06
-3.7863e-06
1.57903e-05
-2.74618e-06
1.11451e-05
-1.07254e-05
-5.39015e-06
1.10941e-05
3.33145e-06
1.40333e-05
-2.17221e-05
9.88543e-06
-2.19637e-06
3.20218e-06
1.09014e-06
5.09134e-07
-4.80143e-06
-2.25512e-06
-7.17972e-06
2.44231e-06
6.99245e-06
-1.43118e-05
1.07979e-05
7.02963e-06
-3.51571e-06
-4.1802e-06
2.23578e-05
-4.14398e-06
-1.12931e-06
1.5158e-07
-7.19989e-07
8.76613e-06
-4.10451e-06
1.25359e-05
-5.34149e-06
-3.20022e-06
-6.06102e-06
-7.00498e-06
2.59901e-05
-9.64207e-06
2.62881e-05
-2.07052e-06
-8.89387e-07
-1.13138e-06
4.69014e-06
-2.66974e-06
1.1246e-05
5.36923e-06
-4.07958e-06
1.23195e-05
7.91252e-06
-3.43272e-06
1.059e-05
2.06095e-06
-4.4313e-06
2.02289e-06
-1.14078e-06
1.39217e-06
6.84423e-08
1.27431e-07
-5.92269e-06
1.27774e-05
-1.38597e-05
-3.2392e-06
1.22079e-06
1.18954e-06
-3.24088e-06
-1.46144e-06
-6.59337e-07
1.69328e-05
-6.50592e-06
1.55632e-05
-7.59569e-06
1.21618e-05
4.26093e-06
1.51928e-06
-1.45969e-05
-2.17418e-06
9.59154e-06
-4.43743e-06
9.36402e-06
1.20064e-05
-1.44302e-06
-2.96949e-06
-2.26339e-06
1.51605e-06
2.49029e-06
-4.40971e-06
2.87958e-06
-2.50087e-06
-1.84049e-06
-4.08669e-07
-5.05301e-07
-7.2497e-07
-2.78296e-07
-3.22456e-06
-6.22873e-07
1.39589e-07
-1.84728e-05
1.1524e-05
6.80934e-06
-2.01538e-05
1.38276e-06
1.20138e-05
6.75732e-06
1.19345e-05
2.29278e-06
-2.06189e-05
6.3918e-06
7.37469e-06
1.64119e-06
-1.96159e-05
1.06004e-05
7.92464e-06
-1.93712e-05
1.15862e-05
-1.88377e-05
6.60857e-06
8.11011e-06
-2.01064e-05
1.20696e-06
1.55724e-06
-1.86759e-05
1.1214e-05
5.90484e-06
-1.74665e-05
1.1204e-05
1.43771e-06
4.82507e-06
9.9437e-06
-1.519e-05
1.34132e-06
3.90533e-06
5.74522e-06
-1.79076e-05
1.0511e-05
1.65152e-06
6.97365e-06
-1.60058e-05
1.05895e-05
-1.50866e-05
4.59374e-06
6.7672e-06
-1.70278e-05
1.62437e-06
2.36365e-06
9.31125e-06
-1.52102e-05
3.53557e-06
-1.41964e-05
8.92557e-06
2.53774e-06
2.73335e-06
8.55987e-06
-1.44364e-05
4.24544e-06
1.63109e-06
3.77005e-06
6.92976e-06
-1.14754e-05
7.75589e-07
5.37824e-06
-1.11548e-05
8.14027e-06
-1.14629e-05
2.6447e-06
5.73302e-06
-1.31178e-05
2.83005e-06
5.69481e-06
7.19277e-06
-2.26673e-05
9.7799e-06
-2.12911e-05
6.80324e-06
1.05862e-05
3.90197e-06
7.9534e-06
6.59438e-06
-1.80893e-05
3.54139e-06
7.22382e-06
-2.48911e-05
1.08927e-05
6.77482e-06
1.19945e-05
-1.70203e-05
1.07207e-05
-1.57835e-05
6.48684e-06
1.17313e-05
-2.15278e-05
3.90118e-06
-1.73267e-05
7.82587e-06
1.08836e-05
1.08924e-05
7.26798e-06
-1.58676e-05
8.70736e-06
-1.7383e-05
1.0317e-05
-2.34831e-06
8.51389e-06
-1.69139e-05
1.07484e-05
-1.82604e-05
-6.45736e-06
7.3911e-06
-6.16097e-06
-1.95734e-05
1.07679e-05
-1.7027e-05
-1.63472e-05
5.49727e-06
5.7556e-06
-1.51494e-05
-5.6355e-06
-1.30192e-05
3.46475e-06
1.70026e-05
-1.41558e-05
4.42119e-06
1.54498e-06
-1.05011e-05
-9.7272e-06
1.81923e-06
4.68226e-06
-1.35434e-05
-5.94129e-06
6.44286e-06
-1.63692e-05
9.12746e-06
-1.93177e-05
-1.87927e-05
8.68204e-06
1.43344e-05
6.39088e-06
-1.41308e-05
1.06621e-05
1.96825e-06
-1.85716e-05
2.76248e-06
9.54342e-06
6.75915e-06
1.59839e-06
1.23396e-05
9.80978e-07
-8.4246e-06
1.95727e-06
-5.60538e-06
1.51179e-06
-4.55341e-06
1.42921e-05
1.45453e-05
-4.85677e-06
1.26388e-06
-3.23483e-07
2.24846e-07
4.79872e-07
-3.80652e-07
1.47829e-06
7.49951e-07
-2.65393e-06
4.26281e-07
-3.21225e-07
-6.53913e-07
1.19865e-06
-2.21883e-07
1.15187e-07
2.49377e-06
-2.39213e-06
-2.16175e-07
3.52413e-07
-4.07985e-07
-2.65175e-07
8.44195e-07
9.87547e-07
-2.12717e-07
-7.92752e-08
3.10687e-07
-1.51865e-06
1.96118e-06
-2.56662e-06
2.12422e-06
-6.43244e-07
3.95655e-09
8.37618e-07
-1.98121e-07
1.74285e-06
-4.5245e-08
-1.12422e-06
-5.73157e-07
-1.92763e-07
2.27328e-06
-8.6971e-07
-1.21048e-06
-7.13784e-07
1.27635e-06
-2.08119e-06
-2.10802e-06
7.50944e-07
-9.26168e-07
2.00974e-06
-1.29129e-06
4.75101e-07
-4.65555e-06
1.50889e-06
2.67173e-06
-1.02696e-07
2.04639e-06
-1.89093e-06
-5.20317e-08
-2.39383e-06
-4.69922e-07
1.66266e-06
1.20138e-06
1.76868e-06
-5.72394e-06
2.36169e-06
1.59369e-06
9.11163e-07
3.24385e-06
-3.67969e-06
5.95584e-07
2.13217e-07
2.9462e-06
2.06648e-06
1.14801e-06
2.39954e-06
1.16371e-07
-7.67795e-06
5.16214e-06
8.44143e-06
-1.10731e-06
1.20658e-06
-8.54064e-06
-9.22092e-06
-5.1357e-07
2.44062e-06
7.29378e-06
-1.62522e-06
7.2891e-06
-1.8831e-05
1.31673e-05
1.4824e-06
8.50228e-06
-7.585e-06
1.04266e-05
-5.02833e-07
1.83672e-06
5.04034e-06
3.04234e-06
3.61044e-06
6.03956e-07
-3.4643e-06
-4.28168e-06
1.32341e-06
2.30482e-06
2.90136e-06
2.37629e-06
-2.78419e-06
-2.5461e-06
1.00606e-06
8.04028e-06
-6.50023e-06
2.52225e-06
-6.26738e-07
1.71531e-06
-1.44894e-06
2.31276e-06
-5.48558e-06
3.76473e-06
8.46012e-07
1.71978e-06
-1.6838e-07
3.44822e-06
1.07744e-06
-3.13366e-06
2.01119e-06
-2.85871e-06
3.08289e-06
1.09933e-06
-2.86255e-07
2.84756e-06
1.55551e-06
-1.13151e-06
1.12074e-06
1.50191e-06
-2.56083e-06
1.96611e-06
2.89935e-06
1.68675e-06
8.05627e-07
3.70474e-06
3.22835e-06
-1.69191e-06
2.02924e-06
-8.51644e-07
-3.34427e-06
-1.76134e-07
9.58771e-07
2.107e-06
-5.3089e-06
3.44064e-06
3.93578e-07
-6.56697e-06
2.87226e-06
4.61973e-06
2.05745e-06
1.19349e-06
-2.28056e-06
-7.46475e-07
-2.53959e-06
-3.87276e-06
1.55972e-07
9.03497e-07
2.85628e-07
-1.6398e-06
8.84273e-07
3.3329e-06
-3.35479e-06
2.38345e-06
-3.12381e-06
3.03349e-06
-1.80079e-06
-1.19307e-06
2.7218e-06
-1.4238e-06
-1.05193e-07
-3.254e-06
1.90861e-06
1.6309e-06
1.22696e-06
2.51898e-06
-1.80338e-06
6.2223e-07
-5.01056e-06
1.72859e-06
5.72265e-06
6.01049e-07
1.52484e-05
3.61114e-06
-5.75892e-07
-6.59827e-07
-2.26547e-06
4.47588e-06
-8.65104e-06
-2.77879e-06
6.41906e-06
-5.00769e-06
-1.93489e-06
-1.50375e-06
4.43275e-06
-2.71861e-06
-2.83838e-06
-2.35396e-06
-1.55015e-06
-1.42095e-06
-2.52562e-06
-4.17355e-07
-6.41302e-07
-2.99361e-06
4.96872e-06
1.38409e-06
-1.91978e-06
1.32352e-06
4.16618e-06
-3.19939e-06
-2.64416e-06
2.39654e-06
-3.15749e-06
3.40483e-06
-1.13936e-06
-1.0361e-06
4.61706e-06
2.96809e-06
1.36385e-06
-3.82287e-06
2.83074e-06
-3.51336e-06
1.14804e-05
1.18122e-06
-7.50972e-06
3.68385e-06
6.8262e-07
-6.41291e-07
4.53797e-07
-5.13295e-06
-3.80536e-07
-4.78107e-06
1.80754e-06
-1.7496e-06
3.07894e-06
1.70427e-06
3.61832e-06
-4.68202e-07
-4.28245e-07
-3.41201e-06
2.86758e-06
1.05428e-06
-5.10173e-07
9.65629e-07
8.00707e-07
-2.14635e-06
-1.61633e-07
-2.35063e-06
-2.60538e-07
1.10609e-06
-1.80034e-07
4.10083e-07
1.92288e-07
2.75061e-06
-1.2673e-06
-5.17677e-07
1.31647e-06
-7.04904e-07
-1.62093e-06
-1.79796e-06
-1.23386e-06
-2.80128e-07
-8.41018e-07
4.82793e-06
-2.28252e-06
4.5165e-06
-2.58818e-06
-3.21112e-06
3.22927e-06
4.63029e-07
3.24997e-06
-2.34892e-06
-1.53458e-06
2.80148e-06
-2.1078e-06
4.08793e-06
-2.35523e-07
3.50035e-06
3.42607e-06
1.0818e-07
-9.87968e-07
-3.22528e-06
-8.27364e-07
2.33435e-06
2.7814e-06
-1.17056e-06
-1.97545e-05
-5.17591e-07
1.79939e-06
-3.89618e-07
-1.91913e-05
-3.48509e-08
1.39878e-06
-2.10197e-05
-9.97893e-07
1.68429e-05
-1.5681e-05
-4.36228e-07
-7.25631e-07
-1.72862e-06
-1.84554e-05
4.29847e-07
-2.22244e-05
-1.34322e-06
-2.68902e-07
-2.21688e-05
-1.93823e-05
-1.09267e-06
-2.19221e-06
-1.97615e-06
-2.95894e-06
-2.48318e-06
-1.72159e-07
2.49276e-05
-2.72262e-06
-4.19339e-06
4.85988e-06
-2.16316e-05
-2.61058e-06
-1.86441e-05
4.93065e-06
-1.6347e-06
-1.35551e-05
1.27857e-06
-2.93367e-06
-1.17268e-06
3.70016e-07
1.30035e-06
-5.30298e-06
1.36748e-05
2.05864e-07
-1.64635e-06
7.65782e-07
-1.52012e-05
8.80326e-07
-1.35246e-05
1.5979e-06
-3.12424e-06
-1.26092e-05
1.45509e-05
9.84622e-08
-2.04016e-06
-1.09764e-06
2.07126e-05
-2.66818e-06
-2.36827e-06
2.25951e-05
-1.15157e-07
1.64409e-05
-1.03658e-07
-3.03983e-06
2.64896e-06
-1.34366e-05
-1.82101e-06
-2.10818e-05
2.26335e-05
3.69139e-06
-6.86767e-07
-1.9158e-05
4.53411e-07
-4.86631e-07
1.04989e-06
9.35621e-08
-2.2163e-05
1.80839e-08
-1.46714e-05
-1.02752e-06
1.77859e-05
2.90011e-06
-1.88405e-05
-1.84523e-06
-4.03407e-08
-1.95531e-05
4.35449e-07
-2.11592e-05
-3.55909e-07
-1.41125e-06
-2.14969e-05
-1.99569e-05
2.02937e-05
-2.0116e-05
-5.24473e-07
-1.37785e-05
8.70793e-07
-1.71462e-05
-1.88053e-05
-7.16196e-07
-1.46277e-07
-1.8417e-05
-1.90878e-05
-2.15926e-05
6.48086e-08
-6.34909e-07
3.28772e-07
-4.49049e-07
-7.3535e-07
2.60764e-06
2.17619e-05
1.58943e-06
-7.56369e-07
1.77501e-07
-2.13801e-05
-3.89998e-07
-2.09905e-05
-9.07602e-07
1.28948e-06
-1.58028e-05
1.56412e-05
6.46002e-07
-9.77892e-07
-1.57733e-05
8.50906e-07
1.15739e-06
-1.92147e-05
6.26527e-06
-1.8688e-06
4.4095e-06
-8.80564e-06
-6.42031e-06
4.1286e-06
-1.30848e-06
3.60118e-06
2.65206e-06
-4.46109e-07
-1.51642e-06
-6.89729e-07
-2.83321e-06
5.23923e-06
2.72721e-06
-5.1336e-06
7.75853e-06
-1.62622e-06
1.335e-07
-1.63592e-06
2.97414e-06
6.27297e-07
-5.0871e-06
1.64354e-06
1.60931e-06
-2.40825e-06
-9.23572e-07
1.72473e-06
1.302e-06
1.8357e-06
-2.30015e-06
-3.82574e-06
-1.91027e-06
3.16989e-06
8.21037e-07
2.52942e-07
-2.2843e-06
5.97434e-07
1.70468e-06
-6.91866e-07
8.76055e-07
1.02381e-06
5.03087e-06
-2.50503e-06
1.38397e-06
3.19623e-06
-3.01405e-06
-1.5661e-06
-1.87271e-06
-1.58486e-06
8.03828e-07
6.22904e-07
2.93536e-07
-6.9131e-07
-7.3634e-07
1.06523e-06
-2.72066e-06
9.54831e-07
-1.19462e-06
1.6242e-06
-5.55656e-07
-3.61943e-07
1.97927e-07
-2.12819e-06
8.24361e-06
-3.03168e-07
-2.92094e-06
-5.01956e-06
-8.21496e-07
-6.02767e-07
-7.11638e-06
-3.53489e-06
-8.53808e-07
-3.28916e-06
-2.51907e-06
-1.05367e-05
-5.77492e-06
5.87045e-06
4.55391e-06
-2.18025e-06
4.49379e-06
5.5529e-07
6.6261e-06
-4.59098e-06
-1.00154e-07
6.0213e-06
-1.79126e-06
8.0869e-07
-9.81361e-07
-2.73471e-07
4.76825e-06
3.23362e-07
1.47507e-07
-5.13254e-06
4.77623e-06
3.19054e-06
-2.83417e-06
-3.15573e-06
-2.18624e-06
5.24202e-06
-7.03492e-07
-3.53109e-06
-3.78763e-06
5.33636e-07
8.97945e-07
2.71531e-06
2.60517e-06
2.42413e-06
-5.93803e-06
9.47014e-07
3.08124e-06
1.23676e-06
-4.60302e-07
-1.75769e-06
4.29782e-06
1.84245e-06
4.39811e-06
1.92458e-06
1.15505e-06
3.84712e-07
2.66521e-06
-7.9179e-07
-2.14728e-06
2.91607e-06
-2.89635e-06
-4.59952e-06
7.18748e-06
-4.99072e-07
1.3781e-06
-1.73269e-06
1.93573e-06
2.02035e-06
-1.29096e-06
5.38551e-06
-1.34129e-06
2.86308e-06
1.94422e-06
-3.40747e-07
3.11145e-06
-4.10188e-06
4.32653e-07
3.13609e-06
2.95512e-06
-5.80986e-07
1.40257e-05
-9.96711e-06
-1.77439e-06
-2.28426e-06
-3.36035e-06
1.97333e-05
-1.24186e-05
-3.95433e-06
-6.38181e-06
9.9975e-06
-1.36301e-06
-2.25273e-06
-2.54915e-06
1.34254e-05
-5.71717e-06
-5.15924e-06
1.1471e-05
1.07361e-05
-8.18147e-06
1.13374e-05
-3.22672e-06
1.01983e-05
-2.0114e-06
1.51539e-05
2.11491e-05
-4.12181e-06
-1.28193e-05
-4.20791e-06
-3.79524e-06
-1.16536e-05
2.04028e-05
-4.95391e-06
-1.21709e-05
-2.32211e-06
1.90553e-05
-4.56234e-06
-5.15698e-06
-7.16324e-06
-9.21167e-06
2.15319e-05
1.64386e-05
1.73868e-05
-1.26763e-05
1.66817e-05
-4.0383e-06
1.71074e-05
-4.87745e-06
2.16182e-05
7.23531e-06
-4.42861e-06
-1.0735e-06
-1.7337e-06
-1.11146e-06
-9.38418e-06
1.40742e-05
-3.57889e-06
-3.52432e-06
5.81916e-06
-7.16234e-07
-1.57894e-06
-3.38707e-06
-3.23285e-06
9.19315e-06
-2.57358e-06
5.23572e-06
7.42895e-06
-5.4295e-06
6.94077e-06
-2.81659e-06
4.90755e-06
-8.65813e-07
8.32396e-06
1.21305e-05
-2.14156e-06
-8.42455e-07
-9.14653e-06
-8.92139e-06
-3.9395e-06
-4.13877e-07
1.32747e-05
1.50817e-07
-3.18656e-06
1.06101e-05
-7.57481e-06
-3.51253e-06
-1.9673e-06
1.76625e-05
-1.21828e-05
8.56418e-06
3.0977e-06
4.68461e-07
3.64843e-06
-4.00572e-06
8.38359e-06
-8.79837e-06
1.21828e-05
1.57988e-05
1.70025e-05
-1.30678e-05
-6.88828e-06
7.69859e-06
9.18723e-06
1.08593e-05
6.11506e-06
-3.54876e-06
-1.89805e-05
1.59073e-05
9.3066e-06
-6.23308e-06
-4.21023e-06
4.37669e-06
1.56324e-05
4.05544e-06
-6.37286e-06
-8.23088e-06
8.54193e-06
1.66676e-05
-3.78686e-06
-5.06716e-06
1.38114e-05
-1.24529e-05
1.40099e-05
-3.87918e-06
1.58147e-06
9.26623e-06
-3.14904e-06
2.20394e-05
1.02609e-05
1.20949e-05
1.55177e-05
-3.67516e-06
1.51598e-05
3.06052e-06
7.33172e-06
-1.2052e-06
9.21298e-06
-5.23946e-06
-6.86365e-06
1.22308e-05
-6.31163e-06
6.95389e-06
-3.829e-06
-3.86767e-06
1.09919e-05
-4.06373e-06
1.38872e-05
-3.01787e-06
7.69814e-06
1.21694e-05
-7.81543e-06
1.15365e-05
7.16032e-06
1.88819e-05
-1.23836e-05
1.70094e-05
4.49627e-06
2.24364e-06
4.37901e-06
5.01986e-06
1.65593e-05
3.72345e-07
1.88761e-06
-1.09941e-05
1.09949e-06
1.04876e-06
1.34455e-06
1.08616e-06
9.09633e-06
1.24992e-06
2.54288e-07
9.45804e-06
-1.04091e-05
1.32343e-06
-1.05239e-05
1.02735e-05
1.09418e-06
1.27593e-06
-1.01277e-05
4.26808e-07
-1.027e-05
1.4632e-06
-4.28307e-08
-4.24101e-08
-1.10443e-05
1.78589e-06
8.84143e-06
-1.00113e-05
1.64457e-06
-4.74713e-07
1.02395e-05
-8.97447e-06
1.10392e-08
-8.85139e-06
1.06242e-05
-1.07573e-05
1.73047e-06
1.24613e-06
1.14113e-06
-1.10021e-05
4.65777e-07
1.52795e-06
1.35833e-06
1.20086e-06
8.61936e-06
2.27398e-09
1.88938e-06
9.92845e-06
-9.34417e-06
6.61961e-07
-9.68179e-06
9.86466e-06
1.54122e-06
2.40601e-06
8.65943e-06
-1.28547e-06
-1.06975e-05
9.39299e-06
1.89741e-06
-5.92822e-07
-8.97033e-07
9.13092e-06
2.35235e-06
9.70186e-06
2.69425e-06
-1.50324e-06
1.14595e-05
-8.27495e-06
-7.78342e-07
-8.52712e-06
9.28912e-06
1.21476e-05
2.72346e-06
-9.43206e-06
9.86593e-06
6.65657e-07
7.86919e-07
1.0047e-05
-9.74763e-06
1.0112e-05
-8.78839e-06
-7.34525e-08
-1.37979e-06
1.03585e-05
-8.76589e-06
-2.12806e-07
-1.0963e-05
-8.32232e-06
9.85333e-06
-9.08191e-06
-9.80183e-06
9.97754e-08
-8.77175e-06
-8.80016e-06
9.10109e-06
-8.75395e-06
-1.08191e-05
-9.33005e-06
1.07597e-05
-9.36288e-06
1.47927e-06
-4.26113e-07
-1.7688e-07
1.68205e-06
-9.31386e-06
-8.64778e-06
9.7838e-06
1.0188e-05
-1.07671e-05
1.13942e-05
8.75764e-06
1.11217e-05
3.83954e-07
1.73616e-06
1.80024e-06
-3.22248e-07
1.0816e-05
1.56209e-06
8.76041e-06
2.36356e-06
6.09164e-07
2.03107e-06
-1.09633e-05
2.09907e-06
-9.08124e-06
1.13053e-05
1.04952e-05
-8.97186e-06
2.13251e-06
-2.31376e-05
5.37272e-06
1.13067e-05
6.45839e-06
1.02083e-05
-2.4702e-05
8.82335e-06
5.67047e-06
4.27438e-06
-2.19924e-05
1.02663e-05
7.45178e-06
7.75227e-06
-1.90538e-05
1.31236e-06
9.98951e-06
-1.65627e-05
-1.04232e-05
3.84834e-06
-1.28022e-05
6.44772e-06
-1.34187e-05
1.07478e-05
-2.19465e-05
-2.6316e-05
9.6391e-06
1.19332e-05
4.74394e-06
8.83631e-06
-2.42705e-05
1.29549e-05
2.47947e-06
1.07106e-05
1.01341e-05
-2.7411e-05
6.56627e-06
5.94382e-06
7.52374e-06
-2.38236e-05
1.03562e-05
-2.08187e-05
-1.69388e-05
1.14415e-05
-1.69503e-05
4.96793e-06
-2.04654e-05
9.47039e-06
-2.6705e-05
-1.72164e-05
2.96601e-06
7.01516e-06
7.23519e-06
8.44372e-06
5.82829e-06
-2.23751e-05
8.10318e-06
3.92393e-06
-9.47429e-06
1.14551e-06
4.4047e-06
5.52916e-06
2.36274e-06
-1.23546e-05
4.46234e-06
-1.13004e-05
-9.33851e-06
3.42211e-06
-1.02823e-05
7.42563e-06
-7.44131e-06
3.63178e-06
-1.37997e-05
-1.59525e-05
8.49351e-06
-6.28272e-07
8.08766e-06
7.78933e-06
8.84938e-06
-1.75555e-05
9.16927e-07
6.38805e-07
7.01876e-06
-1.35635e-05
5.90555e-06
8.415e-06
-1.74579e-05
2.34223e-06
6.70069e-06
-7.79517e-06
-8.57455e-06
4.17188e-07
-8.22688e-06
8.22096e-06
-7.70265e-06
7.54295e-06
-1.52907e-05
-1.40176e-05
-1.89095e-05
8.22515e-06
4.51091e-06
-1.61145e-05
-1.03887e-05
-1.21714e-05
-7.77065e-06
8.88326e-07
2.14607e-05
-1.41802e-05
-1.14625e-05
4.1821e-06
1.00961e-05
-7.35869e-06
-1.67549e-05
-7.33951e-06
8.95771e-06
5.14444e-06
-1.05532e-05
-1.47663e-05
5.49587e-06
6.67556e-06
-1.3332e-05
1.92543e-05
-1.57758e-05
6.65571e-06
-1.0973e-05
-1.26495e-05
7.50814e-06
-2.43789e-05
-7.14221e-06
-8.23293e-06
-2.53499e-05
7.2347e-06
-1.43285e-05
-7.53548e-06
-1.05414e-05
7.68831e-06
-7.9412e-06
8.66414e-06
8.5593e-06
-1.11725e-05
8.17472e-06
-7.65097e-06
6.49461e-06
7.36433e-07
-1.54383e-05
7.1662e-06
-1.7758e-05
9.77766e-07
-8.24181e-06
-2.0225e-05
8.8295e-06
-1.41179e-05
-3.49805e-06
-2.10065e-05
1.44045e-05
-2.4352e-05
-7.8259e-06
-8.97707e-06
-7.23821e-06
-8.901e-06
-1.96372e-05
2.05229e-06
2.46016e-06
-3.3269e-05
2.87571e-05
2.31525e-06
7.10348e-07
-1.70286e-05
1.40034e-05
9.85468e-06
-5.3078e-06
5.83413e-06
-1.03805e-05
-1.21552e-05
-1.84151e-06
-3.27564e-07
1.4324e-05
-2.53582e-05
3.41398e-06
2.39969e-05
4.23357e-06
-2.72765e-05
-1.3664e-05
4.92306e-06
4.24643e-07
3.42444e-07
5.52873e-06
-5.04604e-06
-8.24201e-07
6.86506e-06
-3.16488e-06
-1.86406e-06
-3.71261e-06
4.45945e-06
-1.66978e-06
-3.17569e-06
3.13894e-06
-2.24836e-06
-3.77814e-06
5.23027e-06
-1.10901e-06
6.59573e-06
-3.50852e-06
-2.19126e-06
4.2465e-06
-1.8512e-06
-2.75997e-07
-8.00704e-07
2.92875e-06
8.21456e-07
-2.46773e-06
3.39464e-07
2.24823e-06
-4.5178e-06
4.01279e-07
-6.95241e-07
9.51053e-06
-6.08868e-06
1.08869e-06
-2.4075e-06
-5.30931e-07
-1.3793e-06
3.29004e-06
-1.00244e-06
-2.10156e-06
3.00392e-06
-6.85044e-06
-2.81582e-06
6.66298e-06
-1.37451e-06
-8.31529e-06
2.57336e-06
7.82788e-06
-5.1459e-06
-5.60299e-06
-1.10412e-05
-9.87001e-06
1.03747e-05
-3.68053e-06
5.69346e-07
6.11566e-06
2.62815e-07
-5.31776e-06
-5.91045e-06
-4.56083e-06
8.10586e-06
-9.8943e-06
2.49998e-06
5.137e-06
-1.12537e-05
8.09287e-07
-9.24091e-06
1.62609e-06
5.77378e-06
-4.61891e-06
-2.86446e-06
7.43861e-06
4.31605e-08
4.26516e-06
1.09447e-05
-7.10364e-06
9.82684e-06
3.33245e-06
2.99337e-06
3.91826e-06
6.15078e-06
-1.05165e-05
-2.76271e-06
3.03723e-06
8.01659e-07
3.89132e-06
-2.32264e-07
-1.06161e-06
-3.21161e-07
-9.87051e-06
-4.10849e-07
-5.41044e-07
1.07387e-06
1.03388e-06
-2.63581e-06
2.90998e-06
-2.93533e-06
-1.5536e-07
3.90079e-06
-5.672e-06
4.46733e-07
1.14226e-06
-2.01924e-06
2.99938e-06
-3.58561e-06
-4.56076e-06
3.02769e-06
-1.82732e-06
-4.13697e-06
1.27369e-06
2.90181e-06
-1.72998e-06
-7.5191e-07
6.07246e-06
-1.81612e-06
-3.6712e-07
-1.51642e-07
-1.13e-06
4.19088e-06
1.41288e-06
8.99776e-06
-6.33543e-06
-1.26295e-05
1.42678e-05
1.48177e-05
-3.8832e-06
-2.52021e-05
-1.87705e-05
1.26057e-05
-6.25386e-06
-3.5869e-06
1.43142e-05
-1.64445e-05
6.46055e-06
1.87756e-05
-1.62384e-05
2.60128e-05
-5.28446e-06
7.00712e-06
1.42494e-05
1.92308e-05
1.23837e-05
-3.23707e-06
-2.83771e-05
9.46314e-06
1.77516e-05
-4.80529e-06
-2.24092e-05
-2.64956e-05
1.05241e-05
2.21677e-05
-6.19585e-06
-2.803e-06
4.14384e-06
1.39577e-05
-1.52983e-05
1.58321e-05
2.85107e-05
-2.51118e-05
3.09058e-05
-5.61035e-06
1.61215e-05
9.58638e-06
2.05316e-05
1.36409e-05
-1.8899e-05
-7.56134e-06
1.02667e-05
-2.20596e-05
1.80799e-05
-6.28693e-06
-1.60531e-05
1.33684e-05
-8.96885e-06
-8.13569e-06
-1.85156e-05
1.74397e-05
6.85968e-06
2.79967e-05
-2.12156e-05
2.46519e-05
-7.52563e-06
7.18473e-06
1.57835e-05
1.91607e-05
-2.99649e-06
-1.70067e-05
8.13727e-07
-1.56987e-06
1.52852e-05
-1.4529e-05
-1.64996e-05
-4.75537e-06
2.08411e-05
-5.01709e-06
1.92234e-05
-1.61735e-05
1.65004e-05
2.04725e-05
-1.78123e-05
2.01841e-05
-2.87004e-06
1.59238e-05
1.96083e-05
2.718e-05
1.36481e-05
-2.60104e-05
-2.13801e-05
7.01704e-06
2.69687e-05
1.36498e-05
1.95194e-05
-1.88549e-05
-1.80068e-05
1.67131e-05
2.24929e-05
-2.1199e-05
1.16579e-05
1.66202e-06
1.38601e-05
4.52722e-06
6.47349e-06
-2.28182e-05
2.46504e-05
3.00096e-05
-3.97774e-06
-3.2312e-06
2.40882e-05
-1.32848e-05
2.95423e-05
-5.73329e-06
-1.30143e-05
2.66188e-05
-6.58755e-06
1.88705e-05
2.49992e-05
2.52257e-05
1.69375e-05
-4.95253e-06
2.88783e-05
6.18352e-06
7.71739e-06
1.29741e-05
3.75191e-06
1.71711e-05
-2.35349e-05
1.25465e-05
-1.9512e-05
1.74646e-05
1.81125e-05
-1.89944e-05
1.29241e-05
1.54372e-05
-2.54443e-05
1.94753e-05
2.31478e-05
1.81116e-05
-1.29461e-05
2.04287e-05
6.35488e-06
-1.21332e-05
-6.16529e-06
3.79908e-06
2.07816e-05
-9.86942e-06
2.8907e-06
-2.49555e-06
-6.16577e-06
-2.08724e-05
4.66309e-06
1.10699e-05
-7.60039e-06
1.77561e-06
-5.24518e-06
2.46184e-06
-1.24674e-05
-2.34899e-06
-1.12625e-05
-1.24067e-05
-2.23126e-05
4.88434e-06
-5.80135e-06
-4.1437e-06
-1.70441e-05
-1.93539e-05
-1.04971e-05
2.44006e-06
-9.82285e-06
-1.0793e-06
2.78065e-05
-1.31956e-05
3.46904e-06
3.46552e-06
-9.84941e-06
-1.61624e-05
-2.98966e-05
-2.847e-05
2.48472e-06
-1.512e-05
-1.1311e-05
-1.14515e-05
1.4859e-05
3.58539e-06
-6.99294e-06
-1.33326e-05
2.98061e-05
5.69436e-06
2.30024e-05
5.15311e-06
-1.04039e-05
3.82591e-06
1.42143e-05
-4.08244e-06
-1.29462e-05
-2.05428e-05
2.20376e-05
-3.32915e-05
7.0128e-06
-1.02426e-05
-6.47426e-06
-1.61401e-05
5.62379e-06
-3.04705e-06
-4.75996e-06
8.0456e-06
1.39378e-05
5.93914e-06
-4.5919e-06
7.16395e-06
-5.39851e-06
-1.18632e-05
-1.95676e-05
-2.46533e-05
8.03017e-06
-8.89287e-06
-3.51084e-06
-2.80294e-05
-1.71949e-05
1.75667e-05
-1.00509e-05
-1.51162e-05
-1.02378e-05
-1.63474e-05
2.03308e-05
-1.36258e-05
-2.77113e-05
-6.28785e-06
-6.54209e-06
-1.51994e-05
-5.76526e-06
-5.84853e-06
-2.18515e-05
-3.25519e-05
4.85994e-06
5.99396e-06
-2.94691e-05
1.70611e-05
-3.54508e-05
5.19435e-06
8.57284e-06
-2.46878e-05
6.06412e-06
-2.25014e-05
-2.52499e-05
-2.78183e-05
-2.15028e-05
4.8259e-06
-3.22601e-05
-1.63051e-06
-8.67924e-06
-4.80645e-06
-7.67982e-06
-3.04369e-06
-6.36074e-06
-1.33049e-05
1.65278e-05
-6.62084e-06
-3.96769e-06
1.10661e-05
-8.97399e-06
-3.7225e-06
-1.84651e-05
1.67957e-05
-9.24181e-06
-1.8508e-05
2.57051e-05
-2.32987e-05
1.4784e-05
-6.42147e-06
9.95119e-06
1.00419e-05
-7.52481e-06
4.33101e-06
1.44746e-06
4.05272e-08
4.37256e-06
7.1683e-06
2.53328e-06
-8.52643e-06
5.88778e-06
2.39219e-06
2.4633e-07
9.66671e-07
7.82118e-06
4.04969e-07
5.6993e-06
6.95565e-06
9.25643e-06
8.15387e-07
6.00714e-06
1.91512e-06
6.73721e-06
9.3393e-06
5.36105e-06
4.35503e-06
4.66187e-06
1.07115e-05
5.02945e-06
-2.04911e-05
4.70471e-06
1.11903e-05
4.59602e-06
5.34434e-06
1.69488e-06
1.44927e-05
1.52438e-05
1.57137e-05
1.53336e-05
4.57215e-06
1.62059e-05
4.85212e-06
1.10484e-05
8.24159e-06
-1.17234e-05
2.72696e-06
7.54882e-07
3.49859e-06
-1.76403e-05
1.10858e-05
3.05588e-06
-1.30162e-05
1.01284e-05
1.89478e-06
9.93079e-07
1.16491e-06
-1.12605e-05
1.18277e-05
-1.73247e-06
1.04142e-05
1.16605e-05
-1.3833e-05
1.2616e-05
1.29676e-06
1.06794e-05
2.14609e-06
1.02792e-05
1.29455e-05
1.9607e-06
-4.29639e-06
-5.11689e-06
2.11783e-06
1.6274e-05
-1.27706e-05
2.01435e-06
1.54173e-05
-4.66049e-06
4.86453e-06
1.89814e-05
-6.18348e-06
1.45925e-05
1.0536e-05
8.96987e-06
5.06023e-07
1.93865e-05
-3.98568e-06
1.55859e-05
1.28478e-05
1.13299e-05
-1.26261e-05
7.90736e-06
1.06067e-05
1.02585e-05
9.09925e-06
-1.17219e-05
1.68472e-05
1.37568e-05
4.51316e-06
-3.36413e-06
1.1699e-05
-1.37569e-06
1.4734e-06
1.03563e-05
1.38147e-05
2.87628e-06
4.33834e-06
1.42037e-05
-1.31533e-05
1.47389e-05
3.11926e-06
-4.15944e-06
1.10751e-05
9.91795e-07
9.39811e-06
1.61156e-05
1.85886e-05
9.02749e-06
2.92868e-06
1.44629e-05
-1.49994e-06
9.3165e-06
2.79017e-06
1.16581e-05
-5.98086e-07
-4.87332e-07
1.63621e-05
-9.66061e-06
1.37596e-05
-2.08459e-06
-1.13913e-05
1.05442e-05
-6.52727e-07
1.06232e-05
-1.06418e-05
1.15256e-05
8.66821e-06
-1.01172e-05
1.26163e-05
1.64052e-05
1.41608e-05
-1.35344e-05
1.0633e-05
-1.20284e-06
-3.96182e-06
2.05626e-07
-3.03335e-06
1.35775e-05
-1.62082e-05
1.27864e-05
8.7945e-06
-6.99633e-06
-1.43687e-05
1.36669e-05
7.69846e-06
1.51097e-05
-1.6093e-05
9.80664e-06
8.21435e-06
-1.74991e-05
1.0597e-05
-7.68677e-06
-2.03148e-05
1.17935e-05
-2.43194e-05
9.63641e-06
-8.25213e-06
-1.74619e-05
-1.20339e-05
-6.96154e-06
1.27177e-05
6.27789e-06
-6.22143e-06
1.17455e-05
4.60413e-06
1.31861e-05
-8.67973e-06