/*--------------------------------*- C++ -*----------------------------------*\
| =========                 |                                                 |
| \\      /  F ield         | OpenFOAM: The Open Source CFD Toolbox           |
|  \\    /   O peration     | Version:  2506                                  |
|   \\  /    A nd           | Website:  www.openfoam.com                      |
|    \\/     M anipulation  |                                                 |
\*---------------------------------------------------------------------------*/
FoamFile
{
    version     2.0;
    format      ascii;
    arch        "LSB;label=32;scalar=64";
    class       volVectorField;
    location    "1600";
    object      U;
}
// * * * * * * * * * * * * * * * * * * * * * * * * * * * * * * * * * * * * * //

dimensions      [0 1 -1 0 0 0 0];

internalField   nonuniform List<vector> 
44672
(
(2.79384e+14 -2.42746e+13 -1.47261e+14)
(1.396e+14 -6.95466e+12 -1.24465e+14)
(2.03284e+14 1.79638e+13 -1.8625e+14)
(2.33188e+14 -1.18811e+13 -9.6368e+13)
(2.11218e+14 -1.67202e+13 -1.49187e+14)
(1.92587e+14 -3.87138e+12 -1.20851e+14)
(2.32125e+14 -3.66389e+13 -9.9834e+13)
(1.75188e+14 6.00454e+12 -1.09127e+14)
(1.1256e+14 7.51595e+12 -1.42682e+14)
(6.93513e+13 2.41098e+13 -8.74467e+13)
(6.69949e+13 3.13994e+13 -4.62807e+13)
(7.75087e+13 -4.47193e+12 -5.17985e+13)
(7.56452e+13 9.53495e+12 -1.08384e+14)
(6.67686e+13 2.2658e+13 -9.39268e+13)
(8.9572e+13 -1.81429e+13 -9.11762e+13)
(4.75064e+13 1.71608e+13 -8.00514e+13)
(8.05359e+13 -2.4358e+13 -2.38306e+14)
(6.87436e+13 -9.51349e+12 -1.10241e+14)
(7.14105e+12 1.46552e+13 -2.15457e+14)
(7.34615e+13 -2.97519e+13 -1.29259e+14)
(6.1632e+13 -2.94135e+13 -1.52202e+14)
(2.85553e+13 -9.59886e+12 -1.86629e+14)
(7.80027e+13 -3.64971e+13 -1.6784e+14)
(1.681e+13 -5.15317e+12 -1.78693e+14)
(1.70752e+14 -9.58143e+12 -5.14133e+13)
(9.8083e+13 1.11631e+13 -4.04283e+13)
(1.7336e+14 -1.0443e+13 -7.09467e+13)
(7.82109e+13 2.75472e+13 5.63954e+13)
(1.47874e+14 -1.92543e+13 -5.14602e+13)
(1.35377e+14 -1.6948e+13 -3.55958e+13)
(1.50057e+14 4.82294e+12 -6.12285e+12)
(1.32091e+14 -2.34626e+13 -3.29028e+13)
(1.56359e+14 -7.243e+12 -1.37794e+14)
(1.75866e+14 -3.82706e+13 -1.83361e+14)
(1.76688e+14 -5.43368e+12 -7.56945e+13)
(1.25162e+14 -6.36688e+12 -6.32087e+13)
(1.32561e+14 -7.15348e+11 -1.09551e+14)
(1.84934e+14 -2.85957e+13 -9.02567e+13)
(1.26139e+14 -1.39912e+12 -7.35011e+13)
(1.75966e+14 -6.11942e+12 -8.83744e+13)
(1.00318e+14 8.60738e+12 -1.17257e+14)
(9.64128e+13 2.0915e+12 -6.97782e+13)
(7.71211e+13 2.34336e+13 -1.12238e+14)
(1.34578e+14 2.87039e+12 -1.44963e+14)
(1.01152e+14 1.41215e+13 -1.00229e+14)
(1.03643e+14 5.01214e+12 -1.0729e+14)
(1.10813e+14 -5.48354e+12 -1.2247e+14)
(1.12936e+14 -7.7816e+12 -1.3552e+14)
(2.15016e+14 -5.33572e+13 -1.92804e+14)
(1.93876e+14 -2.57843e+13 -6.53897e+13)
(1.41655e+14 -5.03822e+12 -7.61731e+13)
(1.88383e+14 -2.30771e+13 -1.00697e+14)
(1.64789e+14 -1.92587e+13 -9.84772e+13)
(1.72986e+14 -2.65859e+13 -6.83617e+13)
(1.3632e+14 -3.03409e+13 -9.72951e+13)
(1.50208e+14 -2.06119e+13 -5.00868e+13)
(7.29466e+13 -4.00548e+13 -1.39527e+14)
(1.34668e+14 -3.4928e+13 -1.01258e+14)
(1.22366e+14 1.59529e+12 -6.74604e+13)
(5.57723e+13 -1.07071e+13 -9.1471e+13)
(1.6661e+14 -7.23752e+13 -1.20583e+14)
(1.29334e+14 -2.34617e+13 -1.04298e+14)
(6.2747e+13 -1.87217e+13 -1.13647e+14)
(8.44432e+13 -5.10346e+11 -8.11122e+13)
(-1.51984e+13 7.27456e+12 7.33035e+13)
(-1.01478e+13 1.31947e+12 6.00059e+13)
(-2.74895e+13 2.81903e+13 5.90452e+13)
(-2.20971e+13 5.7942e+12 5.88041e+13)
(-1.99334e+13 9.83218e+12 5.68348e+13)
(-2.43663e+13 1.52209e+13 7.15731e+13)
(-1.72054e+13 7.13043e+12 5.91745e+13)
(-2.20104e+13 1.67012e+13 5.41782e+13)
(-1.18172e+13 -1.844e+12 4.87624e+13)
(-1.0894e+13 -5.49219e+12 5.44469e+13)
(-1.99451e+13 1.09955e+13 5.94563e+13)
(-1.93271e+13 -1.15106e+12 4.64315e+13)
(-2.53452e+13 8.93077e+12 5.33558e+13)
(-2.02293e+13 1.40411e+13 5.84253e+13)
(-1.47359e+13 -8.44444e+12 4.93106e+13)
(-2.05856e+13 1.31992e+13 5.50346e+13)
(-2.08284e+13 2.06096e+13 6.43485e+13)
(-2.2081e+13 1.63409e+13 6.40468e+13)
(-1.79399e+13 2.01113e+13 7.2309e+13)
(-1.66542e+13 1.69886e+13 6.27727e+13)
(-1.59321e+13 1.86766e+13 5.86743e+13)
(-2.19303e+13 2.17086e+13 6.64697e+13)
(-1.72877e+13 1.83291e+13 6.1687e+13)
(-1.96993e+13 2.06276e+13 5.66524e+13)
(-2.39606e+13 4.54238e+12 5.44841e+13)
(-2.31389e+13 -2.43222e+11 4.96614e+13)
(-1.41618e+13 1.67559e+13 5.24349e+13)
(-1.98187e+13 -4.54778e+11 5.23883e+13)
(-2.45468e+13 5.26021e+12 5.31217e+13)
(-2.18407e+13 8.70704e+12 4.88377e+13)
(-2.39471e+13 4.75791e+12 5.36623e+13)
(-2.15028e+13 1.32621e+13 4.35245e+13)
(-2.27146e+13 5.19323e+12 5.36519e+13)
(-1.87531e+13 1.99005e+13 5.2252e+13)
(-2.27926e+13 6.50465e+12 5.74876e+13)
(-2.14232e+13 4.84356e+12 4.79041e+13)
(-1.5582e+13 -1.12788e+12 5.23603e+13)
(-2.18434e+13 9.18619e+12 6.19218e+13)
(-1.85964e+13 1.91234e+12 5.1488e+13)
(-2.27473e+13 9.50033e+12 5.49325e+13)
(-2.13359e+13 1.10035e+13 6.36713e+13)
(-2.08969e+13 8.46362e+12 4.95995e+13)
(-2.26363e+13 1.9272e+13 6.12699e+13)
(-2.14523e+13 1.99117e+13 5.77917e+13)
(-2.08094e+13 1.34516e+13 5.14387e+13)
(-1.6062e+13 6.78612e+12 5.61764e+13)
(-2.59052e+13 2.27131e+13 5.87568e+13)
(-1.86743e+13 1.40335e+13 5.40045e+13)
(-2.22119e+13 2.32543e+13 5.48919e+13)
(-2.16763e+13 5.75268e+12 5.37341e+13)
(-2.02209e+13 -7.36781e+11 5.15919e+13)
(-1.8962e+13 1.8791e+13 5.3945e+13)
(-2.46938e+13 2.45986e+13 5.84904e+13)
(-2.12292e+13 1.36955e+13 5.44366e+13)
(-1.68218e+13 1.70372e+13 5.05648e+13)
(-1.91941e+13 7.03222e+12 5.03992e+13)
(-2.16709e+13 1.78757e+13 5.57625e+13)
(-2.1144e+13 1.63028e+13 5.1467e+13)
(-1.88286e+13 1.1233e+13 4.96974e+13)
(-2.35102e+13 2.00073e+13 5.6019e+13)
(-2.08879e+13 2.20668e+13 5.53496e+13)
(-2.24169e+13 1.68038e+13 5.27005e+13)
(-2.43588e+13 1.67908e+13 5.76511e+13)
(-2.11634e+13 8.40819e+12 5.52357e+13)
(-1.65304e+13 7.32743e+11 2.35775e+13)
(-2.00076e+13 6.29501e+11 2.28048e+13)
(-1.95066e+13 2.02549e+12 1.90142e+13)
(-1.64667e+13 1.39942e+12 2.38059e+13)
(-1.78208e+13 7.893e+11 2.49284e+13)
(-1.82362e+13 7.77921e+11 2.14161e+13)
(-1.65758e+13 -6.46012e+10 2.2644e+13)
(-1.79012e+13 -3.75835e+11 2.03719e+13)
(-2.47072e+13 8.06812e+11 2.0455e+13)
(-2.95433e+13 -2.31069e+12 1.59268e+13)
(-1.32927e+13 6.90408e+12 1.28009e+13)
(-2.57067e+13 9.7492e+11 1.86001e+13)
(-2.75903e+13 -2.8007e+11 1.89071e+13)
(-2.67714e+13 -1.51899e+12 1.67695e+13)
(-2.48757e+13 2.37493e+11 1.84803e+13)
(-2.65472e+13 1.20061e+12 1.59677e+13)
(-2.26336e+13 2.59667e+12 9.88592e+12)
(-2.21346e+13 4.35223e+12 5.59973e+12)
(-2.77926e+13 6.34202e+12 1.67372e+12)
(-2.23461e+13 3.95599e+12 8.06584e+12)
(-2.29825e+13 2.13369e+12 8.69401e+12)
(-2.57837e+13 3.99744e+12 7.85922e+12)
(-2.24206e+13 3.73563e+12 7.96444e+12)
(-2.43855e+13 5.34968e+12 6.81984e+12)
(-1.70243e+13 1.91865e+12 2.11505e+13)
(-2.18415e+13 5.77459e+11 1.82861e+13)
(-1.88768e+13 1.04583e+12 1.30581e+13)
(-1.98882e+13 9.19968e+11 1.98577e+13)
(-1.91449e+13 1.44123e+12 1.99506e+13)
(-1.95921e+13 1.07445e+12 1.79414e+13)
(-1.80837e+13 8.24201e+11 1.85993e+13)
(-2.04999e+13 -5.17942e+11 1.7088e+13)
(-2.12147e+13 7.901e+11 2.05817e+13)
(-2.08115e+13 2.92128e+12 1.77835e+13)
(-1.70586e+13 1.1141e+12 2.06089e+13)
(-2.21651e+13 7.95141e+11 1.90148e+13)
(-1.99839e+13 5.10542e+11 1.91526e+13)
(-1.86126e+13 5.74351e+11 2.11764e+13)
(-2.00743e+13 7.50529e+11 1.98511e+13)
(-1.79057e+13 3.59121e+11 1.94747e+13)
(-2.1396e+13 -4.67108e+10 1.94973e+13)
(-2.28315e+13 5.5967e+11 1.78119e+13)
(-2.63279e+13 1.92529e+12 1.29854e+13)
(-2.20302e+13 -2.59715e+11 1.53472e+13)
(-2.15231e+13 3.28175e+11 1.91475e+13)
(-2.30954e+13 -8.09177e+11 1.84357e+13)
(-2.42395e+13 6.82718e+11 1.71605e+13)
(-2.32705e+13 -1.13025e+11 1.24295e+13)
(-1.99114e+13 1.02391e+12 1.53071e+13)
(-1.60856e+13 6.10708e+11 1.98273e+13)
(-2.07973e+13 6.0637e+11 1.7824e+13)
(-1.79833e+13 1.84161e+12 1.29804e+13)
(-2.00475e+13 3.05212e+12 1.60793e+13)
(-1.87481e+13 2.25303e+11 1.89459e+13)
(-1.86599e+13 4.51889e+12 1.4537e+13)
(-2.04773e+13 1.211e+12 1.95184e+13)
(-2.34223e+13 -1.53717e+11 1.34447e+13)
(-1.9991e+13 -4.77326e+11 1.02485e+13)
(-2.26231e+13 7.42585e+11 1.77366e+13)
(-2.29623e+13 4.81166e+12 1.12058e+13)
(-2.15744e+13 1.32505e+12 1.30859e+13)
(-1.95858e+13 2.29465e+12 1.19824e+13)
(-2.08548e+13 1.7387e+12 1.21999e+13)
(-2.07903e+13 2.8363e+12 1.23898e+13)
(-6.6291e+13 1.77659e+14 1.79389e+14)
(7.94187e+13 1.74478e+14 1.04225e+14)
(2.54258e+14 5.84114e+12 1.90986e+13)
(-5.86088e+13 1.51672e+14 1.68184e+14)
(-1.05111e+14 1.21485e+14 1.39132e+14)
(1.73169e+14 1.23391e+14 7.78989e+13)
(4.44091e+13 1.29648e+14 1.29487e+14)
(2.07971e+14 5.57412e+13 6.44353e+13)
(1.72771e+14 3.83136e+13 7.03965e+13)
(2.72364e+14 -2.83012e+13 -1.00328e+14)
(2.87283e+14 -4.01371e+13 -1.59011e+14)
(1.87506e+14 -1.39245e+13 -4.97661e+13)
(2.2046e+14 -5.57783e+13 7.99954e+13)
(2.39907e+14 -5.42204e+13 -4.27671e+13)
(2.00351e+14 -1.22556e+13 -1.30529e+13)
(2.40594e+14 9.89801e+12 -1.41953e+14)
(1.88233e+14 -7.77497e+13 -1.18511e+14)
(1.11146e+14 -5.61887e+13 -2.0318e+14)
(2.88987e+13 -1.34652e+13 -2.2961e+14)
(1.24745e+14 -5.44747e+13 -1.37277e+14)
(1.57519e+14 -6.55375e+13 -1.32218e+14)
(1.17782e+14 -4.93438e+13 -1.67925e+14)
(1.18376e+14 -4.20758e+13 -1.25962e+14)
(7.74069e+13 -3.28834e+13 -1.99795e+14)
(-4.29566e+13 8.71264e+13 1.00362e+14)
(1.37762e+14 1.8698e+12 -1.01362e+13)
(1.86112e+14 -1.85239e+13 -1.97704e+13)
(6.19277e+13 6.94916e+13 5.4226e+13)
(4.6951e+13 6.74089e+13 1.21092e+14)
(1.37667e+14 1.69871e+13 4.5473e+13)
(7.65258e+13 3.44676e+13 3.79787e+13)
(1.92155e+14 -2.03841e+13 -2.52691e+13)
(-4.56806e+13 1.30475e+14 1.85438e+14)
(2.81872e+14 2.92539e+13 9.37364e+12)
(-6.1979e+13 9.54658e+13 1.11786e+14)
(9.77119e+13 -3.28765e+13 9.09533e+13)
(9.92038e+13 1.12607e+14 8.53308e+13)
(1.71119e+14 1.79887e+13 -5.71925e+13)
(-7.22857e+12 -1.89087e+13 6.44997e+13)
(5.33681e+13 6.25135e+13 5.46751e+13)
(1.86968e+14 4.98377e+13 5.29302e+13)
(1.79672e+14 -7.00157e+12 -6.49001e+12)
(2.36369e+14 -7.87157e+13 -1.02868e+14)
(2.44038e+14 -4.9092e+13 -6.47364e+13)
(2.63375e+14 -1.79286e+13 1.65891e+13)
(2.24956e+14 -2.29103e+13 3.85365e+13)
(2.73688e+14 -7.03837e+13 -7.05657e+13)
(3.00065e+14 -4.1201e+13 -1.37431e+13)
(2.13074e+14 -4.05048e+13 -2.88388e+13)
(-1.09061e+13 9.94314e+13 8.45319e+13)
(1.43924e+14 1.83183e+13 2.05234e+13)
(1.64821e+14 -2.70004e+13 -4.86903e+13)
(2.3956e+14 1.98609e+13 1.8685e+13)
(1.77119e+14 5.82446e+13 1.31979e+13)
(2.04259e+14 -2.99275e+12 -1.94575e+13)
(1.50653e+14 6.32678e+12 3.70686e+13)
(2.2053e+14 -9.91655e+13 -1.06793e+14)
(1.90527e+14 -6.39268e+13 -1.23102e+14)
(2.48107e+14 -1.89211e+12 -7.78789e+13)
(1.82526e+14 -5.25423e+13 -1.95541e+14)
(2.40261e+14 -5.99085e+13 -9.90419e+13)
(1.96215e+14 -4.31448e+13 -6.83499e+13)
(1.94906e+14 -6.03358e+13 -7.36266e+13)
(2.03002e+14 -1.84879e+13 -6.26365e+13)
(-2.06661e+13 4.908e+12 5.35088e+13)
(-1.90136e+13 1.1894e+13 5.74147e+13)
(-2.37378e+13 -1.26955e+12 4.44807e+13)
(-1.95987e+13 9.90107e+12 4.24873e+13)
(-2.26472e+13 8.04694e+12 5.41473e+13)
(-1.99274e+13 1.25479e+13 6.01336e+13)
(-2.4472e+13 1.12012e+12 4.25276e+13)
(-1.93566e+13 1.9034e+12 4.79871e+13)
(-2.1366e+13 2.09359e+13 6.00029e+13)
(-2.0232e+13 2.426e+13 6.63466e+13)
(-1.92934e+13 1.64455e+13 5.2146e+13)
(-2.83772e+13 2.91225e+13 6.21063e+13)
(-2.32627e+13 2.60585e+13 6.47688e+13)
(-2.25054e+13 2.50481e+13 6.30241e+13)
(-2.4093e+13 2.63078e+13 5.61778e+13)
(-2.43557e+13 2.33124e+13 5.71861e+13)
(-2.63926e+13 -1.30577e+12 4.10897e+13)
(-2.11708e+13 1.42394e+13 4.61873e+13)
(-2.44373e+13 -4.12899e+12 3.98031e+13)
(-3.46978e+13 2.79982e+13 3.28173e+13)
(-2.75251e+13 1.17959e+13 3.8963e+13)
(-2.36787e+13 1.12574e+13 4.92256e+13)
(-3.37559e+13 8.05182e+12 3.75736e+13)
(-3.09374e+13 1.0254e+13 4.14833e+13)
(-3.62554e+13 4.29791e+13 2.38906e+13)
(-3.09851e+13 4.12418e+13 4.12337e+13)
(-3.51156e+13 5.07078e+13 3.22098e+13)
(-3.89699e+13 7.53944e+13 1.96387e+13)
(-4.17544e+13 5.27117e+13 3.07549e+13)
(-4.43792e+13 4.39122e+13 3.80099e+13)
(-3.99582e+13 7.11531e+13 2.50403e+13)
(-4.14589e+13 5.44597e+13 2.54957e+13)
(-2.35843e+13 2.18665e+13 5.79166e+13)
(-2.45091e+13 8.11141e+12 4.72226e+13)
(-2.99052e+13 2.36847e+13 4.43925e+13)
(-3.10692e+13 3.27466e+13 5.43617e+13)
(-2.46492e+13 1.89667e+13 5.08912e+13)
(-2.22796e+13 1.74071e+13 4.52733e+13)
(-2.51106e+13 2.3936e+13 5.64897e+13)
(-2.80667e+13 2.31321e+13 4.24212e+13)
(-2.44678e+13 2.26362e+13 6.12818e+13)
(-3.16011e+13 2.80808e+13 5.24051e+13)
(-2.47147e+13 1.53878e+13 5.51994e+13)
(-2.09576e+13 7.16973e+12 5.01378e+13)
(-2.21331e+13 1.89904e+13 5.23501e+13)
(-2.6857e+13 2.42993e+13 5.31702e+13)
(-2.39304e+13 1.08278e+13 5.82245e+13)
(-2.40418e+13 2.0093e+13 4.98203e+13)
(-2.75079e+13 4.34485e+12 3.86626e+13)
(-3.84631e+13 3.18441e+13 3.20155e+13)
(-3.15079e+13 4.06342e+13 3.98034e+13)
(-4.13032e+13 3.63494e+13 2.96737e+13)
(-2.81483e+13 1.69857e+13 3.57978e+13)
(-2.77958e+13 2.83521e+13 3.10864e+13)
(-3.5039e+13 2.57943e+13 3.4442e+13)
(-4.08458e+13 4.13254e+13 3.6823e+13)
(-2.35113e+13 4.14303e+12 4.87522e+13)
(-3.45757e+13 2.80338e+13 3.23772e+13)
(-2.83947e+13 3.20259e+13 4.14926e+13)
(-2.65445e+13 2.03424e+13 4.65225e+13)
(-2.75616e+13 2.00378e+13 4.5731e+13)
(-3.28775e+13 2.30753e+13 3.58022e+13)
(-2.4653e+13 1.84387e+13 4.33768e+13)
(-2.99248e+13 2.40281e+13 4.38984e+13)
(-3.27871e+13 1.76144e+13 5.65427e+13)
(-3.21404e+13 1.7936e+13 5.59768e+13)
(-3.07019e+13 1.54131e+13 5.54613e+13)
(-4.49526e+13 2.47475e+13 5.10588e+13)
(-3.73359e+13 2.32037e+13 5.30945e+13)
(-3.34427e+13 1.8842e+13 5.57138e+13)
(-3.66081e+13 2.02825e+13 5.2265e+13)
(-3.35913e+13 1.56939e+13 5.05599e+13)
(-3.68285e+13 2.15534e+13 5.70315e+13)
(-3.81191e+13 2.19298e+13 5.46144e+13)
(-3.35647e+13 2.05918e+13 4.76287e+13)
(-4.65142e+13 2.82538e+13 4.66826e+13)
(-4.3635e+13 3.52138e+13 5.00345e+13)
(-4.03342e+13 2.78334e+13 5.34409e+13)
(-4.12796e+13 2.90518e+13 4.57264e+13)
(-3.80764e+13 2.37123e+13 4.96058e+13)
(-3.09893e+13 1.72968e+13 5.21537e+13)
(-2.94512e+13 1.80849e+13 4.41648e+13)
(-2.74062e+13 1.12743e+13 4.55709e+13)
(-3.84653e+13 1.96687e+13 4.34526e+13)
(-3.28165e+13 2.37079e+13 4.28557e+13)
(-3.13516e+13 2.03821e+13 4.70095e+13)
(-3.24876e+13 1.97042e+13 4.39497e+13)
(-3.12618e+13 1.7106e+13 4.22358e+13)
(-5.1642e+13 3.62688e+13 4.02799e+13)
(-5.67153e+13 3.79145e+13 3.5777e+13)
(-5.08506e+13 2.97699e+13 3.69032e+13)
(-6.17573e+13 4.59683e+13 2.53574e+13)
(-5.7857e+13 4.3314e+13 3.37278e+13)
(-5.48691e+13 3.78986e+13 3.50623e+13)
(-5.61106e+13 4.17843e+13 3.46052e+13)
(-5.31964e+13 3.65993e+13 3.06572e+13)
(-3.77283e+13 2.53301e+13 5.2689e+13)
(-3.56715e+13 2.30195e+13 4.96303e+13)
(-5.11303e+13 3.47611e+13 4.72739e+13)
(-5.03057e+13 3.84716e+13 4.4859e+13)
(-3.58447e+13 2.15928e+13 5.11752e+13)
(-3.84272e+13 2.39643e+13 4.86042e+13)
(-4.35623e+13 2.44833e+13 5.1642e+13)
(-4.61076e+13 2.69801e+13 4.96003e+13)
(-3.57276e+13 2.1787e+13 5.56712e+13)
(-4.42402e+13 3.27477e+13 4.61516e+13)
(-3.53263e+13 2.49925e+13 4.8541e+13)
(-3.31899e+13 1.93365e+13 5.26483e+13)
(-3.40628e+13 1.90646e+13 4.98386e+13)
(-3.99878e+13 3.20093e+13 4.53867e+13)
(-3.18753e+13 1.92291e+13 5.17507e+13)
(-3.75275e+13 3.02987e+13 4.51374e+13)
(-3.54142e+13 2.04096e+13 5.20144e+13)
(-4.86818e+13 3.31696e+13 4.55395e+13)
(-5.06697e+13 3.62674e+13 3.73726e+13)
(-4.4648e+13 2.85951e+13 4.11044e+13)
(-4.14107e+13 2.30039e+13 4.99254e+13)
(-4.55227e+13 2.61952e+13 4.74809e+13)
(-4.55643e+13 3.09887e+13 4.00584e+13)
(-4.69673e+13 3.23946e+13 3.67087e+13)
(-3.22928e+13 1.74872e+13 4.83598e+13)
(-4.24808e+13 2.51104e+13 3.72312e+13)
(-4.56925e+13 2.78656e+13 4.39936e+13)
(-3.42003e+13 2.02261e+13 4.58106e+13)
(-3.493e+13 2.54357e+13 4.14429e+13)
(-4.09774e+13 2.79037e+13 4.2371e+13)
(-3.47914e+13 2.52845e+13 4.15099e+13)
(-4.0741e+13 2.50242e+13 4.0408e+13)
(-1.5359e+13 2.23066e+13 3.83774e+13)
(-1.28005e+13 4.40395e+13 3.50596e+13)
(3.51265e+13 8.58128e+12 2.40724e+12)
(-1.87466e+13 1.63534e+13 5.44763e+13)
(-1.88696e+13 3.61901e+13 5.15376e+13)
(1.08272e+13 2.39574e+13 2.61156e+13)
(1.78646e+13 3.17097e+13 -1.13336e+13)
(1.95854e+13 1.88657e+13 2.38886e+13)
(-2.24674e+12 4.00525e+13 1.24648e+13)
(3.19204e+13 5.32017e+13 8.98771e+12)
(4.36094e+13 4.35776e+13 2.85025e+13)
(-3.81761e+13 7.01521e+13 1.07364e+13)
(-2.2402e+13 5.35546e+13 -1.27842e+13)
(1.29603e+13 4.79633e+13 1.04751e+12)
(-1.66633e+13 6.29224e+13 1.72298e+13)
(2.66099e+13 5.09221e+13 1.24906e+11)
(2.73786e+13 4.69014e+12 -2.71258e+12)
(3.04891e+13 3.085e+13 6.19632e+12)
(1.33753e+13 1.07955e+12 -3.09311e+13)
(3.74105e+13 2.6637e+12 -9.0908e+12)
(3.71795e+13 9.08277e+12 3.61589e+12)
(2.79889e+13 9.90044e+12 -1.59989e+13)
(3.71733e+13 4.40478e+12 -1.41204e+13)
(2.79537e+13 1.31567e+13 -1.75562e+13)
(-1.58483e+13 1.94231e+13 7.96183e+13)
(-3.70783e+13 7.58234e+13 6.86386e+13)
(5.30438e+13 1.96008e+13 1.07364e+12)
(-3.88753e+13 9.73685e+13 1.13623e+14)
(-1.59824e+13 6.42179e+13 5.62682e+13)
(9.85084e+12 -6.05437e+12 4.84156e+13)
(2.51381e+13 7.32539e+13 5.15057e+13)
(3.62633e+13 4.28872e+13 3.63034e+13)
(-2.86366e+13 5.03266e+13 4.45365e+13)
(2.44614e+13 2.01155e+13 9.62782e+12)
(-1.13103e+13 3.68551e+13 7.48556e+13)
(-2.27066e+13 7.02674e+13 2.64524e+13)
(-3.06783e+12 4.48629e+13 3.7534e+13)
(1.84165e+13 2.82076e+13 -3.00722e+12)
(-2.25052e+13 5.15364e+13 5.25411e+13)
(1.26087e+13 2.12559e+13 4.88149e+13)
(1.2397e+13 2.83334e+13 2.78873e+13)
(-1.22508e+13 3.68501e+13 1.65182e+13)
(3.25042e+13 2.92521e+13 8.99733e+12)
(3.98035e+13 7.43726e+12 8.0375e+12)
(9.50213e+12 2.94314e+13 2.83804e+13)
(2.17609e+13 2.56911e+13 2.34914e+13)
(2.76208e+13 2.56253e+13 1.1387e+13)
(2.39808e+13 3.31119e+13 2.19649e+13)
(3.92933e+13 1.46584e+13 -5.90834e+12)
(2.67013e+13 5.19499e+13 6.17756e+12)
(-2.32631e+13 5.94962e+13 6.30248e+13)
(4.35552e+13 1.5231e+13 7.77336e+12)
(2.8333e+13 1.59015e+13 3.3047e+12)
(1.63713e+13 1.84932e+13 2.27993e+13)
(4.27666e+13 1.59391e+13 7.65108e+11)
(3.48199e+13 3.84752e+13 3.28485e+13)
(3.75298e+13 9.1754e+12 9.99951e+12)
(4.88795e+13 6.39245e+11 -1.91714e+11)
(1.56548e+13 4.75579e+13 3.1882e+13)
(4.2973e+13 3.65223e+13 4.4221e+12)
(4.81649e+13 4.61102e+12 5.44984e+12)
(3.57459e+13 7.47959e+12 1.2473e+13)
(3.30584e+13 2.49784e+13 8.7043e+12)
(1.28325e+13 3.14672e+13 2.01072e+13)
(-3.38447e+13 2.07406e+13 3.8682e+13)
(-4.52291e+13 2.55527e+13 3.07973e+13)
(-4.08174e+13 2.19982e+13 2.69691e+13)
(-4.69528e+13 3.02343e+13 3.06888e+13)
(-4.00995e+13 2.52579e+13 3.61507e+13)
(-4.45951e+13 2.59961e+13 3.46873e+13)
(-4.6337e+13 2.58065e+13 3.49434e+13)
(-4.46589e+13 2.45117e+13 3.05298e+13)
(-5.89138e+13 2.98733e+13 1.89414e+13)
(-7.04495e+13 3.50202e+13 4.23796e+12)
(-6.39225e+13 3.24676e+13 5.23415e+12)
(-7.30128e+13 4.6072e+13 4.47064e+12)
(-7.58748e+13 4.00916e+13 1.33549e+13)
(-6.69005e+13 3.56552e+13 6.58437e+12)
(-7.18174e+13 4.03087e+13 9.04949e+12)
(-6.69106e+13 3.512e+13 5.63104e+12)
(-4.23451e+13 2.3287e+13 1.41587e+13)
(-5.47632e+13 2.9242e+13 4.15422e+12)
(-4.81303e+13 2.73607e+13 3.45734e+12)
(-5.55799e+13 3.3768e+13 4.31425e+12)
(-5.13218e+13 2.82504e+13 8.26498e+12)
(-4.94518e+13 2.76113e+13 4.83281e+12)
(-5.38502e+13 3.04576e+13 4.32093e+12)
(-5.06121e+13 2.75931e+13 3.72847e+12)
(-5.452e+13 3.95504e+13 2.25109e+13)
(-7.08735e+13 5.4056e+13 4.48815e+12)
(-6.06716e+13 4.27486e+13 6.32153e+12)
(-6.56e+13 5.16876e+13 9.04376e+12)
(-6.13589e+13 4.69928e+13 1.65048e+13)
(-6.64664e+13 5.05106e+13 6.91322e+12)
(-6.21765e+13 4.59316e+13 8.74883e+12)
(-6.33393e+13 4.57174e+13 6.39766e+12)
(-5.41745e+13 2.96739e+13 2.55667e+13)
(-4.72461e+13 2.67583e+13 1.97346e+13)
(-5.41773e+13 3.53295e+13 2.55964e+13)
(-7.15607e+13 4.73376e+13 1.20012e+13)
(-5.50034e+13 2.95291e+13 2.14431e+13)
(-5.24991e+13 3.06352e+13 2.1318e+13)
(-5.79247e+13 3.60731e+13 1.81851e+13)
(-5.65346e+13 3.58582e+13 2.15429e+13)
(-5.31078e+13 2.94956e+13 2.1505e+13)
(-6.7452e+13 4.36043e+13 5.5607e+12)
(-5.82558e+13 3.18597e+13 5.44018e+12)
(-4.53585e+13 2.53207e+13 1.75373e+13)
(-5.13713e+13 2.79218e+13 1.91045e+13)
(-6.46042e+13 3.73509e+13 7.15765e+12)
(-4.93656e+13 2.57215e+13 1.72665e+13)
(-6.20642e+13 3.49953e+13 9.29416e+12)
(-4.99931e+13 2.81011e+13 1.92247e+13)
(-5.66111e+13 3.53326e+13 2.46572e+13)
(-6.71766e+13 4.50749e+13 8.85513e+12)
(-6.00675e+13 3.96975e+13 6.08393e+12)
(-4.93372e+13 3.06153e+13 1.84441e+13)
(-5.49738e+13 3.3417e+13 1.9958e+13)
(-5.79882e+13 3.95319e+13 8.46585e+12)
(-6.35381e+13 4.5242e+13 6.83089e+12)
(-4.76308e+13 2.56082e+13 1.73079e+13)
(-5.78172e+13 3.55746e+13 4.34618e+12)
(-6.49716e+13 4.20199e+13 5.28926e+12)
(-5.72521e+13 3.13666e+13 4.2778e+12)
(-5.5942e+13 3.32819e+13 5.41977e+12)
(-5.6765e+13 3.67143e+13 5.74982e+12)
(-5.90719e+13 3.36512e+13 7.44349e+12)
(-6.20801e+13 3.91686e+13 5.22081e+12)
(-2.89853e+13 2.35065e+13 4.06155e+13)
(-3.67037e+13 2.46903e+13 3.175e+13)
(-2.89385e+13 2.26855e+13 3.80156e+13)
(-4.20027e+13 2.81855e+13 3.62902e+13)
(-3.60969e+13 2.16779e+13 3.46881e+13)
(-3.40301e+13 1.89181e+13 3.53979e+13)
(-3.67097e+13 2.72833e+13 3.65445e+13)
(-3.2641e+13 1.83703e+13 3.43351e+13)
(-4.02645e+13 2.40706e+13 2.05952e+13)
(-4.50013e+13 2.47202e+13 6.45967e+12)
(-3.76884e+13 2.02326e+13 1.56472e+13)
(-5.19968e+13 3.03236e+13 6.36889e+12)
(-4.45423e+13 2.49947e+13 1.15024e+13)
(-4.339e+13 2.41428e+13 1.27546e+13)
(-4.45229e+13 2.4451e+13 1.1518e+13)
(-4.53298e+13 2.35446e+13 1.16261e+13)
(-2.50985e+13 1.75165e+13 3.53462e+13)
(-2.94529e+13 1.29279e+13 2.53585e+13)
(-2.12043e+13 1.00478e+13 3.25722e+13)
(-3.12188e+13 1.41332e+13 2.51408e+13)
(-2.8519e+13 1.49431e+13 3.11637e+13)
(-2.89259e+13 1.38624e+13 3.43135e+13)
(-2.52932e+13 1.43154e+13 3.02679e+13)
(-2.88427e+13 1.26389e+13 3.0038e+13)
(-5.36993e+13 3.52866e+13 2.87797e+13)
(-5.63009e+13 3.80992e+13 7.78977e+12)
(-4.36061e+13 2.7111e+13 1.96059e+13)
(-5.96122e+13 4.61657e+13 1.07071e+13)
(-5.4947e+13 3.88546e+13 1.67759e+13)
(-5.20337e+13 3.1957e+13 1.67413e+13)
(-5.25245e+13 4.00666e+13 1.87796e+13)
(-5.12802e+13 3.33645e+13 1.78352e+13)
(-4.14524e+13 2.36063e+13 2.27567e+13)
(-3.10622e+13 1.84074e+13 3.11193e+13)
(-4.70242e+13 2.98278e+13 2.66137e+13)
(-4.97176e+13 3.2324e+13 1.19807e+13)
(-4.10211e+13 2.408e+13 2.45983e+13)
(-3.99498e+13 1.89776e+13 2.75861e+13)
(-4.46622e+13 2.79573e+13 2.10206e+13)
(-4.41522e+13 2.5393e+13 2.38067e+13)
(-4.04577e+13 2.29688e+13 2.38227e+13)
(-4.93851e+13 2.91708e+13 1.31602e+13)
(-3.5393e+13 1.76125e+13 2.38633e+13)
(-2.79757e+13 1.34221e+13 3.09271e+13)
(-3.95355e+13 2.08501e+13 2.32072e+13)
(-4.21904e+13 1.9844e+13 1.55569e+13)
(-3.41833e+13 2.31601e+13 2.96119e+13)
(-3.4553e+13 1.93694e+13 2.22972e+13)
(-3.35556e+13 2.30832e+13 3.54781e+13)
(-4.79043e+13 3.20925e+13 3.45554e+13)
(-4.70282e+13 3.02694e+13 1.59693e+13)
(-3.84438e+13 2.50699e+13 2.60157e+13)
(-3.9547e+13 2.52757e+13 3.42679e+13)
(-4.2185e+13 2.45674e+13 2.86216e+13)
(-3.98208e+13 2.36062e+13 2.59015e+13)
(-4.58522e+13 2.47567e+13 2.32945e+13)
(-3.02779e+13 1.59373e+13 3.1777e+13)
(-3.94291e+13 2.00663e+13 2.54026e+13)
(-4.89471e+13 2.79845e+13 1.39412e+13)
(-3.73482e+13 1.65326e+13 2.18928e+13)
(-3.44377e+13 1.53301e+13 3.12509e+13)
(-4.02394e+13 1.84843e+13 2.6535e+13)
(-3.54415e+13 1.83185e+13 2.13787e+13)
(-4.19641e+13 2.21339e+13 1.56221e+13)
(1.60194e+13 3.34604e+12 -2.56905e+13)
(2.17864e+13 -2.9477e+11 -2.10451e+13)
(1.98959e+13 -4.72355e+12 -1.69148e+13)
(3.82363e+13 3.1442e+12 -1.80116e+13)
(1.8724e+13 2.83215e+12 -2.24744e+13)
(1.48982e+13 2.62485e+12 -2.22292e+13)
(2.6397e+13 1.44385e+12 -1.67093e+13)
(1.70349e+13 7.32442e+11 -1.92146e+13)
(4.02922e+13 -2.56187e+12 -2.30555e+13)
(4.75322e+13 1.97204e+13 -5.99287e+13)
(3.97603e+13 2.31312e+12 -3.58542e+13)
(6.14499e+13 -2.51575e+12 -3.77798e+13)
(6.07687e+13 1.18175e+13 -3.35209e+13)
(5.97195e+13 4.48131e+12 -5.1762e+13)
(5.67832e+13 -3.85337e+12 -4.63679e+13)
(5.82673e+13 -6.11366e+11 -4.85535e+13)
(4.11875e+13 7.34185e+12 -6.8605e+12)
(4.19151e+13 1.31935e+12 -2.74566e+13)
(2.22382e+13 1.52352e+13 1.23894e+13)
(-1.05743e+13 2.25423e+13 5.00193e+13)
(2.67658e+13 7.52688e+12 -1.71805e+13)
(2.83236e+13 6.05274e+12 -2.29069e+12)
(3.48004e+13 -1.09585e+13 -2.07121e+13)
(2.69109e+13 8.09141e+12 8.96696e+12)
(6.49576e+13 1.55398e+13 -1.36998e+12)
(8.26568e+13 -2.60998e+12 -1.83169e+13)
(-1.13514e+13 2.0244e+13 8.44908e+13)
(4.72587e+13 5.30595e+13 9.79887e+13)
(7.62308e+13 6.94875e+12 9.85208e+12)
(6.31859e+13 -1.56755e+13 -2.82041e+13)
(7.49592e+13 2.27798e+13 4.37839e+13)
(8.32127e+13 2.75103e+12 3.00387e+13)
(3.45562e+13 3.12004e+12 -2.65702e+13)
(4.22789e+13 4.93322e+12 -2.54105e+13)
(4.82592e+13 2.66984e+12 -2.63704e+13)
(7.2143e+13 1.7071e+13 -3.27619e+13)
(4.08151e+13 1.67544e+12 -2.58133e+13)
(2.68137e+13 -7.33102e+12 -2.52949e+13)
(5.85004e+13 1.20043e+13 -2.94505e+13)
(4.69421e+13 -7.90337e+12 -2.66564e+13)
(3.37743e+13 6.74095e+11 -3.17346e+13)
(6.13081e+13 2.26286e+12 -3.19538e+13)
(5.76619e+13 3.8591e+12 -2.90298e+13)
(2.41773e+13 -4.00806e+12 -1.57414e+13)
(3.95114e+13 9.7827e+12 -2.78344e+13)
(6.35201e+13 8.20879e+12 -3.31707e+13)
(3.38442e+13 -1.94722e+12 -1.89768e+13)
(5.16026e+13 2.34802e+12 -1.65689e+13)
(4.56831e+13 6.89007e+12 -1.4306e+13)
(4.74021e+13 7.10137e+12 -1.08075e+13)
(8.67244e+13 3.22945e+12 -1.64796e+13)
(5.47447e+13 1.67715e+13 2.09569e+13)
(4.06556e+13 4.10932e+12 -1.94996e+13)
(4.24622e+13 6.49022e+12 -1.20563e+13)
(6.31955e+13 -6.02872e+12 -5.81531e+11)
(6.59022e+13 6.16217e+12 5.43227e+12)
(3.83508e+13 8.57798e+12 -3.87793e+12)
(4.88348e+13 -1.18949e+12 2.22543e+13)
(5.88304e+13 -3.59382e+12 -1.75485e+13)
(3.86582e+13 1.78047e+12 -2.58022e+13)
(2.78937e+13 -7.82487e+12 -6.34769e+12)
(2.89991e+13 -9.28798e+12 -1.86872e+13)
(4.39823e+13 2.39172e+12 -2.30265e+13)
(5.58914e+13 -1.09964e+12 -1.76306e+13)
(-1.66392e+13 1.11284e+12 1.79699e+13)
(-1.73101e+13 2.78062e+12 1.40303e+13)
(-1.61464e+13 2.00909e+12 2.05714e+13)
(-1.33107e+13 2.81918e+12 1.86934e+13)
(-1.46673e+13 1.665e+12 1.80372e+13)
(-1.6933e+13 1.47745e+12 1.58646e+13)
(-1.33983e+13 2.55968e+12 2.17029e+13)
(-1.42294e+13 1.45293e+12 1.87466e+13)
(-2.08171e+13 4.84126e+12 9.87894e+12)
(-2.45124e+13 6.3922e+12 6.08824e+12)
(-2.23232e+13 3.2784e+12 1.30524e+13)
(-2.19233e+13 4.15924e+12 1.47963e+13)
(-2.03138e+13 4.04551e+12 1.04616e+13)
(-2.23172e+13 4.09386e+12 7.73885e+12)
(-2.28721e+13 4.23856e+12 1.57146e+13)
(-2.11363e+13 3.78209e+12 1.19749e+13)
(-1.4929e+13 2.34655e+12 2.23387e+13)
(-1.79793e+13 2.02375e+12 1.82017e+13)
(-1.62439e+13 4.24095e+12 3.29833e+13)
(-1.3719e+13 6.35322e+12 2.91331e+13)
(-1.39951e+13 2.12554e+12 2.24165e+13)
(-1.58037e+13 7.55172e+11 1.96311e+13)
(-1.40834e+13 7.14296e+12 2.98026e+13)
(-1.37709e+13 4.26676e+12 2.82306e+13)
(-1.45796e+13 4.47134e+12 2.14119e+13)
(-1.94351e+13 3.3766e+12 2.55646e+13)
(-1.4383e+13 4.6945e+12 2.88199e+13)
(-1.40571e+13 3.00926e+12 2.85102e+13)
(-1.5253e+13 2.97897e+12 2.28702e+13)
(-1.68937e+13 3.50176e+12 2.3009e+13)
(-1.46017e+13 4.38827e+12 2.70022e+13)
(-1.47972e+13 3.50741e+12 2.65221e+13)
(-1.70705e+13 2.70957e+12 1.37631e+13)
(-1.41808e+13 1.47464e+12 2.05181e+13)
(-1.47305e+13 3.67757e+12 1.87102e+13)
(-1.89044e+13 3.70387e+12 1.78572e+13)
(-1.79945e+13 3.24722e+12 1.68664e+13)
(-1.43967e+13 2.42041e+12 2.03065e+13)
(-1.80802e+13 4.25229e+12 1.62174e+13)
(-1.38786e+13 3.06674e+12 1.76451e+13)
(-1.829e+13 2.92492e+12 1.16484e+13)
(-1.93332e+13 3.8444e+12 1.76423e+13)
(-1.9608e+13 2.4171e+12 1.38703e+13)
(-1.54599e+13 1.17441e+12 1.6986e+13)
(-1.75896e+13 2.79257e+12 1.59897e+13)
(-1.94813e+13 3.32864e+12 1.59856e+13)
(-1.74833e+13 2.61336e+12 1.61311e+13)
(-1.79019e+13 2.43492e+12 1.72502e+13)
(-1.39498e+13 5.47598e+12 2.27579e+13)
(-1.43959e+13 4.55584e+12 2.11511e+13)
(-1.94254e+13 4.6435e+12 2.1149e+13)
(-1.44758e+13 6.90684e+12 2.74776e+13)
(-1.33546e+13 5.65563e+12 2.16286e+13)
(-1.4177e+13 4.33044e+12 2.1788e+13)
(-1.40309e+13 4.21654e+12 2.19821e+13)
(-1.64799e+13 3.6409e+12 2.12909e+13)
(-1.39673e+13 1.17009e+12 2.00052e+13)
(-1.45138e+13 4.97568e+12 2.59575e+13)
(-2.01947e+13 4.46592e+12 2.20379e+13)
(-1.8356e+13 2.83091e+12 1.87657e+13)
(-1.4592e+13 4.41353e+12 2.12394e+13)
(-1.61322e+13 4.9744e+12 2.16462e+13)
(-1.83484e+13 4.23588e+12 1.99234e+13)
(-1.87458e+13 3.97731e+12 2.17085e+13)
(-2.57298e+13 1.15295e+13 3.20054e+13)
(-3.47433e+13 9.32325e+12 2.70889e+13)
(-2.49328e+13 5.83901e+12 3.21687e+13)
(-2.50474e+13 5.75028e+12 2.64417e+13)
(-2.69777e+13 1.12039e+13 2.96444e+13)
(-3.04069e+13 9.17426e+12 2.85801e+13)
(-2.45615e+13 6.9822e+12 2.9321e+13)
(-2.91622e+13 5.46846e+12 2.97625e+13)
(-4.66721e+13 8.01491e+12 1.97129e+13)
(-6.58752e+13 7.13225e+12 1.04385e+13)
(-4.79131e+13 5.02172e+12 1.9181e+13)
(-4.22585e+13 9.2733e+12 1.51273e+13)
(-4.64557e+13 1.1675e+13 1.87783e+13)
(-5.57462e+13 8.12757e+12 1.28811e+13)
(-4.25569e+13 7.84027e+12 1.5156e+13)
(-4.96591e+13 4.90182e+12 1.34941e+13)
(-2.29356e+13 3.16106e+12 3.01172e+13)
(-3.42822e+13 2.8365e+12 2.61061e+13)
(-2.48662e+13 1.57169e+11 2.93358e+13)
(-2.23957e+13 2.30213e+12 2.45802e+13)
(-2.42596e+13 4.15437e+12 2.78037e+13)
(-2.94611e+13 2.97762e+12 2.56444e+13)
(-2.34877e+13 1.90147e+12 2.66288e+13)
(-2.86565e+13 2.32895e+11 2.84958e+13)
(-2.26405e+13 4.89355e+12 2.32922e+13)
(-3.04897e+13 7.58668e+12 1.8564e+13)
(-2.23078e+13 3.44714e+12 2.1166e+13)
(-2.06136e+13 5.12122e+12 1.85088e+13)
(-2.40592e+13 6.59465e+12 1.89768e+13)
(-2.73218e+13 5.45949e+12 1.82572e+13)
(-2.18248e+13 5.31209e+12 2.04481e+13)
(-2.56773e+13 3.2906e+12 2.17428e+13)
(-3.44098e+13 9.72811e+12 2.49307e+13)
(-2.45832e+13 6.9311e+12 2.84796e+13)
(-2.55495e+13 7.19623e+12 2.62299e+13)
(-3.34492e+13 8.12005e+12 1.90016e+13)
(-3.16806e+13 7.10536e+12 2.23876e+13)
(-2.77306e+13 6.21812e+12 2.69223e+13)
(-3.27407e+13 5.67788e+12 2.02924e+13)
(-2.84619e+13 5.60711e+12 2.37989e+13)
(-3.90822e+13 7.84049e+12 2.03896e+13)
(-3.65483e+13 7.3749e+12 1.63704e+13)
(-4.26166e+13 4.72849e+12 2.1273e+13)
(-3.02343e+13 5.63842e+12 2.77275e+13)
(-3.91657e+13 5.58874e+12 2.15103e+13)
(-3.60883e+13 5.79001e+12 1.92752e+13)