/*--------------------------------*- C++ -*----------------------------------*\
| =========                 |                                                 |
| \\      /  F ield         | OpenFOAM: The Open Source CFD Toolbox           |
|  \\    /   O peration     | Version:  2506                                  |
|   \\  /    A nd           | Website:  www.openfoam.com                      |
|    \\/     M anipulation  |                                                 |
\*---------------------------------------------------------------------------*/
FoamFile
{
    version     2.0;
    format      ascii;
    arch        "LSB;label=32;scalar=64";
    class       volVectorField;
    location    "800";
    object      U;
}
// * * * * * * * * * * * * * * * * * * * * * * * * * * * * * * * * * * * * * //

dimensions      [0 1 -1 0 0 0 0];

internalField   nonuniform List<vector> 
49216
(
(0.00460552 0.03398 1.00184)
(-0.00211877 0.0401286 1.00892)
(0.000436149 0.030079 0.996853)
(0.0286516 0.118791 1.0594)
(-0.0033914 0.0502486 1.02445)
(-0.00183542 0.0231504 0.999905)
(0.00291491 0.0968178 1.02776)
(0.00716677 0.086217 1.02841)
(0.00547636 0.0405775 1.00603)
(0.0196033 0.0352104 0.999223)
(0.0218272 0.0635613 0.992546)
(0.0836312 0.144503 1.06421)
(0.0129357 0.0530677 1.0122)
(0.0137378 0.0212868 0.996106)
(0.0531452 0.0778631 1.0295)
(0.0452567 0.0774217 1.03147)
(0.00355195 0.0461156 0.996954)
(0.022423 0.0837194 0.990011)
(0.0380721 0.0875919 0.986335)
(0.0802149 0.283283 1.04141)
(0.0156094 0.119051 1.00546)
(-0.00425594 0.0493613 0.986596)
(0.0307617 0.17093 1.03332)
(0.0537481 0.140093 1.04011)
(0.113129 0.229432 1.15527)
(0.136503 0.309928 1.19325)
(0.151016 0.388776 1.16293)
(0.237594 0.431009 1.31359)
(0.11824 0.277021 1.21055)
(0.151522 0.243108 1.16159)
(0.191406 0.352789 1.28896)
(0.190004 0.380898 1.22083)
(0.00149365 0.0489605 1.02573)
(0.00899096 0.0875067 1.00724)
(0.0301075 0.153662 1.11816)
(0.0692563 0.148782 1.08929)
(0.0270754 0.0875077 1.04209)
(0.0126768 0.116276 1.03007)
(0.0603481 0.161113 1.11798)
(0.0531194 0.11397 1.06382)
(0.00417934 0.0248953 0.999978)
(0.0909255 0.113113 1.05544)
(0.0040426 0.0372765 0.989383)
(-0.00630899 0.0337922 0.991569)
(0.0226933 0.0932284 1.03441)
(0.0341981 0.101148 1.03228)
(0.00226023 0.0561701 0.996115)
(0.0198834 0.0943915 1.00468)
(0.00935734 0.143883 1.02295)
(0.0719737 0.197456 1.14755)
(0.130166 0.213936 1.11949)
(0.0983158 0.300821 1.13053)
(0.0440303 0.168455 1.05256)
(0.0856511 0.205678 1.10684)
(0.0666852 0.2181 1.07765)
(0.0909283 0.232835 1.12146)
(0.0216113 0.107074 1.02966)
(0.121289 0.297479 1.11594)
(0.117979 0.229214 1.10542)
(0.0367675 0.111693 1.03349)
(0.0200469 0.142676 1.03705)
(0.0479718 0.186078 1.0342)
(0.0423322 0.126945 1.02124)
(0.0976172 0.216848 1.04759)
(-0.0180847 0.0703003 1.01893)
(-0.0212674 0.076535 1.00565)
(-0.0509705 0.186405 1.09721)
(0.00448527 0.216109 1.13107)
(-0.00624731 0.073264 1.03925)
(-0.00908151 0.0842313 1.0294)
(-0.0124941 0.14786 1.0453)
(-0.0324705 0.141395 1.03751)
(-0.0200852 0.110823 1.01009)
(-0.00396928 0.162507 1.00393)
(-0.025306 0.32259 1.06225)
(0.0461161 0.316923 1.07141)
(0.0389552 0.158925 1.04583)
(0.00507283 0.138666 1.02615)
(-0.00634595 0.273169 1.05643)
(-0.0115249 0.268768 1.02616)
(-0.116647 0.34759 1.25309)
(-0.0775089 0.437878 1.20302)
(-0.204687 0.438043 1.45396)
(-0.0661031 0.451732 1.41557)
(-0.106089 0.334012 1.27892)
(-0.117588 0.411561 1.29159)
(-0.0415287 0.413824 1.41088)
(-0.102352 0.456028 1.37749)
(0.100298 0.354433 1.26389)
(0.139879 0.418217 1.21811)
(0.104233 0.402721 1.41623)
(0.104429 0.463415 1.49908)
(0.0833579 0.312841 1.26461)
(0.0702505 0.386233 1.28426)
(0.158548 0.424897 1.40954)
(0.0842922 0.452909 1.37981)
(0.0141872 0.113464 1.03187)
(-0.0366262 0.180615 1.12096)
(0.0327826 0.187789 1.14768)
(0.0826277 0.283705 1.15539)
(-0.0100366 0.22216 1.0449)
(0.00471129 0.20332 1.07969)
(0.000593503 0.23228 1.07615)
(0.00496504 0.237813 1.11446)
(-0.00100878 0.116641 1.02902)
(0.0375156 0.295567 1.10089)
(-0.022788 0.31689 1.09937)
(-0.0400864 0.236758 1.12719)
(-0.0120976 0.210232 1.03772)
(0.0072263 0.277536 1.07374)
(-0.0399494 0.239258 1.06645)
(0.0100757 0.296026 1.14546)
(-0.0322303 0.275296 1.18276)
(0.0476663 0.247463 1.2226)
(0.0513399 0.357125 1.19249)
(0.0290553 0.399024 1.38406)
(-0.027666 0.340474 1.25382)
(0.0185867 0.270873 1.18436)
(0.0359023 0.331439 1.26313)
(0.0606804 0.332325 1.27173)
(-0.0804788 0.2854 1.18031)
(0.0159209 0.423004 1.36793)
(0.015822 0.355309 1.16834)
(-0.0573959 0.379704 1.15852)
(-0.0180574 0.360252 1.27267)
(-0.0144907 0.395088 1.2588)
(-0.00975635 0.370067 1.17574)
(-0.00630324 0.395009 1.20782)
(-0.134482 0.562499 1.6151)
(0.14254 0.464523 1.53811)
(-0.0879655 0.517534 1.31449)
(0.0114002 0.685537 1.58019)
(-0.0972072 0.529445 1.53198)
(-0.0198716 0.48078 1.49379)
(-0.142841 0.620915 1.46932)
(-0.0443748 0.528844 1.31705)
(0.0929976 0.517562 1.48671)
(0.221248 0.565926 1.50936)
(0.149636 0.496395 1.35868)
(0.281471 0.752765 1.56768)
(0.166954 0.557584 1.46083)
(0.182506 0.569662 1.49553)
(0.16003 0.542551 1.40107)
(0.258457 0.565734 1.37186)
(-0.0115044 0.410283 1.17515)
(0.0636586 0.358237 1.18867)
(0.0229792 0.183228 1.07961)
(0.0755446 0.457409 1.15418)
(0.0799881 0.417522 1.16605)
(0.0315464 0.362877 1.14064)
(0.0510012 0.399838 1.11175)
(0.0860922 0.355564 1.08406)
(0.185204 0.873605 1.73847)
(0.249578 0.874301 1.59375)
(0.161792 0.775386 1.36102)
(0.302513 1.11325 1.72826)
(0.176829 0.896035 1.6352)
(0.259853 0.833132 1.55382)
(0.108534 0.994826 1.58411)
(0.180724 0.877205 1.41989)
(0.118036 0.580717 1.50031)
(0.0144577 0.509075 1.28553)
(0.0326459 0.735182 1.49829)
(0.235626 0.749769 1.61239)
(0.0730516 0.62474 1.51067)
(-0.0156011 0.59607 1.38827)
(0.167576 0.723257 1.58112)
(0.0874433 0.649631 1.50119)
(0.0525964 0.484384 1.45542)
(0.240693 0.627104 1.52738)
(0.111001 0.440055 1.29436)
(0.0528435 0.459531 1.22232)
(0.119184 0.549701 1.34498)
(0.132489 0.519457 1.35861)
(0.0818916 0.553426 1.37696)
(0.136119 0.545997 1.34462)
(-0.00701 0.564634 1.28374)
(-0.00895095 0.792491 1.49844)
(0.211473 0.810318 1.50946)
(0.0769174 0.696514 1.29393)
(0.036141 0.67286 1.35323)
(0.0377944 0.661543 1.34524)
(0.106155 0.64294 1.32125)
(0.0993773 0.704824 1.44181)
(0.0497566 0.483095 1.15618)
(0.121189 0.611535 1.1881)
(0.256409 0.730156 1.41176)
(0.153746 0.490064 1.21227)
(0.0496574 0.472278 1.18246)
(0.147782 0.574812 1.30118)
(0.0967398 0.523138 1.253)
(0.126323 0.640113 1.35518)
(0.119072 0.527532 0.981623)
(0.494715 1.27993 1.4104)
(0.22144 0.928216 1.18379)
(0.199689 0.87057 1.13933)
(0.153325 0.652714 1.08763)
(0.331183 0.895224 1.22398)
(0.133365 0.801785 1.20174)
(0.206611 0.949089 1.33016)
(1.35319 2.29665 2.41274)
(1.89757 3.1227 3.38333)
(1.56036 2.63518 3.17536)
(1.27459 2.78162 2.88748)
(1.31885 2.4772 2.8009)
(1.89299 2.81895 3.11312)
(1.35972 2.43524 2.8121)
(1.59181 2.74785 3.33826)
(0.29239 1.5136 1.33705)
(0.590433 2.03329 1.98372)
(0.127505 1.79422 1.60531)
(0.230599 1.8482 1.80006)
(0.204923 1.73986 1.60127)
(0.368454 2.00251 1.68781)
(0.25619 1.83061 1.62482)
(0.314431 1.97368 1.71053)
(0.208372 1.13361 1.47874)
(0.712854 1.86004 2.08832)
(0.303808 1.45365 1.85243)
(0.396782 1.33709 1.78819)
(0.283693 1.3813 1.68089)
(0.536117 1.57269 1.92553)
(0.319481 1.3942 1.80828)
(0.47914 1.39318 1.93182)
(0.595709 1.44385 1.60986)
(0.211909 1.11956 1.28679)
(0.191098 1.05596 1.3814)
(0.73339 1.89371 2.03113)
(0.560957 1.48833 1.7167)
(0.298036 1.09092 1.36339)
(0.600908 1.60303 1.83951)
(0.379168 1.3091 1.58534)
(0.722544 1.62586 1.85749)
(1.03331 2.11568 2.38816)
(1.02747 2.25374 2.51584)
(0.356372 1.37882 1.41286)
(0.671169 1.71639 1.87643)
(0.752171 1.62184 2.09752)
(0.517568 1.65786 1.69182)
(0.580608 1.94057 1.97719)
(0.212323 1.26824 1.43299)
(0.193677 1.14449 1.47824)
(0.722549 1.86392 2.17161)
(0.263363 1.56076 1.70355)
(0.278736 1.29292 1.41144)
(0.380721 1.28593 1.57555)
(0.256669 1.46587 1.63234)
(0.395592 1.35124 1.78356)
(0.284541 1.40874 1.49304)
(0.354226 1.60966 1.8143)
(0.858572 1.73697 2.27508)
(0.624123 1.97152 2.19965)
(0.300522 1.59091 1.66609)
(0.380637 1.71605 1.84867)
(0.536397 1.95767 2.12925)
(0.49207 1.87593 2.08551)
(0.263675 1.21594 2.78394)
(0.38097 1.10282 2.70711)
(-0.0262591 0.876758 2.41868)
(0.927639 1.73543 2.47042)
(0.325785 1.04088 2.60577)
(0.293411 1.08193 2.62364)
(0.339244 1.16868 2.40218)
(0.170391 1.1393 2.6128)
(0.417459 0.870887 2.73617)
(0.118709 0.690223 2.64449)
(-0.00808675 0.585873 2.46479)
(0.558243 1.08798 2.14308)
(0.459045 0.798939 2.59508)
(0.138864 0.715954 2.6714)
(0.461013 0.920974 2.21029)
(0.0576829 0.644798 2.39082)
(-0.142509 0.751246 2.07021)
(-0.163644 0.540798 2.03216)
(-0.231401 0.57006 1.79562)
(0.113974 0.515669 1.70397)
(-0.0205984 0.640655 1.98096)
(-0.112496 0.607678 1.91893)
(0.0182434 0.533928 1.76896)
(-0.21658 0.500797 1.82983)
(0.412465 0.926199 2.13968)
(0.0687561 0.604874 1.65033)
(0.117901 0.575415 1.59608)
(0.152898 0.550591 1.62332)
(0.178108 0.762656 1.80773)
(0.165208 0.610068 1.72312)
(-0.0123547 0.417739 1.58906)
(0.0157132 0.427645 1.70301)
(0.66705 0.898013 2.61476)
(0.177812 0.721053 2.32735)
(0.914774 1.69104 2.24645)
(0.761316 1.16648 2.10766)
(0.738719 1.14735 2.34014)
(0.337104 1.01145 2.39244)
(0.966881 1.56974 2.28582)
(0.936341 1.597 2.31269)
(0.438468 0.923652 2.73204)
(0.605505 1.05641 2.11255)
(-0.0454759 0.605583 2.1638)
(0.0283885 0.745192 2.30554)
(0.299608 0.971925 2.37294)
(0.343882 0.867415 2.2866)
(0.136334 0.650683 2.35579)
(0.143127 0.658882 2.1739)
(0.260405 0.695088 2.10491)
(0.629919 1.4182 2.10733)
(0.312173 1.13097 1.72694)
(0.0334652 0.703801 1.64126)
(0.42781 0.682416 1.96228)
(0.618375 1.29972 2.03569)
(0.212524 0.709243 1.65265)
(0.708154 0.931851 1.98158)
(0.00170875 0.782398 2.12343)
(0.0912449 0.649381 1.81278)
(0.210109 0.854887 1.82329)
(-0.0706151 0.595791 2.20155)
(-0.0584928 0.671927 2.00924)
(0.0879539 0.648816 1.75422)
(0.160706 0.667875 2.01943)
(0.289792 0.695995 1.89641)
(1.62594 2.77587 4.39694)
(2.15841 3.14123 4.97028)
(1.84926 3.02447 4.78181)
(0.998759 2.71963 3.24784)
(2.22947 2.87799 4.49812)
(2.12407 3.14328 4.94099)
(1.78003 2.75724 4.13146)
(1.94266 3.0701 4.8066)
(2.49743 2.98572 4.05224)
(2.45484 3.10036 3.44223)
(2.12334 2.99181 4.04903)
(2.13261 2.93871 4.0944)
(2.18418 2.73181 3.79161)
(2.28275 3.03291 3.70103)
(2.13455 2.72667 4.07829)
(1.99896 2.83532 3.85687)
(1.63874 2.98786 4.67362)
(2.00566 2.92655 4.71771)
(1.79354 2.87964 4.67988)
(1.21427 2.79448 3.79811)
(1.70275 2.72076 4.44886)
(1.93527 2.95629 4.69063)
(1.43532 2.75251 4.13776)
(1.76435 2.8549 4.75692)
(0.280346 2.46428 2.18559)
(0.723457 2.33868 2.27917)
(0.505288 2.56642 2.39978)
(0.0648868 2.11099 1.62818)
(0.545159 2.42307 2.26312)
(0.484684 2.41663 2.2523)
(0.420562 2.48513 2.14899)
(0.451726 2.41632 2.26596)
(2.30695 2.94435 4.55778)
(1.85939 2.72868 4.45028)
(1.39287 2.69998 3.35612)
(1.96216 2.73186 3.78258)
(1.92497 2.76829 4.4689)
(1.63177 2.78949 4.27073)
(1.51116 2.69597 3.57897)
(1.25565 2.67941 3.43845)
(2.25803 3.17493 4.73239)
(1.98881 2.88058 4.00504)
(2.01956 2.95668 4.47753)
(1.94903 3.12427 5.0386)
(2.05523 3.05416 4.60648)
(1.98933 2.69592 4.26651)
(2.01226 3.20655 4.85928)
(2.00199 2.77008 4.32219)
(1.38071 2.62951 3.95971)
(1.11008 2.74458 3.03514)
(1.63286 2.74847 3.40893)
(0.947159 2.65147 3.03117)
(1.04063 2.70007 3.40926)
(1.03547 2.62889 3.45569)
(1.33224 2.56914 3.37959)
(1.34975 2.70043 3.22706)
(1.71564 2.98621 4.7019)
(1.27792 2.69693 3.65547)
(1.7202 2.88254 4.01431)
(1.92943 2.86561 4.43396)
(1.61676 2.77561 4.29783)
(1.49763 2.87062 3.87422)
(1.83878 2.7296 4.44407)
(1.66803 2.89695 3.98461)
(1.01013 2.35527 3.59698)
(0.558498 2.37094 2.96687)
(1.43829 2.64514 4.35611)
(0.594659 2.19331 3.0078)
(0.852134 2.37273 3.49638)
(0.829459 2.42062 3.52071)
(1.19218 2.44095 3.46449)
(1.08013 2.39137 3.69262)
(0.233657 2.2627 2.18183)
(0.0447203 1.97707 1.64355)
(0.535123 2.25298 2.15195)
(0.282343 1.98529 1.82178)
(0.227026 2.21638 1.98142)
(0.120006 2.18664 2.02254)
(0.450078 2.17375 1.93096)
(0.406465 2.09694 1.90739)
(1.79481 2.79918 4.07588)
(1.75699 2.73255 3.6756)
(2.0653 2.92351 3.45842)
(1.29211 2.63307 3.15938)
(1.65357 2.61264 3.52518)
(1.71671 2.70856 3.89644)
(1.57897 2.6668 3.32939)
(1.87936 2.8218 3.25599)
(0.434093 1.84746 2.4974)
(0.322219 1.71366 1.9629)
(0.733921 2.04254 2.50915)
(0.282214 1.44964 2.03661)
(0.468295 1.80299 2.29392)
(0.441506 1.84504 2.34669)
(0.661748 1.75904 2.27028)
(0.626128 1.73028 2.18351)
(0.456357 2.33883 2.81704)
(1.27705 2.53023 3.67182)
(0.451678 2.15396 2.83766)
(0.264444 2.01111 2.30448)
(0.753101 2.44739 3.01066)
(0.886319 2.19606 2.91401)
(0.423162 2.28031 2.53155)
(0.535397 2.25313 2.79512)
(0.465758 2.34303 2.59284)
(0.361733 2.18655 2.3001)
(0.872525 2.38594 2.97369)
(1.11076 2.54271 3.9765)
(0.772876 2.26146 2.80173)
(0.584528 2.21933 2.35241)
(1.04292 2.50766 3.43974)
(0.921075 2.35945 2.94776)
(1.45673 2.42108 3.49233)
(0.728795 2.13415 2.83974)
(0.486344 1.90142 2.18242)
(1.07023 2.26285 2.75007)
(1.00162 2.36532 3.28255)
(0.669913 2.16899 2.8613)
(0.817407 2.23244 2.77226)
(0.473148 1.94344 2.27296)
(1.56384 2.55768 3.59333)
(1.12352 2.31562 2.7797)
(0.423539 1.8898 2.15797)
(1.20221 2.36088 2.93565)
(1.09148 2.301 3.05704)
(0.825598 2.21244 2.84987)
(1.1854 2.41492 2.97607)
(0.618813 2.23435 2.55576)
(0.15951 1.3928 2.74424)
(0.745858 1.7084 2.62516)
(0.0540382 0.989847 2.38715)
(0.0465009 1.39471 2.38261)
(0.129132 1.43166 2.57589)
(0.0358372 1.04325 2.47293)
(0.0757271 1.17627 2.43011)
(-0.0105691 0.976925 2.29675)
(0.290611 0.860942 2.04437)
(0.19831 0.532159 1.71804)
(0.120688 0.530308 1.60816)
(0.334995 0.692861 1.71029)
(0.212523 0.635476 1.90321)
(0.177316 0.502548 1.71919)
(0.394914 0.760235 1.83606)
(0.156989 0.538939 1.51785)
(-0.062531 0.740647 2.00817)
(-0.0165102 0.657414 1.58969)
(-0.183035 0.583376 1.6761)
(-0.097144 0.808935 1.7069)
(-0.104607 0.794283 1.85451)
(-0.0973857 0.57474 1.77478)
(-0.0743243 0.802269 1.79599)
(-0.066534 0.555057 1.63778)
(0.0427983 1.34414 2.08154)
(0.401441 1.03436 1.70199)
(0.0809619 1.00391 1.77786)
(0.231531 1.217 1.78517)
(0.143712 1.25866 1.93262)
(0.176768 0.994465 1.86904)
(0.129017 1.20691 1.847)
(0.118151 1.00432 1.72307)
(0.784622 1.80685 2.39913)
(-0.0607795 0.980643 2.24737)
(0.002413 1.29572 2.24651)
(0.189864 0.966863 2.01748)
(0.338943 1.26472 2.32541)
(0.0406689 0.976841 2.3093)
(0.383104 1.35565 2.26876)
(0.164166 1.09087 2.18161)
(0.688233 1.33863 2.10215)
(0.220752 0.758436 1.77739)
(0.12769 0.690293 1.5686)
(-0.00484217 0.777631 2.16327)
(0.262669 0.776275 1.81791)
(0.287104 0.809441 1.87224)
(0.116684 0.922643 1.87369)
(0.227779 0.674858 1.76714)
(0.0214519 0.986953 2.21176)
(0.0717175 1.20237 2.13159)
(0.148436 0.936474 1.90017)
(0.0421233 1.02873 1.93128)
(-0.00588147 1.01897 2.17842)
(0.14664 0.988516 2.11508)
(0.0467733 0.960025 1.95544)
(0.223044 1.08545 1.98698)
(0.0904558 0.763552 1.94936)
(0.0219736 0.763271 1.66029)
(0.196233 0.749632 1.71498)
(0.0280357 0.674662 1.5642)
(0.00295688 0.731531 1.95689)
(0.0583585 0.767623 1.72133)
(0.0551401 0.700488 1.75451)
(0.195849 0.730621 1.6596)
(2.5823 2.59772 1.56278)
(1.91104 2.75682 1.79374)
(3.33812 3.36059 3.66775)
(3.27744 3.07949 3.92425)
(3.88115 3.67573 3.22314)
(2.74245 2.68633 2.0468)
(3.84993 3.51005 4.13878)
(3.52043 3.30607 3.57343)
(2.30355 3.20573 2.85743)
(2.12546 3.18629 2.93947)
(2.20894 3.19607 4.07917)
(2.20061 2.99095 3.89447)
(2.30401 2.80064 3.29066)
(2.46637 3.11638 3.7357)
(2.09067 2.8429 3.67716)
(2.15546 2.84317 3.65732)
(2.60728 3.16395 4.41628)
(2.35786 2.99608 4.14893)
(1.81983 2.92524 4.30246)
(1.0902 2.59526 3.37954)
(2.62979 3.10625 4.19492)
(2.40461 3.05767 4.6632)
(2.05422 2.98692 3.93254)
(2.22937 3.07834 4.3097)
(0.927086 2.49814 2.27678)
(0.71434 2.28761 2.31484)
(0.347313 2.38277 2.2466)
(0.130303 2.04507 1.59971)
(0.913198 2.39166 2.12048)
(0.745268 2.30157 2.15975)
(0.737895 2.52226 2.18692)
(0.725884 2.44939 2.20587)
(2.83669 3.10934 3.37518)
(3.28224 3.17142 3.85141)
(2.81369 2.82048 3.45576)
(2.44562 3.01744 3.70925)
(2.57088 3.04373 3.86624)
(3.09949 2.92291 3.90572)
(2.88122 3.35403 4.13985)
(2.54542 2.83527 3.92078)
(2.79748 3.11123 3.38444)
(2.21928 3.03345 4.11524)
(2.65099 3.16545 4.33816)
(3.09246 3.21505 4.19556)
(2.62662 3.10911 3.55228)
(2.26492 2.82681 3.91568)
(2.81689 3.23053 4.05925)
(2.54584 2.97132 3.96943)
(2.91673 3.13651 3.97744)
(2.26298 2.61293 3.00525)
(1.93276 2.73848 3.2638)
(1.57881 2.80554 3.22993)
(1.94322 2.66889 3.46957)
(2.40181 2.77628 3.4225)
(1.95937 2.77358 3.28058)
(1.97513 2.55057 3.13406)
(2.98136 3.23744 4.10678)
(1.5818 2.77494 3.2385)
(2.09359 2.86922 3.6977)
(2.3181 3.00988 4.10108)
(2.71664 2.9772 4.07476)
(1.69802 2.53974 3.36734)
(2.191 2.88613 3.97967)
(1.58678 2.70482 3.61043)
(0.0329747 0.184905 1.02209)
(-0.0178973 0.595663 1.05875)
(0.0176788 0.1408 0.989907)
(0.0223319 0.575995 1.10079)
(0.0615722 0.486901 0.977488)
(0.0529222 0.485951 1.06623)
(-0.0301387 0.39616 1.02269)
(0.0350043 0.465805 1.07435)
(-0.137595 0.888003 1.24116)
(-0.230952 1.05319 1.52236)
(-0.143856 0.793789 1.25434)
(-0.116546 1.15297 1.45472)
(-0.108987 1.06133 1.39162)
(-0.198741 0.844617 1.35621)
(-0.138605 1.13916 1.398)
(-0.148175 1.06883 1.55628)
(0.00463583 0.120435 0.990164)
(-0.0704513 0.501107 1.05816)
(-0.0299365 0.179596 0.989934)
(-0.0730457 0.504845 1.07062)
(-0.0129372 0.390447 1.07913)
(-0.0461406 0.344602 0.9907)
(-0.0558887 0.312878 1.04375)
(-0.0554102 0.430327 1.12277)
(0.027829 0.877058 1.27646)
(-0.00128474 1.20385 1.4486)
(0.0250179 0.850336 1.26189)
(0.0712226 1.05389 1.50865)
(0.0805632 1.10029 1.34901)
(0.0744886 1.02403 1.28973)
(0.00776699 1.00087 1.39197)
(0.0611389 1.10279 1.51402)
(-0.0230759 0.815236 1.1269)
(0.0510825 0.436034 1.03925)
(0.065739 0.834417 1.11207)
(-0.00170898 1.13378 1.32638)
(-0.0507827 0.794024 1.14681)
(0.0293986 0.660357 1.0649)
(-0.0107897 0.936851 1.20512)
(0.0889301 0.790657 1.15571)
(-0.0477005 0.740592 1.20866)
(-0.039349 0.946685 1.27155)
(-0.10531 0.595193 1.11594)
(0.0272996 0.437322 1.06584)
(-0.0522864 0.79595 1.18888)
(-0.0567917 0.917893 1.2772)
(-0.0322914 0.482909 1.05596)
(-0.0521507 0.71578 1.17544)
(-0.0494135 0.375962 1.06362)
(-0.0371882 0.752059 1.16602)
(-0.0224656 1.18387 1.3463)
(-0.0148723 0.645659 1.21652)
(0.0278026 0.439069 1.09387)
(0.0494432 0.798659 1.18347)
(0.0286896 0.750249 1.19861)
(0.039151 0.942004 1.25511)
(0.00835623 0.430249 1.04343)
(-0.0179143 0.772757 1.29258)
(-0.0138902 1.13792 1.46692)
(-0.0685997 0.747608 1.28412)
(0.00866694 0.575408 1.13063)
(0.0117562 0.689714 1.10513)
(-0.0551926 0.709743 1.15538)
(-0.0465651 0.925235 1.20784)
(0.21484 1.36155 3.02215)
(0.896026 1.38632 3.06685)
(0.389404 1.04724 2.8469)
(1.05447 1.86025 2.75294)
(0.977912 1.4376 2.84467)
(0.792514 1.2993 2.85128)
(0.802662 1.44054 2.58082)
(0.620981 1.43155 2.8637)
(0.69306 1.04826 3.18167)
(0.195277 0.517009 3.00427)
(0.226406 0.647943 2.97467)
(0.122308 0.844101 2.41527)
(0.307837 0.839892 2.48736)
(0.173675 0.670771 2.77545)
(0.11993 0.842594 2.38267)
(0.14349 0.69031 2.86303)
(0.475913 0.898605 2.99788)
(0.255034 0.693741 2.99659)
(0.164374 0.739341 2.96484)
(0.532186 0.994266 2.58614)
(0.564005 0.857885 2.54679)
(0.262268 0.67508 2.8133)
(0.449163 0.819671 2.50706)
(0.219645 0.728488 2.905)
(0.334874 0.910395 2.11907)
(-0.00700487 0.63195 2.03125)
(-0.0307295 0.632783 1.78189)
(0.179225 0.556835 1.855)
(0.0415571 0.826217 1.95142)
(0.030569 0.727893 1.91024)
(0.0973135 0.65545 1.72459)
(0.0529753 0.502436 1.91245)
(1.19078 1.29598 2.66641)
(1.04719 1.30873 2.75289)
(0.932321 1.89195 2.55907)
(0.303894 1.22257 2.18668)
(0.902109 1.47022 2.42505)
(0.97882 1.64892 2.53405)
(0.881289 1.57098 2.61645)
(0.982341 1.79078 2.38414)
(0.716352 1.08737 2.84494)
(0.15886 0.994397 2.21623)
(0.220484 0.684068 2.78998)
(0.704114 1.05848 2.97684)
(0.544012 1.29901 3.00347)
(0.324688 1.10251 2.49292)
(0.727914 1.17054 3.13838)
(0.431986 0.911981 2.54022)
(1.01777 1.29383 2.68492)
(0.707 1.34948 2.05801)
(0.0619089 0.810429 1.87315)
(0.192532 0.969306 1.73334)
(1.14925 1.67544 2.88319)
(0.687524 1.35444 2.11133)
(0.63862 1.28915 2.12075)
(0.344224 1.14124 1.98711)
(0.682003 1.1672 3.07762)
(0.18415 0.795455 2.27491)
(0.0659341 0.740401 2.2332)
(0.220212 0.743611 2.86111)
(0.47629 1.1209 2.51105)
(0.390414 1.06283 2.23433)
(0.330749 0.919368 2.36972)
(0.345507 0.957106 2.47646)
(-0.171376 1.42305 2.96881)
(-0.243113 1.51904 2.63268)
(-0.152683 1.72183 3.19296)
(-0.0154265 1.52529 2.5584)
(-0.187336 1.44713 3.00182)
(-0.239119 1.3932 2.74409)
(-0.171006 1.59565 2.99568)
(-0.208469 1.50678 2.82211)
(-0.26683 1.43146 2.20294)
(-0.232854 1.40596 1.86276)
(-0.272901 1.714 2.22056)
(-0.0595577 1.48006 1.78947)
(-0.266784 1.47979 2.12752)
(-0.264411 1.35415 1.96301)
(-0.315355 1.66445 2.22935)
(-0.338619 1.57438 2.06543)
(-0.24391 2.10797 3.44206)
(-0.379483 2.01453 2.95025)
(-0.424402 2.39334 3.67149)
(-0.0865605 2.08327 2.70305)
(-0.290154 2.15371 3.26653)
(-0.355839 2.03597 3.06887)
(-0.321606 2.46855 3.68475)
(-0.399038 2.40797 3.41764)
(-0.00580522 1.54991 2.14427)
(-0.0196085 1.47009 1.76537)
(0.0793841 1.71848 2.16325)
(0.143652 1.37797 1.78634)
(0.0216055 1.49061 2.03931)
(0.0504133 1.46416 1.89094)
(0.0381187 1.60341 2.07444)
(0.082883 1.54542 1.96479)
(-0.256371 1.49025 2.47476)
(-0.202286 1.78502 3.18737)
(-0.0359878 1.53264 2.40896)
(-0.0579288 1.51836 2.0765)
(-0.285824 1.58064 2.54694)
(-0.2178 1.61765 2.64197)
(-0.0531146 1.53001 2.161)
(-0.0284875 1.4923 2.3167)
(-0.24776 1.49374 2.36525)
(-0.0590994 1.45986 1.98639)
(-0.296617 1.72136 2.4453)
(-0.233921 1.69646 2.94363)
(-0.285698 1.61809 2.44273)
(-0.327318 1.60017 2.26708)
(-0.220792 1.77729 2.8519)
(-0.274166 1.81824 2.65225)
(-0.265966 2.0145 3.16809)
(-0.0647036 1.66954 2.34011)
(-0.11419 1.6857 2.07483)
(-0.0635173 1.93805 2.42331)
(-0.0675331 1.82334 2.56455)
(-0.0622408 1.68428 2.34291)
(-0.016449 1.85758 2.40539)
(-0.0399322 1.65229 2.04321)
(-0.304618 1.92709 3.07682)
(-0.0497471 1.93261 2.44661)
(-0.13369 1.56893 1.92745)
(-0.381343 2.06133 2.77662)
(-0.31808 2.0182 2.86483)
(-0.124784 1.81978 2.27476)
(-0.363109 2.06776 2.92027)
(-0.188294 1.86352 2.106)
(1.03601 1.16227 1.2282)
(2.12616 2.33058 2.1904)
(2.82833 2.44282 2.18701)
(0.659751 1.39549 1.50534)
(1.16 1.37215 1.52696)
(1.24296 2.06547 1.91698)
(0.557696 1.30528 1.5542)
(1.54394 1.86096 1.93526)
(2.78777 3.46138 3.27048)
(2.33257 3.2039 2.65921)
(2.15846 3.09375 2.75922)
(2.43307 3.14346 3.86882)
(2.76502 3.23058 3.43976)
(2.74559 3.50577 3.54671)
(2.75276 3.37852 3.94943)
(2.40054 2.69362 3.54548)
(4.39387 3.56549 3.55742)
(2.63393 2.76097 2.89586)
(4.3358 3.21948 2.72106)
(3.69279 3.01582 3.48782)
(4.24427 3.56653 3.70169)
(3.94229 4.00589 3.21858)
(3.9826 3.30157 3.82126)
(3.93533 3.87902 3.72882)
(0.516873 1.74578 1.51213)
(1.06546 2.34995 2.43851)
(1.10187 2.25587 1.96324)
(0.196696 1.92961 1.55193)
(0.382052 2.00804 1.57742)
(1.28624 2.35995 2.13737)
(0.519749 2.17515 1.62044)
(0.889912 2.21677 1.95247)
(1.9348 2.65828 2.69771)
(2.94597 3.14208 2.89569)
(0.426802 1.5844 1.47573)
(1.55041 2.40044 2.78748)
(1.7562 2.43519 2.61753)
(2.16584 2.49974 2.46435)
(1.68791 2.47898 2.69755)
(1.95042 2.4379 2.18789)
(2.49138 2.78926 2.975)
(2.04911 2.6125 3.19705)
(3.72495 3.8166 3.89597)
(3.93754 3.95226 3.78876)
(2.60107 2.83809 3.05539)
(2.91149 3.10335 3.68394)
(3.63189 3.73959 3.6064)
(3.69843 3.66777 4.17884)
(2.01961 2.78828 2.73813)
(0.651433 1.52108 1.59628)
(1.11903 2.13059 2.42451)
(1.43102 2.33313 2.68939)
(1.68725 2.31397 2.27346)
(1.46085 1.98777 2.16386)
(1.37055 2.3731 2.43284)
(1.43663 2.2457 2.31487)
(3.58377 3.24189 3.38003)
(2.48303 2.49735 3.12731)
(1.99264 2.50342 3.26481)
(3.25577 3.54761 4.11576)
(3.74756 3.37779 3.64815)
(2.76066 2.74186 2.8871)
(3.54269 3.82339 4.32465)
(3.13715 3.59496 4.08019)
(0.0888222 0.43707 1.02967)
(0.141099 0.890832 1.20742)
(0.0194887 0.836208 1.21521)
(0.00120574 0.898626 1.10681)
(0.027343 0.6482 1.08032)
(0.0241268 0.85964 1.13487)
(0.0273246 0.712538 1.0439)
(0.00882414 0.805686 1.1427)
(0.17984 1.39051 1.27267)
(-0.303408 1.86962 1.48456)
(-0.315202 1.59041 1.43056)
(0.0167094 1.78109 1.47506)
(0.0403394 1.7363 1.28294)
(-0.341034 1.96196 1.53816)
(-0.0572218 1.85429 1.3213)
(-0.415226 1.92902 1.73611)
(-0.0498707 1.13702 1.44966)
(-0.300302 1.2275 1.4025)
(-0.207753 1.14157 1.60235)
(-0.0753217 1.32489 1.61112)
(-0.0323811 1.16949 1.41295)
(-0.264922 1.29031 1.52158)
(-0.0253542 1.36301 1.57366)
(-0.264816 1.30105 1.64322)
(-0.0102908 1.18651 1.29651)
(0.0966026 1.43988 1.58596)
(-0.0201784 1.36072 1.62135)
(0.120224 1.16954 1.57272)
(0.0745564 1.23633 1.48083)
(0.00127794 1.45704 1.54065)
(0.100585 1.25355 1.51259)
(-0.0211006 1.35686 1.66828)
(0.0618936 1.18122 1.19711)
(0.00641839 0.988115 1.21999)
(0.00807229 1.02721 1.21549)
(0.0565024 1.50462 1.38529)
(0.0258329 1.24132 1.18814)
(0.00457338 1.0672 1.14707)
(0.0629294 1.3289 1.30514)
(-0.0119424 1.25837 1.30624)
(0.0607561 1.3583 1.29769)
(-0.0316654 1.73811 1.40019)
(-0.308565 1.53497 1.54516)
(-0.00714061 1.18899 1.31062)
(0.0736146 1.33955 1.23328)
(0.00359586 1.65477 1.28941)
(0.104971 1.1953 1.42457)
(0.105419 1.50107 1.33971)
(0.00318949 1.05221 1.23572)
(0.0281727 1.0548 1.23115)
(0.0347559 1.57852 1.48359)
(-0.003472 1.42828 1.50295)
(-0.020671 1.24317 1.37422)
(0.00198998 1.19804 1.31516)
(-0.0054317 1.3189 1.40518)
(0.0187199 1.45768 1.40161)
(-0.0277136 1.15817 1.28903)
(-0.116345 1.37957 1.59828)
(-0.0673097 1.68522 1.58898)
(-0.122732 1.52106 1.59234)
(-0.0076072 1.35541 1.37165)
(-0.0654063 1.50026 1.46502)
(0.00495043 1.62645 1.48616)
(-0.0497204 1.53625 1.51059)
(-0.544019 2.50224 3.56236)
(-0.518868 2.1348 2.74684)
(-0.683225 2.72172 3.43915)
(-0.207804 2.17187 2.52679)
(-0.417084 2.47678 3.23305)
(-0.732347 2.5624 3.32966)
(-0.324549 2.59022 3.20435)
(-0.491421 2.58127 3.04682)
(-0.295347 1.75507 2.07789)
(-0.257648 1.38271 1.76923)
(-0.273778 1.89418 2.02533)
(-0.0347811 1.46016 1.70157)
(-0.326364 1.59357 1.93348)
(-0.377661 1.87126 2.19836)
(-0.219531 1.50242 1.69736)
(-0.241571 1.49072 1.66404)
(-0.66721 2.78644 3.24904)
(-0.558152 2.45447 2.32074)
(-0.362624 2.34213 2.25379)
(0.0810016 1.98642 1.69343)
(-0.512101 2.3499 2.04801)
(-0.895106 2.69139 2.89077)
(0.088002 1.97497 1.67962)
(-0.327732 2.19929 1.64429)
(0.0665851 1.76382 2.09693)
(-0.00474031 1.47324 1.70446)
(0.0918618 1.69805 1.77756)
(0.150115 1.37645 1.77452)
(0.0894683 1.55197 1.88104)
(-0.0508232 1.58127 1.83949)
(0.203745 1.68146 1.92175)
(0.0651443 1.51043 1.70843)
(-0.465268 2.11949 2.54836)
(-0.530316 2.56841 2.70798)
(-0.0486057 1.93834 2.237)
(-0.0969431 1.61149 1.77617)
(-0.367561 2.14689 2.44338)
(-0.396474 2.51292 2.76134)
(-0.179702 1.87889 1.98704)
(-0.252572 2.15349 2.26784)
(-0.638746 2.24662 2.69248)
(-0.182294 1.7494 1.83444)
(-0.708666 2.63899 2.59793)
(-1.07848 2.81142 3.20919)
(-0.465153 2.12756 2.37753)
(-0.355519 1.89416 1.8978)
(-0.637024 2.53493 2.87088)
(-0.495612 2.09753 2.09708)
(0.0273123 2.32271 2.3884)
(0.0671648 2.04402 2.2279)
(-0.00375703 1.68906 1.7223)
(0.238229 1.90637 1.85543)
(-0.0564771 2.20586 2.18636)
(-0.0498655 1.97085 2.03455)
(-0.0509095 1.91098 1.82413)
(-0.0237586 1.8335 1.91337)
(-0.498788 2.53067 2.36608)
(0.0480029 1.84007 1.60278)
(-0.0412071 1.62704 1.58514)
(-0.330807 1.87253 1.71885)
(-0.372879 2.12442 1.78915)
(-0.171242 2.00044 1.8137)
(-0.183664 1.73541 1.78252)
(-0.0212373 1.79683 1.65637)
(-0.0404686 0.279196 1.10078)
(-0.0851432 0.455393 1.15205)
(-0.160624 0.36578 1.18312)
(-0.0138335 0.561649 1.24072)
(-0.039222 0.399719 1.10155)
(-0.104213 0.366114 1.13116)
(-0.0307769 0.524519 1.11596)
(-0.0816116 0.447313 1.09116)
(-0.134436 0.734407 1.32169)
(-0.21767 1.02644 1.55151)
(-0.119337 0.967476 1.60812)
(-0.0953931 1.1721 1.46324)
(-0.155868 0.962183 1.50276)
(-0.277424 0.886452 1.56241)
(-0.0178318 1.10652 1.52403)
(-0.160811 0.962091 1.61824)
(-0.214388 0.474335 1.33581)
(-0.161756 0.730099 1.56919)
(-0.191428 0.565442 1.53369)
(0.0010363 0.844352 1.64949)
(-0.129117 0.631152 1.37711)
(-0.187009 0.658566 1.5224)
(-0.09879 0.687152 1.4263)
(-0.155699 0.649036 1.50886)
(-0.00711027 0.842142 1.42663)
(0.0252889 1.18941 1.46272)
(0.137998 1.05476 1.67574)
(0.152549 1.07963 1.60268)
(0.0380737 1.01928 1.49028)
(-0.0276163 1.04378 1.5754)
(0.138419 1.09364 1.54135)
(0.034705 1.04848 1.60436)
(-0.0794255 0.662441 1.24653)
(-0.0860692 0.570428 1.18925)
(-0.0254251 0.731471 1.2616)
(-0.043287 1.02769 1.44121)
(-0.0131713 0.771024 1.30219)
(0.012678 0.69161 1.21724)
(-0.0801476 0.879571 1.31858)
(-0.0718276 0.745967 1.32546)
(-0.153463 0.628424 1.28884)
(-0.176283 1.02238 1.5439)
(-0.193101 0.800058 1.50116)
(-0.120055 0.562136 1.23041)
(-0.096155 0.692151 1.27149)
(-0.031836 0.893536 1.37934)
(-0.160021 0.638942 1.44061)
(-0.115778 0.79147 1.40879)
(-0.0997621 0.647344 1.30542)
(0.0148823 0.801415 1.30564)
(0.0906056 1.14099 1.45736)
(0.00192367 0.966453 1.59662)
(-0.151922 0.663846 1.42308)
(-0.0311746 0.762554 1.28754)
(-0.0261419 0.863034 1.44469)
(0.0890103 1.02224 1.46567)
(-0.12108 0.59721 1.2456)
(-0.0284176 0.927581 1.56681)
(-0.0546983 1.06349 1.59635)
(-0.136133 0.814367 1.56)
(-0.0506445 0.792758 1.3966)
(-0.0634575 0.873614 1.4957)
(-0.0620145 0.874694 1.53675)
(-0.0127707 1.07551 1.58812)
(-0.224916 1.12646 2.61609)
(-0.16602 0.986316 2.33571)
(-0.304838 1.30298 2.43214)
(-0.0971436 1.24592 2.18662)
(-0.22343 1.15359 2.56139)
(-0.277642 1.20396 2.54285)
(-0.163866 1.22541 2.37699)
(-0.237632 1.17861 2.35376)
(-0.200013 0.784151 1.97182)
(-0.193522 0.587878 1.64848)
(-0.19852 0.810278 1.71662)
(-0.0399129 0.848283 1.71523)
(-0.153023 0.80406 1.85442)
(-0.301731 0.690501 1.71359)
(0.027254 0.851719 1.78098)
(-0.170026 0.756156 1.61163)
(-0.308723 1.29266 2.06742)
(-0.244828 0.981459 1.78586)
(-0.325246 1.20856 1.70614)
(-0.18873 1.23535 1.59603)
(-0.200182 1.19636 1.87083)
(-0.319645 1.05914 1.80911)
(-0.175935 1.31431 1.85961)
(-0.208542 1.11368 1.64752)
(-0.0375935 1.2435 1.83103)
(0.0955086 1.05759 1.73079)