/*--------------------------------*- C++ -*----------------------------------*\
| =========                 |                                                 |
| \\      /  F ield         | OpenFOAM: The Open Source CFD Toolbox           |
|  \\    /   O peration     | Version:  2506                                  |
|   \\  /    A nd           | Website:  www.openfoam.com                      |
|    \\/     M anipulation  |                                                 |
\*---------------------------------------------------------------------------*/
FoamFile
{
    version     2.0;
    format      ascii;
    arch        "LSB;label=32;scalar=64";
    class       volScalarField;
    location    "1500";
    object      p;
}
// * * * * * * * * * * * * * * * * * * * * * * * * * * * * * * * * * * * * * //

dimensions      [0 2 -2 0 0 0 0];

internalField   nonuniform List<scalar> 
45440
(
0.506912
0.529382
0.650693
0.584268
0.538145
0.554153
0.60009
0.608973
0.543205
0.591564
0.673392
0.595766
0.572926
0.598812
0.615333
0.62103
0.746827
0.735129
0.813448
0.821005
0.760015
0.761096
0.812524
0.79641
0.676836
0.672708
0.830907
0.823957
0.722291
0.734948
0.816093
0.805064
0.554896
0.668043
0.61885
0.602961
0.604221
0.631512
0.581116
0.635098
0.578843
0.630197
0.69364
0.681418
0.611172
0.635968
0.646406
0.662275
0.728649
0.685772
0.660168
0.811371
0.727912
0.6866
0.744805
0.72076
0.723631
0.798299
0.66223
0.706312
0.742688
0.756134
0.712788
0.71557
0.132567
0.31965
0.323076
0.289318
0.322502
0.303585
0.284754
0.403104
0.440134
0.545048
0.490529
0.559876
0.491781
0.520932
0.535596
0.53893
0.406366
0.466961
0.418503
0.49273
0.474656
0.460391
0.465882
0.513707
0.516666
0.637392
0.568311
0.720869
0.621374
0.647353
0.669098
0.710965
0.391013
0.421484
0.453728
0.52364
0.451416
0.408479
0.491479
0.492222
0.406719
0.560018
0.483313
0.395945
0.462112
0.489414
0.426519
0.488499
0.429714
0.551346
0.599607
0.546434
0.429141
0.539775
0.541257
0.54487
0.47507
0.599244
0.589596
0.52098
0.478191
0.544852
0.538478
0.540696
0.819471
0.842707
0.74542
0.794076
0.817977
0.802818
0.788982
0.768476
0.861143
0.870175
0.717597
0.761779
0.84824
0.826888
0.788473
0.752315
0.680424
0.619546
0.625885
0.61729
0.643134
0.627236
0.631946
0.600105
0.74257
0.704667
0.638069
0.666193
0.718231
0.695915
0.668452
0.6387
0.835821
0.727662
0.77856
0.77812
0.784239
0.758413
0.787573
0.763742
0.814865
0.741694
0.680051
0.707965
0.769292
0.751208
0.734653
0.691242
0.710703
0.742088
0.713701
0.634249
0.704565
0.717058
0.67
0.704631
0.684028
0.612298
0.692922
0.638183
0.662254
0.653397
0.654212
0.63738
0.174063
0.34659
0.389336
0.304522
0.221945
0.293613
0.32742
0.364208
0.471055
0.569137
0.589666
0.572872
0.496174
0.503357
0.529208
0.533151
0.59598
0.697849
0.82303
0.716934
0.635434
0.659107
0.707623
0.698384
0.485502
0.599394
0.673262
0.616973
0.523405
0.543125
0.583255
0.60124
0.390349
0.443395
0.385683
0.507887
0.412412
0.409664
0.43338
0.447175
0.388475
0.526558
0.551178
0.460197
0.436519
0.491756
0.534112
0.560134
0.530657
0.45653
0.542079
0.632918
0.491935
0.502284
0.563445
0.558292
0.52697
0.655516
0.568535
0.578551
0.567368
0.615053
0.574494
0.598014
1.32896
1.22197
1.2577
1.45526
1.40395
1.31814
1.51514
1.3837
1.11734
1.0427
0.997148
1.30925
1.14889
1.10228
1.20753
1.11304
1.05493
0.886838
0.830963
0.827351
0.946883
0.908973
0.96637
0.833283
1.02948
0.919511
0.878023
1.20395
0.797855
0.693724
0.359788
-0.00150766
1.25905
1.22857
1.4686
1.21126
1.33519
1.3374
1.3134
1.43823
1.20829
1.2821
0.954121
1.12024
1.21008
1.20878
1.08266
1.02141
1.26895
1.555
1.15739
0.545958
1.08365
1.33711
0.82102
1.36078
1.1141
0.288159
0.9954
0.881234
1.03746
0.852677
0.955078
0.946238
0.708756
0.794166
0.588778
0.575553
0.684516
0.77005
0.66485
0.681225
0.910032
0.97974
0.796256
1.27631
1.06617
1.00072
1.1562
1.00469
0.517003
0.394415
0.177493
0.465109
0.542078
0.377899
0.270993
0.185313
0.143531
1.27774
0.514447
0.763839
0.189975
0.487109
0.193527
0.785878
0.781298
0.580698
0.336651
1.09773
0.766845
0.580019
0.807097
0.499643
0.819698
1.20104
0.716301
0.630742
0.823196
1.01589
0.648394
0.780537
0.410739
-0.00168771
1.15629
0.591069
0.296128
0.389311
0.722717
0.768616
0.693999
0.783428
1.42461
0.728978
0.46594
0.657683
0.759751
0.854413
0.820169
0.755334
0.763745
0.740417
0.766206
0.759231
0.765161
0.757185
0.679542
0.565102
0.622494
0.578989
0.596265
0.60637
0.591252
0.614634
0.746858
0.675743
0.702869
0.691876
0.713258
0.700683
0.71254
0.703586
0.69113
0.615562
0.662257
0.622999
0.654293
0.636733
0.656938
0.642933
0.694108
0.743805
0.710536
0.607156
0.693976
0.71912
0.679481
0.697306
0.69247
0.600182
0.66504
0.740052
0.690603
0.633217
0.696941
0.664096
0.736181
0.716666
0.612032
0.690197
0.724617
0.701245
0.688492
0.659325
0.733657
0.682883
0.61436
0.66214
0.702608
0.682567
0.655994
0.642471
0.160758
0.219418
0.138305
0.264585
0.216639
0.20222
0.211017
0.19061
0.304075
0.389666
0.417122
0.480536
0.373466
0.35492
0.39756
0.403796
0.158179
0.397708
0.19306
0.321262
0.258076
0.215468
0.180781
0.206825
0.404415
0.500247
0.426288
0.545338
0.440654
0.447531
0.466577
0.462527
0.294678
0.237538
0.314632
0.404738
0.312593
0.25585
0.35336
0.325172
0.293522
0.404545
0.282416
0.201961
0.303051
0.355357
0.232858
0.32759
0.205786
0.340979
0.424006
0.31748
0.291097
0.334227
0.332898
0.388804
0.184294
0.33677
0.426177
0.33543
0.251011
0.334736
0.312987
0.43889
0.705441
0.66453
0.735634
0.706201
0.708798
0.700566
0.740675
0.731544
0.586062
0.520094
0.655048
0.598834
0.600781
0.585652
0.633741
0.623811
0.782121
0.748316
0.807776
0.851689
0.794329
0.776269
0.835504
0.815115
0.752431
0.711431
0.879903
0.865187
0.785946
0.766304
0.865779
0.840755
0.662727
0.740343
0.713408
0.667212
0.708514
0.742451
0.64103
0.698051
0.647273
0.654721
0.695348
0.731806
0.698779
0.683782
0.706897
0.711234
0.776409
0.780036
0.723415
0.869353
0.807267
0.759188
0.789207
0.762316
0.764552
0.836946
0.698121
0.73277
0.772655
0.771924
0.75806
0.747363
0.0375897
0.0371716
0.224282
0.268557
0.101672
0.0863064
0.225061
0.218189
0.0397584
0.0424925
0.263708
0.33609
0.152234
0.134556
0.326085
0.298546
0.33177
0.386283
0.428562
0.524402
0.380106
0.376588
0.449077
0.444159
0.464907
0.553949
0.612627
0.774746
0.548644
0.532836
0.645344
0.638006
0.113818
0.253799
0.313804
0.34339
0.290504
0.264034
0.25689
0.312264
0.115694
0.330508
0.288166
0.260788
0.263903
0.275324
0.217807
0.294583
0.339428
0.419714
0.489336
0.541897
0.408898
0.412314
0.449133
0.483645
0.338826
0.537381
0.475725
0.399468
0.384717
0.447191
0.414944
0.460215
0.115169
0.47164
0.448953
0.378233
0.464655
0.470958
0.38253
0.46836
0.753708
0.859806
0.844658
0.78934
0.866044
0.939448
0.817241
0.852547
0.598538
0.784251
0.74924
0.695371
0.646999
0.724185
0.68895
0.733238
0.535955
0.705419
0.674624
0.643324
0.623686
0.686633
0.621441
0.674257
0.667806
0.589942
0.556573
0.712216
0.590195
0.507922
0.61571
0.598639
0.807261
0.79346
0.829017
0.68741
0.653708
0.690683
0.638482
0.735768
0.545558
0.506585
0.694109
0.668516
0.589585
0.558513
0.653275
0.643843
0.603978
0.718605
0.745641
0.807449
0.672466
0.701826
0.776832
0.725758
0.799845
0.845865
1.01244
0.74162
0.788491
0.895842
0.829841
0.898194
0.893324
0.952107
1.07654
0.810604
0.91603
1.05317
0.938543
1.03328
1.1744
1.15904
1.2847
1.01614
1.14311
1.24864
1.14394
1.22305
0.716209
0.746318
0.847274
0.687933
0.701493
0.775075
0.730717
0.783249
0.852796
0.980343
0.751808
0.763891
0.90449
0.898393
0.793581
0.831859
0.959989
0.880131
1.15554
1.0823
0.948138
0.918663
1.02771
1.04125
1.00087
0.783039
0.803038
0.912491
0.920209
0.847423
0.891002
0.832736
1.07267
0.968631
0.887718
1.13207
1.02076
0.97295
1.04268
0.926991
1.17352
1.37649
1.42375
1.14248
1.21833
1.28746
1.19387
1.30094
1.42718
1.39507
1.88642
1.01465
1.36016
1.43117
1.07453
1.3977
1.88251
2.39736
2.22017
1.74761
1.96364
2.10765
1.95562
2.20999
1.05365
0.993937
1.20488
0.90694
1.05019
1.01727
1.01729
1.03334
1.3851
1.49645
1.1701
1.19388
1.34127
1.32186
1.2362
1.20956
1.41436
1.06565
1.83823
1.6252
1.48012
1.31224
1.73685
1.71221
1.47269
1.13545
1.08353
1.40366
1.38616
1.23901
1.42039
1.21241
1.64346
1.46114
1.18434
1.99287
1.63108
1.4109
1.5753
1.47025
0.0694042
-0.0896451
0.0865109
0.227593
0.0665434
0.0282912
0.146663
0.109949
-0.426443
0.0913805
-0.36045
-0.00344381
-0.485753
-0.0131132
-0.108716
0.15749
0.337198
-0.251258
0.823798
0.580768
0.188401
0.140287
0.594149
0.470065
0.438427
0.333908
0.569558
0.658465
0.484971
0.391048
0.620112
0.692711
-0.233481
0.0286351
0.243131
-0.213724
-0.0624964
0.0549964
-0.0761048
0.122184
-0.358032
0.0196818
-0.443979
-0.0329953
-0.398702
-0.294612
-0.182683
-0.48919
0.202725
0.355566
0.28678
0.57971
0.429325
0.310872
0.386925
0.38835
0.0292479
0.264198
0.203029
0.0698803
-0.0996229
0.17932
-0.32311
0.209692
0.709224
0.734334
0.674408
0.726649
0.719413
0.709753
0.717104
0.710523
0.775764
0.833474
0.738474
0.876496
0.812615
0.803954
0.808347
0.794563
0.606364
0.645987
0.525714
0.605348
0.616246
0.607098
0.595614
0.586654
0.773309
0.896503
0.718013
0.872974
0.839452
0.8131
0.825921
0.800888
0.757359
0.678418
0.7573
0.837427
0.747287
0.712809
0.7934
0.738429
0.749048
0.821924
0.704005
0.667486
0.735975
0.761088
0.695915
0.71615
0.674672
0.758926
0.826628
0.675128
0.653404
0.737988
0.703149
0.773281
0.667722
0.664149
0.816044
0.688222
0.65982
0.683608
0.700263
0.736825
0.0271523
0.221132
0.0735928
0.262538
0.175956
0.184275
0.163325
0.173239
0.332478
0.433638
0.356379
0.520182
0.401911
0.392005
0.432128
0.425656
0.0750868
0.256417
0.0908328
0.303269
0.224591
0.219117
0.214011
0.22614
0.448166
0.610537
0.511343
0.771804
0.599079
0.5879
0.62845
0.621931
0.305922
0.192925
0.362746
0.494834
0.310563
0.259912
0.40652
0.357527
0.301066
0.478582
0.321937
0.188088
0.308143
0.39425
0.236558
0.328942
0.188707
0.374198
0.518619
0.426595
0.265075
0.371316
0.403146
0.454252
0.200025
0.422987
0.518097
0.335258
0.305024
0.382862
0.344722
0.431733
1.06035
0.968291
1.19942
1.0276
1.04715
1.03533
1.08776
1.10114
0.834062
0.694195
0.787036
0.731803
0.792709
0.769895
0.798067
0.750727
1.19887
0.858319
1.0655
0.869914
1.03892
1.0029
0.942238
0.853643
0.944602
0.761693
0.770003
0.8196
0.88975
0.858097
0.874974
0.845655
0.924061
1.14124
1.0054
0.824728
0.94856
1.03048
0.89348
0.977043
0.895502
0.82848
0.899714
1.09031
0.916971
0.844976
1.01006
0.91932
1.15004
1.00713
0.833629
0.943885
1.08633
1.02267
1.00499
0.917423
1.09383
0.907717
0.805698
0.865277
0.98462
0.968632
0.920297
0.818591
0.0906918
0.162379
0.339809
0.277717
0.149735
0.192001
0.266565
0.286152
0.493267
0.966307
0.813161
0.799568
0.610486
0.656134
0.724207
0.728181
0.492455
0.719285
0.628424
0.651048
0.595415
0.625685
0.61157
0.635335
0.521511
0.670093
0.692146
0.715853
0.568013
0.629605
0.611725
0.658395
0.294186
0.420701
0.341325
0.583239
0.356582
0.405134
0.470184
0.359551
0.346683
0.654277
0.707619
0.424915
0.432622
0.676522
0.5223
0.66063
0.436872
0.434812
0.648967
0.637446
0.522533
0.462644
0.606605
0.635961
0.46371
0.664846
0.684254
0.718663
0.625587
0.662397
0.688069
0.73839
0.023165
0.0465054
0.0265475
0.231286
0.062696
0.00261599
0.093877
0.0500921
0.0560276
0.0595964
0.05482
0.347786
0.11574
0.0199936
0.202101
0.100938
0.0344554
0.0456974
0.0169031
0.292446
0.0810143
0.0232771
0.163661
0.118004
0.462659
0.565365
0.511714
0.794245
0.523191
0.488064
0.591796
0.584081
0.0906297
0.0810302
0.252777
0.312433
0.147885
0.196929
0.287849
0.191834
0.00655822
0.251671
0.0398388
0.0243127
0.0582906
0.242474
0.0423984
0.113072
0.119744
0.309589
0.406257
0.384999
0.207068
0.26649
0.300332
0.408884
0.0615338
0.358636
0.334654
0.119647
0.221106
0.268877
0.19361
0.276809
0.714255
0.751834
0.746056
0.721787
0.737825
0.74242
0.740277
0.74519
0.798963
0.806576
0.825201
0.861115
0.800069
0.811233
0.839148
0.844339
0.77922
0.838722
0.832343
0.87999
0.837246
0.84199
0.844653
0.859428
0.767043
0.926444
0.921296
0.91581
0.892529
0.911769
0.917469
0.941294
0.778645
0.769963
0.792412
0.837556
0.787567
0.770982
0.840215
0.807896
0.787212
0.856648
0.829736
0.782126
0.797036
0.821691
0.79354
0.825084
0.770773
0.80504
0.875569
0.864106
0.829746
0.822162
0.869245
0.865195
0.782907
0.888509
0.893214
0.850413
0.841857
0.8827
0.836797
0.881949
2.61562
1.78856
2.34405
2.56506
2.58831
2.43137
3.03009
2.65655
1.23025
0.912178
0.853772
0.404304
1.1033
1.03404
0.832756
0.719875
1.69929
0.755694
1.13554
1.52325
1.18237
1.16717
1.44622
1.08305
1.90438
0.412613
1.69095
1.83717
1.22155
1.00375
1.3798
0.267884
1.57498
1.99227
2.03822
0.76557
1.57607
2.5319
0.843077
2.08422
1.52659
0.811054
1.15851
1.87118
0.911859
0.850362
1.20804
1.11389
2.24891
2.32097
0.833674
1.27392
2.1177
1.78962
1.20348
1.65476
1.63037
1.07186
0.515144
0.684969
1.49416
1.04594
1.01418
0.967225
0.341288
-0.328175
-0.00511684
0.00588958
-0.0734704
-0.00221285
0.0689532
0.244092
0.246761
0.79278
0.447314
1.20479
0.204183
0.604093
0.636629
1.01749
0.326956
0.528135
0.769017
0.18855
0.42842
0.53876
0.452261
0.651429
0.0188761
1.61411
0.428147
0.689978
0.653858
0.327303
0.399413
0.355308
-0.254953
0.200751
0.0452129
0.265129
0.124354
0.182222
0.229156
0.106184
0.132163
0.398943
0.436847
0.199126
0.242496
0.341166
-0.00749899
0.30456
0.305902
0.0547675
0.545739
0.172721
-0.0432948
0.0707194
0.103863
0.0267412
0.259127
0.164795
0.568132
0.830973
0.108035
0.131143
0.407181
0.650638
1.46381
1.72384
1.40175
1.45696
1.52462
1.56199
1.48157
1.52378
2.06363
2.33799
1.91623
2.17187
2.09913
2.10322
2.0452
2.06582
1.3095
1.50231
1.20977
1.39698
1.34836
1.32821
1.29048
1.28882
1.42445
1.76432
1.3968
1.2992
1.44886
1.53277
1.38513
1.43885
1.77865
1.45044
1.50244
1.78628
1.735
1.58527
1.73581
1.56184
1.82281
1.90187
1.66539
1.44164
1.76617
1.8826
1.63187
1.6889
1.38989
1.47555
1.73577
1.37632
1.44119
1.51533
1.46117
1.61715
1.40179
1.4312
1.83523
1.61199
1.46672
1.52073
1.60275
1.75163
0.0107183
0.0491077
0.0169811
0.0528246
0.0212779
0.00443747
0.0224873
0.0229502
-0.223648
-0.291126
-0.109498
-0.500902
-0.177439
0.083905
-0.381497
-0.26299
0.0170214
-0.0540313
-0.000503533
0.124304
0.00707678
-0.0147268
0.0114641
-0.00247331
0.255488
-0.263097
0.36457
0.784845
0.150704
0.0506583
0.407534
0.286698
-0.0596261
0.0577428
-0.0705036
-0.449481
-0.0581835
0.017842
-0.178132
-0.115209
-0.0478601
-0.417308
-0.105572
0.0163671
0.0213007
-0.47554
-0.00277301
-0.281107
0.051732
0.0157285
-0.499631
0.0913615
0.0621539
-0.0414952
-0.0938485
-0.177027
0.056966
0.00935956
-0.62815
-0.171177
-0.139056
-0.109493
-0.241748
-0.203155
0.817867
0.776943
0.821951
0.819963
0.812538
0.797355
0.818628
0.81214
0.708965
0.617236
0.662187
0.66933
0.691
0.66583
0.682373
0.671311
0.806928
0.700098
0.754591
0.733072
0.759388
0.736737
0.7509
0.748575
0.781357
0.691268
0.712451
0.691549
0.732963
0.717392
0.72266
0.714126
0.762812
0.79857
0.797823
0.721069
0.762897
0.785496
0.768602
0.786967
0.739726
0.697814
0.690569
0.779643
0.752482
0.70508
0.758017
0.716412
0.803202
0.790492
0.714451
0.74534
0.794732
0.787087
0.746437
0.733816
0.793127
0.73643
0.706051
0.706346
0.742402
0.730038
0.717009
0.69882
0.162654
0.361971
0.354839
0.367041
0.254807
0.297391
0.314411
0.350947
0.538951
0.711091
0.656126
0.680348
0.624803
0.641403
0.638153
0.663124
0.47054
0.606602
0.578072
0.624447
0.545731
0.570394
0.598545
0.605216
0.526269
0.66379
0.644862
0.646783
0.598199
0.639271
0.626932
0.658324
0.465603
0.428873
0.449998
0.616307
0.495068
0.441791
0.533943
0.489615
0.477574
0.656208
0.618661
0.461157
0.511181
0.587212
0.506596
0.591276
0.474388
0.487006
0.646606
0.622425
0.511509
0.518544
0.577002
0.609448
0.495424
0.644734
0.674681
0.634469
0.576394
0.61369
0.624846
0.637658
-0.0467168
0.308265
0.359696
0.0400442
-0.0107837
0.143148
0.248012
0.309806
0.39131
0.209262
0.44805
0.136108
0.247319
0.479586
0.271617
0.333364
0.515446
0.531708
0.657125
0.367857
0.645481
0.555519
0.512741
0.490641
0.0111209
0.121175
-0.160108
0.222031
0.263189
0.125084
0.154165
0.114935
0.306006
0.390988
0.410144
0.304511
0.396654
0.380446
0.339059
0.405159
0.357682
0.254128
0.385054
0.425482
0.440504
0.380948
0.442767
0.255877
0.524494
0.467071
0.269663
0.0643709
0.0357209
0.424006
0.00390111
0.145761
0.538231
0.331231
0.0769176
0.299295
0.333797
0.142273
0.181979
0.00167496
1.43474
1.31159
1.68345
1.60906
1.45846
1.45575
1.63638
1.59634
1.11856
0.837563
1.11731
0.753718
1.04695
0.991484
1.06909
1.00281
1.91658
1.62394
2.17626
2.37573
2.12748
2.01316
2.4506
2.2756
1.05447
1.08398
2.26612
1.72177
1.17765
1.73383
1.482
1.60003
1.23387
1.82083
1.57286
1.01639
1.41296
1.73763
1.18778
1.46276
1.25467
1.16445
1.40575
1.72387
1.33859
1.36452
1.45859
1.4342
1.90271
1.73697
1.47068
2.52355
2.04025
1.71671
2.45777
2.43021
1.89827
2.27369
1.20652
1.52761
2.07554
2.31327
1.66612
1.41463
0.840455
0.819824
0.817693
0.844204
0.832598
0.819583
0.833991
0.810708
0.754927
0.598983
0.669198
0.677956
0.711465
0.678461
0.702257
0.65905
0.775528
0.681781
0.684619
0.723829
0.732006
0.709085
0.70998
0.675771
0.853759
0.773295
0.785078
0.900852
0.848324
0.807801
0.858243
0.812806
0.794379
0.792595
0.835088
0.777433
0.792968
0.810875
0.794736
0.80194
0.771323
0.731181
0.713149
0.774067
0.762244
0.749576
0.77044
0.74153
0.779545
0.839366
0.77339
0.776471
0.799033
0.800545
0.775396
0.785939
0.760571
0.732328
0.726677
0.687367
0.740396
0.734158
0.729382
0.715887
0.0846801
0.331539
0.373345
0.402818
0.298297
0.324715
0.41169
0.439589
0.505442
0.623078
0.649762
0.675928
0.606083
0.616975
0.643203
0.65413
0.520967
0.634873
0.555512
0.624124
0.608946
0.593438
0.618965
0.646528
0.674673
0.735515
0.745558
0.883332
0.739319
0.718433
0.820405
0.807466
0.479663
0.486304
0.544879
0.637564
0.549202
0.486307
0.579566
0.555553
0.501813
0.660191
0.615808
0.506408
0.544
0.605942
0.54293
0.606224
0.542997
0.628113
0.706438
0.709894
0.597906
0.629212
0.667345
0.664267
0.555602
0.705316
0.682862
0.667128
0.608152
0.655204
0.678453
0.681638
1.1536
1.22888
1.29817
1.06873
1.15641
1.22251
1.14197
1.26464
1.30644
1.36366
1.37768
1.19922
1.28442
1.36659
1.26963
1.32506
1.26601
1.30076
1.18221
1.01303
1.16803
1.28381
1.06804
1.18261
0.952052
1.00044
0.892001
0.797164
0.941053
0.950175
0.870118
0.904069
1.24186
1.24649
1.06954
1.10335
1.22291
1.22079
1.13776
1.11405
1.30656
1.16022
1.36548
1.31562
1.28309
1.2612
1.32128
1.27832
1.16951
1.01288
1.0598
0.954334
1.08379
1.07297
1.02056
1.03152
1.27301
1.01214
1.11833
1.26117
1.17444
1.07945
1.20181
1.14305
0.0562077
0.116566
0.0460266
0.216642
0.159915
0.13781
0.15119
0.143869
0.378877
0.76127
0.481024
0.71412
0.61894
0.552553
0.659173
0.625213
0.0288575
0.205898
0.0367488
0.262975
0.166749
0.142628
0.174996
0.167589
0.427876
0.690422
0.467924
0.649168
0.625648
0.596482
0.623787
0.59101
0.345041
0.129059
0.394597
0.630691
0.387045
0.22914
0.429867
0.375371
0.293193
0.63533
0.348318
0.119429
0.322508
0.492168
0.1657
0.361499
0.142513
0.397926
0.645646
0.399719
0.263614
0.365474
0.401135
0.483852
0.140844
0.377551
0.611232
0.357795
0.252115
0.387059
0.402112
0.480691
0.821882
0.828382
0.796081
0.830232
0.82624
0.823669
0.81533
0.80912
0.837098
0.844862
0.834159
0.82376
0.839932
0.839409
0.823586
0.826128
0.750233
0.779027
0.656635
0.712378
0.75574
0.753221
0.705407
0.702298
0.797104
0.784042
0.72619
0.726036
0.771438
0.769188
0.73238
0.729214
0.833243
0.792193
0.819675
0.817405
0.826642
0.811047
0.825661
0.815832
0.830786
0.816866
0.811747
0.790189
0.823119
0.826276
0.796746
0.815395
0.772891
0.79616
0.790342
0.730086
0.78839
0.793467
0.770159
0.778346
0.769172
0.72548
0.788951
0.784515
0.769913
0.768696
0.780913
0.779048
0.130258
0.306776
0.150233
0.324856
0.226735
0.224808
0.227347
0.218409
0.432456
0.544685
0.513529
0.615244
0.516095
0.496269
0.546938
0.54296
0.11677
0.397736
0.210064
0.363231
0.244904
0.210419
0.224823
0.23121
0.492192
0.626555
0.504664
0.613758
0.565572
0.565812
0.55897
0.559819
0.395696
0.24269
0.417354
0.5495
0.415683
0.309303
0.483682
0.415335
0.384807
0.54896
0.41003
0.228101
0.411627
0.488762
0.314794
0.432152
0.221251
0.40744
0.571751
0.421418
0.336565
0.415813
0.416221
0.490612
0.21694
0.419673
0.565307
0.434205
0.32069
0.432031
0.413199
0.514881
0.804529
0.776643
0.832705
0.799507
0.797713
0.800533
0.819784
0.817953
0.713594
0.603287
0.761367
0.685963
0.684408
0.6897
0.741352
0.73573
0.831981
0.82279
0.845046
0.854305
0.833746
0.828709
0.846327
0.842743
0.84
0.791797
0.877813
0.917999
0.845383
0.830659
0.895184
0.875787
0.761835
0.821764
0.796576
0.75671
0.7877
0.816951
0.743784
0.793134
0.773038
0.750907
0.777991
0.8222
0.786346
0.768567
0.787473
0.786232
0.829664
0.829662
0.796094
0.866123
0.83711
0.819226
0.828948
0.815921
0.826111
0.856715
0.783216
0.802617
0.821624
0.81893
0.820292
0.809414
0.0574102
0.0262858
0.301791
0.355707
0.162375
0.140975
0.320639
0.299467
0.0146974
0.0482324
0.368629
0.413456
0.189288
0.148327
0.389088
0.36281
0.426329
0.506913
0.562424
0.649443
0.496521
0.491328
0.568236
0.556221
0.629829
0.667925
0.776736
0.904029
0.685199
0.662711
0.792511
0.761403
0.15332
0.352328
0.414767
0.411736
0.357183
0.38228
0.327441
0.420048
0.155351
0.400518
0.369268
0.372169
0.323609
0.359105
0.27896
0.355703
0.43419
0.527425
0.551415
0.638709
0.508175
0.52124
0.568894
0.600613
0.43338
0.62433
0.535534
0.482123
0.507278
0.561803
0.51548
0.618326
1.05237
1.01282
1.13052
0.931989
1.0063
1.04095
1.00061
1.0367
0.920129
0.804524
0.999184
0.775736
0.873434
0.896252
0.864573
0.899435
1.21215
1.16551
1.26992
1.02755
1.15873
1.20491
1.15927
1.19678
0.826423
0.735736
0.87175
0.719634
0.783509
0.800739
0.773786
0.790723
0.958588
1.08624
0.895807
0.826247
0.944477
1.00449
0.879217
0.921152
0.988982
0.845658
1.08098
1.12894
0.984399
0.929488
1.09681
1.04035
1.06669
0.885117
0.817744
0.9366
0.991775
0.913471
0.948631
0.872911
1.11196
0.961657
0.844592
1.06966
1.06136
0.976849
1.03282
0.929302
0.152901
0.436249
0.0685481
0.420916
0.296799
0.297387
0.247332
0.315627
0.600223
0.681097
0.489739
0.66147
0.583147
0.562937
0.580736
0.566487
0.0193751
0.301189
0.0586644
0.302971
0.259918
0.185877
0.264044
0.19543
0.52637
0.642818
0.484675
0.628852
0.571883
0.542911
0.542955
0.569878
0.40961
0.282167
0.436262
0.576613
0.401464
0.296435
0.565674
0.427422
0.380783
0.550439
0.381391
0.208511
0.400597
0.513968
0.276478
0.424681
0.260655
0.393839
0.570874
0.429032
0.28912
0.452707
0.430395
0.471256
0.22748
0.408974
0.560246
0.382597
0.323582
0.389674
0.43652
0.475098
1.64922
1.35679
1.82264
1.82859
1.50088
1.5199
1.71665
1.71128
1.2261
1.15223
1.49315
1.65374
1.26171
1.26033
1.4674
1.42632
2.00021
1.76987
2.20617
2.21475
1.9548
1.93552
2.14881
2.10381
1.60872
1.81341
2.00091
1.80166
1.63357
1.77009
1.7024
1.95872
1.34477
1.82188
1.90105
1.81028
1.58118
1.71337
1.62282
1.76499
1.3922
1.71564
1.60881
1.76882
1.55516
1.61952
1.61491
1.64611
1.94073
1.82453
1.83886
2.00289
1.86662
1.82965
1.85055
1.82564
1.91555
1.9328
1.71684
1.66686
1.80736
1.8324
1.71843
1.69613
1.25259
1.89881
1.78919
2.16955
2.02414
2.52211
2.4
3.43592
1.41868
1.05786
1.17907
1.58484
1.24589
1.14066
1.32514
1.24921
1.37997
1.26598
1.41182
1.76732
1.44182
1.34359
1.42715
1.41209
1.13951
1.77688
1.66712
2.05635
2.09901
1.79166
2.29664
1.63351
1.71119
1.98124
1.56828
1.88888
1.54603
2.19005
1.73757
2.25846
1.35307
1.45405
1.15534
1.33768
2.11621
1.71993
1.43478
1.34106
1.68521
1.21971
1.98349
1.89407
1.68063
2.47078
1.86832
1.79051
1.28387
1.90647
1.86722
1.2775
1.25488
1.57328
1.40074
1.6591
0.0534479
0.0250397
0.0300823
0.249313
0.207745
0.070221
0.147076
0.10838
0.0204107
-0.0652471
0.00218941
0.300034
0.125479
0.00894713
0.273878
0.109215
-0.0491264
0.0676036
0.296949
0.078405
-0.249769
-0.325591
-0.141564
-0.325949
0.422795
0.435964
0.404975
0.601363
0.551333
0.386015
0.528127
0.58052
0.135318
-0.06402
0.378152
0.332771
0.234304
0.174198
0.280997
0.236704
0.0078003
0.182608
-0.0111452
-0.161562
0.109304
0.177982
-0.0729618
-0.0433083
0.107728
0.342381
0.463117
0.337199
0.0645144
0.296694
0.199578
0.31999
-0.0219332
0.0976523
0.312072
-0.238869
0.0723178
0.124415
-0.0282248
0.413383
1.37117
1.30126
1.54894
1.26036
1.33105
1.41645
1.42501
1.46447
1.19612
1.10068
1.29877
1.06244
1.14588
1.18545
1.17913
1.20892
1.77956
1.60266
1.98717
1.57376
1.74435
1.8023
1.86908
1.89282
1.0889
0.971357
1.12983
0.878025
0.99999
1.03721
0.983548
1.01696
1.23248
1.5163
1.20172
1.10558
1.29615
1.36627
1.15324
1.24364
1.29867
1.14476
1.43766
1.6037
1.33881
1.24565
1.43839
1.37685
1.63546
1.23065
1.11515
1.32984
1.38018
1.27332
1.31518
1.1887
1.68505
1.36855
1.15201
1.48597
1.54735
1.36011
1.43903
1.23256
1.09837
1.21609
0.975363
1.00625
1.12419
1.13711
1.03438
1.02919
1.20268
1.13498
0.869329
0.84125
1.03224
0.980646
0.967
0.913928
0.844471
0.780476
0.677232
0.691469
0.79182
0.765924
0.724764
0.701861
0.873309
0.776397
0.714962
0.743532
0.873134
0.844298
0.812345
0.766564
1.16453
0.960195
1.01494
0.9347
1.07689
1.01166
0.981709
1.0082
1.16171
0.919483
0.874572
0.95121
1.04899
0.930533
0.993458
0.914484
0.894851
0.942384
0.883656
0.771032
0.869585
0.90951
0.836868
0.878149
0.877561
0.732122
0.834745
0.807655
0.822612
0.809892
0.835551
0.779005
0.614924
0.703695
0.47323
0.628628
0.652875
0.63617
0.581259
0.55659
0.777477
1.03342
0.5355
0.739833
0.841971
0.841618
0.751735
0.648296
0.307461
0.243929
0.101545
0.276276
0.278735
0.256312
0.223085
0.179056
0.647147
0.666794
0.476527
0.671858
0.692981
0.723601
0.631535
0.651044
0.751905
0.48925
0.664652
0.781828
0.66879
0.616465
0.718837
0.672081
0.713792
0.786806
0.501058
0.471218
0.621178
0.668095
0.554267
0.509856
0.431302
0.606512
0.714873
0.445103
0.488314
0.599439
0.510858
0.624477
0.393533
0.447863
0.693116
0.382371
0.429573
0.506887
0.444213
0.472442
1.7283
1.80702
1.88416
1.91219
1.78134
1.73566
1.99563
1.87247
1.99199
1.9996
2.27557
2.79419
2.69425
2.01372
2.55134
2.25555
2.08865
2.23838
2.2682
2.32764
2.22741
2.1599
2.33945
2.28352
2.1152
1.84728
2.5113
2.63851
2.12422
2.08083
2.62376
2.43464
2.0707
2.06937
2.05486
1.99703
2.3478
2.05052
2.04659
1.9412
1.94576
2.26773
2.02134
1.98981
2.04528
2.36057
1.9312
2.19843
2.2211
2.34766
2.39458
2.49285
2.23523
2.19492
2.38782
2.56435
2.1124
2.37957
2.3639
2.23479
2.26214
2.35895
2.34089
2.38139
1.01753
2.21316
1.42407
1.13571
1.85163
2.02537
1.2619
1.74272
0.620124
2.17902
1.74906
2.65125
1.85142
2.51203
2.41233
2.70656
1.28315
1.75155
1.53473
1.65884
1.25172
1.55658
1.53708
1.6064
0.66566
1.66478
1.71881
1.9582
0.752374
1.2402
1.33064
1.74832
1.28765
1.29792
0.808716
1.22769
1.42885
1.38811
1.2036
1.05479
0.95492
1.69274
1.61395
1.63616
1.4176
1.2277
1.77084
1.6003
1.39403
0.863226
1.90714
1.52111
0.944206
1.05074
1.2016
1.41151
1.43594
1.73541
2.10519
2.01809
1.49957
1.72024
1.92641
1.80855
0.421051
0.545742
0.58718
0.716228
0.447153
0.603144
0.520943
0.548226
0.632192
0.709574
0.677154
0.685534
0.682123
0.7072
0.670186
0.690574
0.552475
0.644954
0.569223
0.544753
0.554007
0.572298
0.53263
0.550236
0.631923
0.666254
0.592242
0.609334
0.644558
0.60856
0.625784
0.584695
0.646797
0.564695
0.669032
0.654384
0.642822
0.613242
0.664491
0.613508
0.693451
0.666234
0.695689
0.624013
0.716821
0.647766
0.590092
0.66567
0.524137
0.583238
0.635504
0.540862
0.576334
0.544373
0.597911
0.60784
0.539948
0.560326
0.657532
0.673024
0.591191
0.576796
0.630788
0.616737
0.0238107
0.206006
0.27628
0.248287
0.162369
0.238001
0.19747
0.285622
0.311041
0.384731
0.2568
0.365822
0.224724
0.114529
0.249102
0.149931
0.378344
0.409866
0.469598
0.494834
0.391062
0.392193
0.440681
0.446292
0.357698
0.507116
0.536323
0.553734
0.435918
0.49368
0.472006
0.539634
0.222798
0.288606
0.293992
0.405705
0.28277
0.340299
0.339933
0.364723
0.284363
0.325878
0.296558
0.291116
0.350259
0.371514
0.375587
0.388435
0.34256
0.347859
0.452411
0.476066
0.388406
0.390776
0.434585
0.488869
0.349057
0.468106
0.386699
0.332909
0.396756
0.432792
0.430214
0.478172
0.94322
0.959662
0.875677
0.949477
0.946789
0.94296
0.935332
0.91998
1.08576
0.504502
0.66786
0.976896
0.848147
0.476358
0.887707
0.551309
0.755746
0.612077
0.612438
0.714309
0.709188
0.652867
0.687255
0.65225
0.949006
0.975602
0.811694
0.965048
0.954276
0.999447
0.926008
0.88585
0.97374
0.851273
0.942817
1.0038
0.923644
0.934085
0.87173
0.940025
0.919444
0.85273
0.596659
0.808433
0.851841
0.718307
0.815441
0.760031
0.821639
0.924273
0.914427
0.789005
0.846581
0.911119
0.81241
0.93415
0.782302
0.728284
0.808537
0.596347
0.763706
0.788466
0.716999
0.76527
0.188741
0.578875
0.728695
0.798553
0.574278
0.636702
0.617403
0.779481
0.551567
0.599074
0.517871
0.683487
0.54577
0.571619
0.608196
0.578979
1.05472
0.5317
1.05599
0.611878
0.705895
0.0439933
0.587944
0.30027
0.890694
0.817957
0.973778
0.977374
0.937971
0.891751
0.979789
0.979336
0.498073
0.793898
0.790393
0.751567
0.645664
0.708172
0.658185
0.819436
0.55266
0.675195
0.482731
0.444959
0.611604
0.609626
0.717694
0.553998
0.643044
0.819163
0.75416
0.955068
0.883784
0.858077
0.941043
0.846626
0.708792
0.672856
0.729751
0.515693
0.638909
0.681411
0.590588
0.676928
1.00315
1.14287
0.924985
0.911597
0.997638
1.06939
0.972726
0.956846
1.21259
1.27741
1.21108
1.0297
1.18821
1.28903
1.09631
1.09529
0.96228
1.14394
1.02341
0.981516
0.969495
1.14707
1.00774
0.98069
0.859932
0.851026
0.836831
0.746298
0.748734
0.788931
0.705399
0.720406
1.0268
0.917322
0.886779
0.967233
1.04672
0.979856
1.00404
0.918055
1.09159
1.01939
1.25652
1.09971
0.996111
1.00969
1.18001
1.01245
0.885398
0.860917
0.890127
0.916226
0.903221
0.898537
0.901985
0.877858
0.850055
0.882619
0.904567
1.0082
1.07612
0.970808
1.06883
0.925014
0.252846
0.368075
0.403452
0.336318
0.296907
0.234294
0.355745
0.328189
0.140625
0.836929
0.894033
0.629567
0.642319
0.643137
0.581997
0.797607
0.773768
0.9874
1.1806
0.9072
0.876118
0.972212
0.945767
1.03261
0.497139
0.621911
0.754745
0.596607
0.594183
0.616308
0.621121
0.665417
0.509303
0.546606
0.402999
0.604963
0.513071
0.494861
0.569786
0.447977
0.52159
0.598996
0.75412
0.619667
0.581508
0.664768
0.64739
0.695559
0.642052
0.453795
0.634479
0.768524
0.636497
0.519715
0.709568
0.683824
0.67955
0.832168
0.711103
0.924649
0.785345
0.760822
0.758386
0.773601
1.8683
1.84308
1.63375
1.67457
1.46083
1.57408
1.61405
1.60765
1.93483
2.13899
1.9473
2.15497