/*--------------------------------*- C++ -*----------------------------------*\
| =========                 |                                                 |
| \\      /  F ield         | OpenFOAM: The Open Source CFD Toolbox           |
|  \\    /   O peration     | Version:  2506                                  |
|   \\  /    A nd           | Website:  www.openfoam.com                      |
|    \\/     M anipulation  |                                                 |
\*---------------------------------------------------------------------------*/
FoamFile
{
    version     2.0;
    format      ascii;
    arch        "LSB;label=32;scalar=64";
    class       volVectorField;
    location    "1200";
    object      U;
}
// * * * * * * * * * * * * * * * * * * * * * * * * * * * * * * * * * * * * * //

dimensions      [0 1 -1 0 0 0 0];

internalField   nonuniform List<vector> 
49664
(
(-1.16847 -8.07048 10.7877)
(-0.919503 -7.69937 8.9714)
(-2.11812 -5.85426 4.61128)
(-2.02916 -5.08412 5.65867)
(-1.20797 -8.17715 10.4349)
(-1.10846 -8.21292 9.78501)
(-3.88645 -7.23302 7.34781)
(-3.48338 -6.94002 7.30642)
(-1.30899 -6.81226 6.80147)
(-1.6467 -5.94719 4.57891)
(-2.65215 -6.96029 4.00168)
(-3.34875 -5.9253 5.74834)
(-1.69705 -7.04558 5.82501)
(-1.96225 -7.80801 6.06777)
(-3.95681 -6.26999 6.12973)
(-3.74727 -7.59957 5.89492)
(0.309198 -1.93775 -2.00554)
(-0.0495793 -2.14521 -3.16924)
(0.0104884 0.166133 -10.6758)
(2.39145 -0.10191 -3.15231)
(3.72389 -2.9481 -1.97561)
(2.78617 -2.10277 -3.0571)
(0.501453 -0.663707 -6.68084)
(0.359237 -0.919365 -9.17376)
(-2.8138 -1.61881 -0.146609)
(-1.70369 -2.36448 2.84517)
(-2.09821 -1.59034 -2.13044)
(1.40639 -1.04007 -1.87873)
(-2.42382 -1.1754 2.20466)
(-1.82114 -0.797995 1.39914)
(0.642356 -0.630863 -0.800819)
(-1.28966 -2.3591 -1.18399)
(-1.04257 -7.73215 8.01237)
(-3.09807 -5.47377 3.57335)
(-1.39345 -4.50846 4.87462)
(-2.93188 -5.26652 4.6149)
(-3.78049 -6.42556 7.69596)
(-3.46543 -6.35635 5.79851)
(-2.99365 -5.24751 5.92697)
(-2.1671 -3.90592 4.18983)
(-0.724952 -7.74541 7.66594)
(-3.37872 -5.49217 5.40231)
(-1.8672 -6.50248 2.95648)
(-3.83276 -5.4654 4.17184)
(-3.79626 -7.36129 6.2838)
(-3.63969 -6.51012 5.68374)
(-2.0878 -6.51285 3.69839)
(-2.64696 -5.96816 3.39026)
(-0.790812 -5.0061 3.18398)
(-3.22027 -2.12494 0.339985)
(-2.31448 -3.79791 4.77386)
(-2.0796 -1.74751 1.18899)
(-0.00969298 -4.07587 1.72841)
(-2.93932 -3.56879 4.4042)
(-0.36348 -2.05586 -0.634469)
(-1.1166 -2.99124 1.9364)
(-4.10677 -6.12061 3.5663)
(1.24562 -0.781005 0.483837)
(-2.13062 -3.80848 3.68487)
(-1.56868 -3.12862 2.26238)
(-1.13575 -5.03047 1.68652)
(-0.993378 -3.99962 0.347423)
(-2.12209 -4.43297 4.13418)
(-1.23264 -3.71824 2.09912)
(-1.91603 -11.0553 11.5134)
(-1.87217 -10.1948 11.5337)
(-2.88448 -3.0948 2.93822)
(-1.48697 -3.58476 2.56761)
(-2.00508 -10.4824 10.9545)
(-2.56515 -10.2834 11.9001)
(-3.29966 -5.99791 7.11295)
(-4.03692 -6.87292 6.45676)
(-1.82785 -9.53835 11.2196)
(-1.58476 -8.40912 12.2858)
(-3.78637 -5.24734 4.15949)
(-0.799958 -2.01019 2.55237)
(-1.53868 -8.81428 12.0222)
(-1.68034 -8.7945 10.618)
(-3.73973 -7.35237 7.54423)
(-3.6266 -7.32729 7.09757)
(1.25241 -0.629202 -3.20692)
(-0.111191 -2.86453 -3.01492)
(-0.0206726 0.026784 -10.619)
(0.666056 -0.228711 -3.6582)
(1.42155 -1.23867 -3.55471)
(1.15465 -1.35574 -2.93181)
(0.294532 -0.814077 -7.14984)
(0.672635 -0.94888 -6.89168)
(-2.14749 -1.15123 1.17364)
(0.191768 -0.448602 2.06339)
(-1.32331 -1.29143 -2.05838)
(0.922581 -0.571226 -2.32064)
(0.42998 -0.666822 1.37019)
(-1.93368 -0.597127 1.25763)
(0.185907 -0.326262 -1.98727)
(0.071525 -0.578536 -2.18161)
(-1.89366 -9.6669 11.2745)
(-3.07664 -3.51873 2.98943)
(-1.43264 -4.30495 2.83546)
(-1.1168 -2.33733 2.56091)
(-2.94437 -6.73572 7.47268)
(-3.87931 -6.63707 6.91777)
(-2.39625 -5.30362 3.17765)
(-1.05243 -1.76965 2.79238)
(-1.94471 -9.64232 11.6445)
(-2.75672 -5.80885 5.0864)
(-2.93735 -5.0418 4.35012)
(-3.32742 -2.74834 3.68188)
(-3.55889 -7.66266 6.94262)
(-3.58054 -7.29646 7.09123)
(-2.48906 -3.73825 3.77844)
(-3.04016 -4.0098 3.31905)
(0.0255488 -2.15903 -1.09986)
(-3.2631 -2.763 1.71128)
(0.593978 4.82799 -1.65267)
(-0.669695 -0.267982 -0.138173)
(-0.569226 -1.63745 -0.665015)
(-1.2542 -1.04784 -0.323601)
(-2.52257 -0.581167 1.04337)
(-2.29892 -0.91248 2.41229)
(2.08542 -0.914074 -1.29462)
(2.00088 -0.466553 -1.47729)
(-2.09752 -2.79771 2.9976)
(-1.39219 -3.34806 0.748803)
(1.57789 -0.928668 -0.149523)
(-0.592347 -2.02542 0.668633)
(-1.62124 -3.29471 1.47237)
(-1.85465 -2.80893 -0.337514)
(-0.235981 -5.04144 5.81649)
(-0.2036 -4.86656 5.92351)
(-0.727787 -4.46833 5.68548)
(-0.994584 -4.82719 6.77081)
(-0.163844 -5.06205 5.72624)
(-0.269424 -4.99942 5.87514)
(-0.421075 -4.81642 6.00866)
(-0.463225 -4.56354 5.99418)
(-0.35128 -4.66771 6.36305)
(-0.581623 -4.13482 6.28347)
(-0.920543 -4.20715 5.90841)
(-1.13927 -4.39681 6.62236)
(-0.413247 -4.52991 6.27126)
(-0.591486 -4.28457 6.41222)
(-0.804927 -4.23254 5.99031)
(-0.702303 -4.24772 5.96129)
(-0.705147 -4.41572 5.24033)
(-1.00812 -4.2479 5.23458)
(-0.989092 -3.9749 4.58533)
(-1.56915 -4.82219 6.48446)
(-0.877463 -4.30274 5.09752)
(-1.03682 -4.4904 5.11594)
(-0.895352 -4.55774 5.30005)
(-0.915068 -4.53753 5.04989)
(-1.33228 -3.93136 6.49284)
(-1.56863 -3.85337 6.13564)
(-1.58319 -3.59391 6.27764)
(0.770525 -1.91445 3.48856)
(-1.37027 -3.75128 6.24343)
(-1.41682 -3.68292 6.10771)
(-0.656816 -2.58403 5.42674)
(-1.14929 -2.72279 5.55583)
(-0.272772 -4.87192 6.09992)
(-0.755459 -4.40287 5.61104)
(-0.985052 -4.80094 6.58737)
(-1.13019 -4.57357 6.5679)
(-0.455538 -4.40486 5.95366)
(-0.456627 -4.47327 5.99891)
(-0.982648 -4.72566 6.60564)
(-1.03933 -4.58834 6.62518)
(-0.426636 -4.58777 5.92487)
(-1.09681 -4.48177 6.62913)
(-0.912484 -4.19044 5.76046)
(-0.831887 -4.4054 5.65897)
(-0.691429 -4.32777 6.04577)
(-0.573025 -4.31477 6.018)
(-0.822858 -4.28167 5.74187)
(-0.843231 -4.31052 5.8106)
(-0.865551 -4.3519 5.82165)
(-0.945503 -4.24563 6.19617)
(-1.16967 -4.24284 6.26466)
(-1.5519 -4.23791 6.22459)
(-1.52218 -4.43348 6.40353)
(-0.983694 -4.15873 6.23518)
(-1.63496 -4.57062 6.09947)
(-1.13911 -4.24416 6.28024)
(-0.850824 -4.38428 5.89037)
(-1.71868 -4.28834 6.06016)
(-1.30581 -4.36254 6.26839)
(-0.86762 -4.24485 5.66655)
(-0.864962 -4.29606 5.58329)
(-1.65039 -4.65663 6.27679)
(-0.848342 -4.24573 5.82984)
(-1.57303 -4.67562 6.30551)
(-0.314032 -5.01779 5.2525)
(-0.620582 -4.46921 5.47255)
(0.0478798 -5.72282 4.82842)
(-0.96161 -4.58942 6.41077)
(-0.496989 -4.87848 5.83352)
(-0.344274 -4.77812 5.41349)
(-0.516513 -5.02313 5.68405)
(-0.2837 -4.84887 5.56535)
(-0.653668 -4.43112 5.0621)
(-0.930888 -4.09197 4.43693)
(0.227259 -4.30488 4.43012)
(-1.4285 -4.96782 6.29965)
(-0.770538 -4.5053 5.31859)
(0.0739161 -3.92783 4.07381)
(-0.939335 -4.52981 5.69057)
(-0.222004 -3.91343 4.5636)
(0.367159 -5.72795 5.15793)
(0.807486 -4.99002 4.97657)
(0.995389 -5.18952 5.31277)
(0.196441 -5.11313 5.25073)
(0.448566 -5.19501 5.24614)
(0.898646 -4.93891 5.05217)
(0.210552 -5.40497 5.281)
(0.801184 -5.16903 5.03288)
(-1.21842 -3.70283 6.34672)
(-1.12021 -3.47138 6.45664)
(-1.37917 -4.23405 6.22205)
(0.899062 -1.95168 3.74581)
(-1.03202 -3.13365 5.55673)
(-1.29606 -3.77223 6.27651)
(-0.45574 -3.25272 5.93826)
(-1.01011 -3.89748 6.29868)
(-0.828815 -4.4246 5.7343)
(-0.0537101 -4.87366 5.37664)
(-0.92616 -4.4655 6.28302)
(-1.60765 -4.21622 6.09606)
(-1.03317 -4.39651 5.98124)
(-0.516185 -4.30826 6.0192)
(-1.47637 -4.43812 6.02035)
(-0.729883 -4.67824 6.21111)
(-0.258514 -4.35974 5.03188)
(-1.21823 -4.51156 5.62549)
(0.654969 -4.5261 4.65914)
(-0.0028606 -4.78536 5.40695)
(-0.409336 -4.37772 5.31772)
(-0.928576 -4.38725 5.40332)
(0.35558 -4.5977 5.09478)
(0.0465432 -4.45615 5.23397)
(-0.187146 -5.27995 5.27133)
(-0.97236 -4.22851 6.37943)
(-1.7218 -4.23327 6.48562)
(-1.01507 -4.76694 6.22906)
(0.0378505 -4.83229 5.40521)
(-0.688733 -4.66232 6.01894)
(-0.653403 -4.78213 5.9246)
(-1.6165 -4.57237 6.81869)
(-0.0271275 -4.91854 5.20282)
(-0.464125 -4.80578 5.51991)
(-1.35151 -4.51997 6.04167)
(0.554511 -4.66598 4.9121)
(-0.0221237 -4.46547 5.38024)
(-0.515034 -4.49061 5.21632)
(-0.355019 -4.46904 5.38842)
(-1.0827 -4.37309 5.61319)
(-0.798447 -1.86369 8.79337)
(-1.47645 -2.50131 8.17588)
(-1.93524 -1.81536 9.98464)
(-3.44712 -4.4234 9.42189)
(-2.07923 -2.15674 9.18194)
(-0.905206 -1.72833 8.3788)
(-2.72513 -3.07183 10.4741)
(-2.82262 -2.12655 9.87283)
(-1.7313 -2.6204 7.81211)
(-2.76706 -3.38656 8.40794)
(-2.33257 -2.94827 8.84176)
(-2.84413 -4.50872 8.68458)
(-2.39919 -2.58583 8.63409)
(-1.99366 -2.47775 8.09033)
(-2.20639 -2.77241 9.17696)
(-2.4744 -2.43578 8.84495)
(-3.42707 -1.53814 9.61856)
(-3.63592 -2.59024 9.50012)
(-4.33312 -1.85578 9.50749)
(-4.49613 -5.71008 8.16816)
(-4.25428 -2.39603 9.61279)
(-3.59783 -2.01475 9.48418)
(-4.44713 -2.67769 9.82453)
(-4.68109 -2.0774 9.81923)
(-4.28278 -7.46287 7.79216)
(-5.84537 -9.46127 5.80619)
(-3.52348 -6.01211 4.94384)
(0.272172 -1.40374 -0.385383)
(-4.40239 -6.9804 5.37682)
(-4.09287 -8.26885 8.27849)
(-4.41493 -4.018 2.76513)
(-3.04748 -5.76928 3.75327)
(-2.03781 -2.41731 8.68767)
(-3.29305 -2.42186 9.76642)
(-3.9004 -5.31643 9.34872)
(-3.96467 -5.28737 9.27149)
(-3.00076 -2.88266 9.78832)
(-3.19727 -3.20267 9.57675)
(-3.73744 -4.83776 9.22969)
(-3.59847 -4.34119 9.28736)
(-1.29286 -2.32934 7.93013)
(-3.13312 -4.11564 8.76723)
(-2.3713 -2.64808 8.95368)
(-2.35346 -2.20691 9.67382)
(-2.80638 -2.6154 9.12154)
(-2.62467 -2.77986 8.95746)
(-2.51772 -2.63773 9.54175)
(-2.97875 -2.66357 9.27711)
(-3.45198 -2.55367 9.95423)
(-4.15001 -5.99033 9.85937)
(-5.07791 -7.24556 10.0341)
(-5.02001 -6.77171 8.31627)
(-2.98285 -3.04324 8.41181)
(-4.08019 -5.69232 9.56958)
(-4.33968 -5.36698 9.08422)
(-5.08155 -7.81972 10.57)
(-3.86279 -2.13282 9.69946)
(-4.89803 -5.74087 7.99385)
(-4.71463 -6.56731 9.34034)
(-3.51714 -2.45846 9.47502)
(-3.92655 -3.02857 9.61522)
(-3.76687 -4.59435 9.26478)
(-3.58929 -2.82254 9.97763)
(-4.59053 -5.41748 9.42774)
(-2.08784 -1.94955 9.88347)
(-2.77449 -1.95722 9.85083)
(-4.27755 -2.5988 9.92122)
(-3.41261 -5.13345 9.93342)
(-2.52972 -1.89036 10.6353)
(-2.80517 -1.68502 10.5632)
(-3.17512 -3.2204 10.4266)
(-3.09828 -2.50463 9.92526)
(-3.9388 -2.03387 10.0357)
(-5.58781 -1.37391 10.1633)
(-7.20234 -1.1196 9.99825)
(-6.32001 -4.01045 8.91002)
(-4.36337 -2.12964 9.94806)
(-5.27933 -0.715945 10.3326)
(-6.0395 -1.87828 9.86509)
(-6.75452 -1.79493 9.8036)
(-7.46688 -2.60213 9.42063)
(-8.88856 -1.53265 9.5631)
(-11.3505 -1.19527 8.16365)
(-5.74292 -4.85915 4.26345)
(-8.18391 -2.41305 9.68353)
(-8.99874 -1.10477 9.37541)
(-9.72074 -4.57419 7.21905)
(-11.0528 -3.57527 8.99937)
(-3.63224 -4.74493 4.64079)
(-3.97373 -3.86919 2.61094)
(-4.15066 -5.4184 1.23365)
(1.2796 2.17497 0.0808102)
(-3.37492 -2.79622 2.71673)
(-3.51385 -4.12006 3.0528)
(-2.51805 -2.94669 1.21431)
(-3.12478 -4.93876 1.7278)
(-3.92013 -1.88823 9.89618)
(-4.83859 -2.69755 10.332)
(-3.63222 -5.66191 10.1915)
(-5.05716 -5.60445 8.36769)
(-4.401 -2.22332 10.4861)
(-4.38373 -3.37421 9.2742)
(-4.42307 -5.05285 8.62959)
(-4.01035 -4.45444 8.18045)
(-3.85093 -1.59735 9.96865)
(-5.58069 -3.11084 8.56699)
(-6.87912 -0.633136 10.0829)
(-5.43471 -2.12133 10.3471)
(-4.82953 -2.65492 10.2925)
(-5.68305 -3.15196 9.59048)
(-5.0385 -2.44874 10.0688)
(-6.39895 -1.84941 9.54098)
(-5.23335 -3.99683 9.07937)
(-3.94429 -5.35337 8.3961)
(-5.08439 -4.91778 8.38936)
(-4.02168 -5.67663 5.74245)
(-4.38558 -4.53721 7.03667)
(-4.77569 -4.339 7.71169)
(-4.4061 -4.75909 7.73295)
(-4.97801 -4.30838 6.84375)
(-5.52652 -3.10313 9.81346)
(-4.57088 -5.18346 5.28062)
(-5.76956 -3.73666 7.54488)
(-8.54203 -2.15912 9.23558)
(-7.31984 -3.67503 8.30711)
(-4.83234 -3.78325 6.24809)
(-8.17752 -1.94975 10.1008)
(-5.66844 -4.33565 7.08759)
(-1.19222 -0.274332 -25.3276)
(-1.21745 -0.705486 -8.03839)
(0.13562 -0.887587 -12.9171)
(-1.17515 -2.03295 -23.3882)
(-0.218924 -1.34675 -16.583)
(-1.15979 -0.0683562 -8.85636)
(0.149744 -1.14587 -21.5305)
(-0.608248 -0.982533 -10.8854)
(-1.25915 -0.831602 -3.25913)
(0.925602 0.208747 -1.44245)
(-1.2976 -2.62528 -0.383919)
(-0.95069 -0.600954 -2.70228)
(-0.686217 -0.327044 -2.8811)
(0.0302655 0.647181 -1.74678)
(-1.228 -1.67185 -3.31066)
(-0.296752 -1.51185 -1.70542)
(-1.71044 -1.57198 -3.52604)
(-3.73837 -3.28308 1.77389)
(-4.0951 -4.42711 2.64485)
(-0.532463 -0.631704 -3.20739)
(-1.64585 -2.59446 -3.14954)
(-4.81443 -4.32924 1.72877)
(-1.31689 -1.35002 -3.1845)
(-4.55479 -3.24682 1.09128)
(-0.380676 -1.61217 -9.72299)
(-0.67731 0.0606598 -2.98637)
(-0.748217 -1.21341 -4.82719)
(-0.181965 -2.92569 -4.64501)
(-0.226894 -0.371988 -5.91702)
(-1.07467 0.0180678 -3.89277)
(-0.501142 -0.986987 -7.3046)
(-0.85771 -1.44743 -4.47626)
(-1.09654 -0.901245 -4.27357)
(-1.30555 -1.08277 -6.77723)
(0.48533 -0.405253 -9.83221)
(-1.48747 -0.0820462 -2.67144)
(-0.341941 -0.249868 -5.37761)
(-0.650122 -1.4237 -5.64403)
(-1.57519 -0.002316 -5.67343)
(-1.47704 0.550998 -7.56732)
(-2.25713 -1.38517 -2.8689)
(-1.83449 -0.804904 -3.43282)
(-3.44246 -3.30793 0.604517)
(-3.6692 -2.50234 -3.85052)
(-2.82246 -2.47856 -4.18947)
(-2.19191 -2.08994 -3.62421)
(-3.0434 -3.00111 -3.52443)
(-1.76866 -1.94589 -2.90797)
(0.296275 -0.36754 -8.05196)
(-0.208663 -1.02078 -13.909)
(-0.705752 -0.0958481 -2.45317)
(-0.835756 -1.23712 -5.30501)
(-0.815047 -0.866621 -9.84366)
(-1.19791 -1.17266 -8.12632)
(-0.586532 -0.27885 -3.49056)
(-0.422772 -0.0341934 -2.38577)
(-1.89503 -1.31609 -3.33076)
(-0.614616 -1.25018 -2.74002)
(-0.888186 -1.59014 -2.38491)
(-2.00787 -2.82085 -0.167453)
(-1.7255 -2.33413 -2.50668)
(-1.34232 -1.6265 -2.71568)
(-1.52882 -1.6278 -2.66466)
(-0.788091 -1.89957 -2.45436)
(-2.63673 2.18474 -5.3992)
(-2.92273 -2.6511 0.564187)
(-1.73789 3.33034 0.15754)
(-3.24907 -1.51547 5.20128)
(-1.98468 1.74651 -2.54973)
(-2.1851 2.14774 -2.39131)
(-2.14996 0.458485 6.32997)
(-1.96391 1.22987 -0.946937)
(-2.69334 -4.19233 4.96923)
(-1.74617 -4.3495 4.74897)
(-1.98466 -3.2673 5.65471)
(-2.55557 -5.13251 6.07047)
(-2.1031 -4.09671 5.36812)
(-2.09302 -3.85043 5.00308)
(-2.52527 -4.37137 5.72732)
(-2.03862 -3.99165 5.32593)
(-2.56489 2.65567 3.68683)
(-1.69531 -0.792648 6.1504)
(1.91759 1.90522 2.39766)
(-1.25924 2.28715 5.64563)
(-1.70913 1.62881 3.83957)
(-1.78247 0.263292 4.43943)
(-0.595377 1.69383 4.90465)
(-1.45792 0.525649 4.76377)
(-4.67609 -3.91545 6.34525)
(-3.86916 -5.48913 7.15648)
(-3.47548 -1.58068 5.26231)
(-4.97061 -7.81008 8.52223)
(-5.23616 -5.00164 6.70053)
(-4.61338 -3.61159 6.77606)
(-5.81982 -5.70578 7.72206)
(-4.49178 -3.52854 6.73004)
(-4.16237 -3.6124 3.86308)
(-4.45041 2.15869 3.33751)
(-4.21452 -2.2518 5.23825)
(-3.77868 -4.12619 6.53157)
(-4.04526 -2.78282 4.92622)
(-3.97724 -2.05186 4.94872)
(-3.6451 -3.56134 6.25178)
(-3.93205 -1.77082 5.61859)
(-4.061 -2.95929 3.77087)
(-3.24855 -3.74622 6.25699)
(-2.73941 -2.14076 5.40434)
(-3.07455 1.13786 3.57966)
(-3.49867 -2.68848 5.06772)
(-2.93127 -3.17782 6.01082)
(-3.02612 -0.2541 3.6539)
(-2.46922 -2.00406 5.40181)
(-2.38086 2.53459 3.8799)
(-5.11716 -2.773 5.49957)
(-3.76033 -4.17139 6.61778)
(-3.5016 -0.163582 6.59103)
(-3.56915 0.37443 5.37278)
(-4.5487 -1.74151 5.48985)
(-3.4942 -0.562331 5.51297)
(-4.68606 -2.85327 6.00115)
(-3.17963 0.979339 4.38683)
(-2.95002 -0.25476 6.03325)
(-3.22446 -3.60925 6.30625)
(-2.47766 -2.1261 6.38969)
(-3.14873 0.105421 5.21895)
(-3.29681 -0.166647 5.51053)
(-2.10032 -1.40638 5.84146)
(-2.53705 -2.32624 6.73543)
(0.188985 -0.0295312 5.28681)
(-0.21236 -0.568888 4.84715)
(0.0313074 -0.192022 5.92907)
(-0.0643685 -0.0235778 6.52153)
(0.109082 -0.0775262 5.15349)
(0.00871757 -0.0538779 5.11087)
(-0.212288 -0.39127 5.20386)
(0.0228348 -0.218994 5.265)
(-0.492288 -0.775953 4.88771)
(0.0216408 -0.932658 5.36624)
(0.213604 0.0182968 4.15743)
(1.32605 -2.29 4.1319)
(0.253146 -0.534941 4.83916)
(0.220177 -0.779294 5.49564)
(-0.183148 -0.13153 3.86097)
(0.213078 -0.371025 4.01481)
(-0.929538 -0.0201115 4.68471)
(-0.987266 -1.2965 6.42264)
(-0.99862 -0.442358 5.06636)
(-0.522241 -1.12352 6.03441)
(-0.932892 -0.529983 5.44842)
(-0.911371 -0.596347 5.39618)
(-0.906227 -0.594762 5.33778)
(-0.873262 -0.543926 5.4374)
(-3.05497 2.06102 24.7561)
(-1.73443 -1.38025 8.29511)
(2.72483 -1.44112 8.36682)
(-2.08646 -9.2601 4.85501)
(0.134568 -3.22546 12.6464)
(-0.183926 -0.25279 15.6833)
(3.32526 -5.99924 7.86403)
(4.03636 -1.18481 10.3108)
(0.119611 -0.152477 4.84287)
(-0.0226712 -0.400844 5.54059)
(0.577387 -0.539658 4.55943)
(0.403322 -1.91334 4.28355)
(0.165391 -0.555011 4.08147)
(-0.280021 -0.397004 4.6329)
(1.10386 -1.06474 3.39025)
(-0.600524 -1.68428 1.86935)
(-0.183721 -0.770235 5.15381)
(-1.5609 -4.51597 0.954231)
(-0.1029 0.467862 4.44247)
(-0.0569672 -0.273866 5.53553)
(0.116846 0.0481405 4.53803)
(-0.639135 -1.53119 2.52769)
(0.507137 0.230602 6.53488)
(-0.0420713 -0.477796 4.91957)
(-0.811225 -0.314054 5.35457)
(-1.87222 0.968856 12.3626)
(-0.809592 -0.482899 10.7269)
(-0.320277 -1.49334 6.25021)
(-2.16895 0.422706 3.63043)
(-1.07486 0.0830486 6.95494)
(-1.48238 -0.686364 8.16178)
(-1.65873 0.0600668 12.9071)
(-0.756301 -0.723305 4.99161)
(0.297994 -0.515911 7.29492)
(-1.72604 -1.57008 8.49743)
(-1.18394 -1.5453 6.24252)
(-0.894463 -0.617771 6.23046)
(-0.952337 0.18548 8.1448)
(-0.966019 -2.08186 6.42929)
(-1.97262 -0.839612 8.13537)
(0.534099 -1.89304 4.7328)
(0.0933074 -1.62714 4.79866)
(0.396791 -0.909065 4.266)
(0.17212 -2.11798 3.48016)
(0.248673 -2.40932 4.39258)
(0.381848 -1.57264 5.05707)
(0.593535 -1.70954 4.07139)
(0.567249 -1.32128 4.60616)
(-0.024757 -1.16419 4.83025)
(-0.0118848 -0.882248 4.77684)
(0.2104 -0.32745 4.80723)
(0.377287 -2.1227 4.80512)
(0.0829061 -0.930783 4.87458)
(0.204252 -0.679351 5.15646)
(0.520385 -0.250734 5.30334)
(0.561993 -0.381877 4.95625)
(0.208272 -0.268877 4.46013)
(0.0550911 -0.116484 4.8187)
(0.233242 -0.00257163 5.42757)
(0.58166 1.46462 3.20223)
(0.126387 -0.235289 4.54622)
(0.0596766 -0.185931 4.60988)
(0.0160285 -0.384465 4.46654)
(0.0843373 -0.0284997 4.85657)
(2.16485 -3.92984 5.55612)
(1.50998 -2.43929 -2.09349)
(9.6489 -0.876349 -1.37124)
(1.98368 -4.48795 5.18261)
(0.85475 -4.153 3.40327)
(5.34536 -5.88628 7.88566)
(5.77812 -5.23485 9.8319)
(4.87129 -8.08862 -0.444383)
(0.164998 -1.59261 4.82097)
(0.503015 -0.883061 4.3001)
(0.659279 -2.16926 4.48588)
(-0.290505 -2.59275 4.17944)
(0.55326 -0.800556 4.99191)
(0.400296 -1.12689 4.25029)
(0.371805 -1.81297 4.25494)
(-0.255651 -2.4605 3.47541)
(0.205495 -1.01016 5.02334)
(-0.278606 -2.92007 3.55344)
(0.125605 -0.441656 4.71603)
(0.447879 -0.474004 4.42702)
(0.574339 -0.628015 4.70444)
(0.455865 -0.617858 4.54788)
(0.294347 -0.581132 4.5395)
(0.461012 -0.4518 4.68487)
(0.68679 -0.759054 4.46848)
(0.683215 -2.09862 4.44533)
(0.366236 -3.69219 2.49125)
(1.74863 -5.11398 2.26278)
(1.07688 -1.71953 5.16268)
(0.61061 -1.9226 3.36244)
(2.02258 -3.01117 5.1942)
(0.86867 -2.20266 4.90293)
(0.509452 -0.423779 4.73504)
(0.456152 -1.32089 2.5918)
(0.0209383 -2.95596 5.07229)
(0.473792 -0.145834 4.7988)
(0.357522 -0.461918 4.5888)
(1.00104 -2.59508 3.61804)
(0.599924 -0.0913256 5.1488)
(1.53758 -1.67421 5.07025)
(-6.15303 -11.0949 -9.3964)
(-3.40283 -2.1988 -6.66268)
(1.26016 2.71787 -2.50258)
(-0.411736 0.212616 -3.70579)
(-7.58578 -10.4531 -9.79759)
(-1.99664 0.159795 -6.73185)
(1.74859 -3.28856 -3.41791)
(3.26464 0.428082 -3.62685)
(-0.321891 1.02293 -3.05115)
(-0.0489783 0.547567 -3.37914)
(0.121524 -0.127538 -4.24363)
(0.268961 0.863544 -4.05252)
(-0.549165 0.669172 -3.52422)
(-0.513514 1.22425 -3.38426)
(0.128717 0.555265 -3.80852)
(0.189066 0.826375 -4.26526)
(1.29987 1.35041 -4.31175)
(0.994871 0.226728 -3.6652)
(2.18462 2.47011 -3.68001)
(2.5519 1.5272 -4.90296)
(1.72575 1.2956 -4.51574)
(1.13571 1.09341 -3.59619)
(2.23638 1.7677 -4.75308)
(1.99761 2.23507 -3.82358)
(1.22094 0.0557089 -3.65997)
(0.0393437 0.0885895 -3.46007)
(2.31035 1.2212 -5.30979)
(1.39261 -0.499407 -3.05437)
(1.5841 0.197173 -3.20475)
(1.30922 1.7774 -4.03852)
(1.3478 -0.152791 -3.49705)
(1.69241 1.86676 -4.27966)
(-3.13862 -0.417897 -3.9182)
(0.888194 0.235807 -4.54026)
(1.77608 1.52395 -3.67189)
(0.652715 1.2001 -3.24567)
(-0.439157 -1.09661 -4.29983)
(1.78023 -0.630313 -5.36339)
(0.15495 1.19544 -4.21568)
(1.01193 1.21219 -4.27684)
(-0.747487 0.826837 -1.42317)
(0.928069 1.02821 -3.68907)
(0.597325 0.0418667 -4.13325)
(0.319092 -0.0142688 -3.79543)
(1.03262 0.0994832 -2.54529)
(0.495424 0.927854 -3.35768)
(-0.269177 0.647808 -3.42596)
(0.0384751 0.231082 -3.9873)
(1.53575 1.28964 -4.10955)
(0.960373 0.35709 -4.56755)
(0.107592 0.474111 -3.94218)
(2.42134 1.76299 -4.43757)
(1.15994 1.80946 -4.22276)
(1.44841 1.94856 -4.40464)
(1.52462 1.45783 -4.20278)
(0.795961 1.67324 -4.32771)
(1.23817 0.983337 -4.46434)
(2.79312 1.63378 -4.23001)
(-0.127877 0.458391 -3.67284)
(1.0085 -0.303184 -4.07942)
(0.955248 0.975702 -3.95547)
(1.18927 1.09033 -3.47092)
(0.788261 0.320123 -3.77519)
(0.607052 0.122188 -2.83403)
(-3.11484 -6.65801 9.80004)
(-0.445131 -5.09506 7.63948)
(-1.67934 -6.89186 8.55861)
(-1.20525 -7.52633 7.16541)
(-2.94054 -6.75581 9.85672)
(-3.39465 -6.25454 10.1179)
(-1.70511 -7.25554 8.25253)
(-2.44187 -6.78263 9.12756)
(-2.20868 -8.96196 4.27201)
(0.107493 2.6182 -1.03446)
(-4.96323 -4.8615 1.40869)
(0.27222 -0.53839 -2.1592)
(-2.32211 -6.18033 3.69789)
(-3.14458 -4.32775 2.8949)
(-2.35797 -6.46752 2.84104)
(-2.15575 -4.23996 2.2253)
(-1.04519 -5.92088 8.4508)
(-1.24183 -5.36152 5.86466)
(-1.45246 -4.96872 8.42128)
(-0.417826 -3.86875 6.23354)
(-1.19378 -5.94034 8.48519)
(-0.571337 -4.90498 8.23573)
(-0.991574 -5.90567 8.26887)
(-0.995901 -5.24342 8.13188)
(1.53978 -5.62602 2.85617)
(2.04084 -0.84291 0.595871)
(1.31719 -1.43842 3.39664)
(1.28203 -0.433283 -1.64428)
(2.81343 -2.85963 2.79421)
(2.77723 -2.20238 2.75553)
(1.84533 -3.00952 3.30663)
(2.37351 -1.91867 2.75791)
(-1.74968 -5.98731 5.1205)
(-1.95829 -6.37441 9.12282)
(-0.356445 -5.52306 6.30172)
(0.884934 -2.63185 0.810572)
(0.431723 -6.29104 5.27287)
(-2.00227 -6.45488 9.18861)
(2.53718 -3.73206 1.84428)
(0.0776194 -4.96611 6.86801)
(-2.84783 -5.65073 6.09138)
(0.812012 -2.82161 0.856002)
(-4.23484 -5.72025 3.68775)
(-1.35812 -6.12837 9.10381)
(-1.71494 -6.66534 5.35061)
(-1.56724 -7.11047 2.93411)
(-0.847901 -5.7705 7.25878)
(-1.52405 -6.50264 5.73455)
(-1.42049 -6.13231 8.52603)
(-0.0769688 -5.80179 5.59484)
(1.00696 -3.23425 1.20239)
(-0.181616 -4.71043 6.31107)
(-0.285482 -5.47269 7.09852)
(-0.357006 -5.26492 6.15988)
(-0.226895 -4.94859 6.10101)
(0.910352 -4.26729 4.47524)
(-1.31531 -6.11422 8.73064)
(0.159129 -4.06057 6.00001)
(-0.804327 -2.38879 1.16056)
(-1.11615 -5.86358 5.88795)
(-0.64843 -5.6765 8.55382)
(0.862739 -4.05057 5.36967)
(1.49282 -5.54619 7.00032)
(-1.02655 -3.10861 1.93369)
(5.41045 0.205806 12.3114)
(2.55808 -2.37868 13.8037)
(4.49996 0.0671166 11.5343)
(1.58091 6.41793 -4.19782)
(3.75062 -2.88386 11.7301)
(5.90775 -2.40147 13.3374)
(4.94654 -1.16937 10.6093)
(4.61722 -1.75708 11.8696)
(1.27183 -5.19252 14.3253)
(0.0136427 -6.02657 16.3612)
(3.72776 -5.02266 11.7602)
(-2.54061 -6.42061 6.25098)
(-0.340158 -6.92834 14.1152)
(0.600271 -6.35447 17.0461)
(0.400708 -7.65537 8.3395)
(0.538333 -7.41881 11.067)
(0.98189 3.20893 7.49484)
(1.68598 -1.4424 3.73176)
(0.431118 -1.48586 -0.760668)
(-0.383702 4.67622 -18.7652)
(0.634196 0.0195176 2.36097)
(1.96033 1.54202 6.91905)
(-2.00519 -0.831093 -6.83701)
(1.13222 0.804596 -4.19791)
(-0.871614 1.98447 -23.5743)
(-6.71714 -5.10343 -12.1988)
(-3.03734 1.37856 -38.1072)
(-1.22373 -3.72853 -41.5878)
(-0.087819 -1.57573 -28.1701)
(-6.43572 1.9988 -11.3314)
(-0.566325 -2.23987 -48.6439)
(-0.183827 -2.22482 -37.7519)
(0.522237 -5.70343 13.3159)
(4.84693 -0.638207 10.7119)
(3.9946 -0.144836 -9.10692)
(2.53005 -7.21242 -3.78696)
(6.50553 -1.61586 7.27885)
(5.51473 -1.8056 10.7458)
(4.55402 1.18227 -5.79193)
(2.09163 5.49048 -2.32872)
(0.356195 -8.26366 16.6518)
(1.21045 -3.32125 -6.5286)
(6.72859 -1.68124 13.5673)
(5.42692 0.381341 12.4503)
(2.68305 -5.28405 11.8268)
(2.21097 -7.57235 8.64086)
(7.34613 -1.03632 13.1654)
(3.18674 -3.84008 10.6678)
(-0.470119 -1.16248 3.69072)
(-3.35211 -0.259771 -20.093)
(-8.17403 -8.05962 -5.22581)
(-0.263186 2.85518 -37.2202)
(0.585162 1.24555 -12.095)
(0.320097 -0.769588 -16.123)
(1.08508 1.79228 -20.8312)
(-3.61113 -0.203497 -19.4589)
(1.89053 -0.934841 5.35404)
(-0.158906 1.37793 -31.0676)
(-3.10911 -2.9144 -11.6007)
(-0.160963 -5.81049 3.60747)
(-2.4223 -4.89721 1.78407)
(-4.18557 0.518889 -4.10253)
(-0.203202 -10.7088 0.369259)
(-6.73566 -4.68448 -7.58871)
(-1.34044 4.85338 19.9783)
(-2.3151 -3.85145 17.5607)
(-4.34002 -2.55265 14.9047)
(-6.80129 -11.6661 10.5196)
(-1.19125 -3.75696 19.2118)
(-4.57701 -6.02918 20.9538)
(-4.07815 -15.9977 20.4209)
(-6.86438 -8.99872 16.0021)
(-1.56191 -5.40571 16.3638)
(-1.84378 -4.77046 15.1048)
(-1.79687 -4.68208 15.4371)
(-4.8022 -6.42539 7.72257)
(-2.07121 -6.67593 15.0033)
(-1.15696 -6.20799 17.7629)
(-1.41311 -8.27272 16.6807)
(-2.34117 -7.51364 15.7197)
(-2.17263 -4.10001 16.2783)
(-3.31408 -5.42305 15.3665)
(3.52917 -3.7499 21.077)
(-7.3946 -11.6288 1.30652)
(-4.73197 -8.54444 12.133)
(-1.07757 -7.08968 14.9469)
(-3.82005 -16.5871 9.05174)
(0.298771 -8.66196 16.3948)
(-3.23502 -5.62649 -6.89438)
(-4.39653 -4.63212 -13.933)
(-1.97237 -1.68965 -25.7218)
(-0.759073 -0.683749 -24.0447)
(-5.4506 -6.18323 -12.1075)
(-7.06808 -6.74947 -9.00743)
(-2.85996 -4.03973 -19.8547)
(-2.96313 -3.25743 -24.3963)
(-2.64235 -6.08207 18.6074)
(-3.24882 -8.79424 10.9879)
(4.20443 3.6834 -1.26096)
(4.39013 1.37574 -5.21745)
(-2.94847 -11.8568 18.494)
(-2.18871 -9.37686 11.2705)
(-1.36638 -6.79851 9.35977)
(-0.925231 1.25603 -7.04775)
(-3.24069 -7.2954 17.2648)
(-2.73487 -6.36312 -4.53147)
(-0.909572 -7.66821 14.8828)
(-2.31279 -8.69566 13.4799)
(-4.29707 -9.61977 14.8733)
(-1.64792 -7.9623 13.1246)
(-1.84765 -4.47956 14.4214)
(-1.36388 -6.17642 13.9789)
(-0.698362 -14.791 11.008)
(-3.65855 -5.84219 3.27865)
(-0.575831 -9.92354 -3.11696)
(-2.50096 -8.81422 -9.10169)
(-8.03242 -12.3704 -3.3497)
(-4.78563 -12.7006 2.86894)
(-7.38581 -6.37842 -9.22968)
(-6.80565 -6.61654 -3.27875)
(-1.23927 -8.44384 12.8627)
(0.856672 -5.95085 -7.82628)
(-1.70822 -9.75386 4.52369)
(-2.04081 -9.19119 14.3512)
(-2.49125 -9.5112 11.322)
(-2.16351 -8.93758 -1.94069)
(-0.824963 -9.10008 13.4306)
(-9.79486 -3.67441 0.768889)
(-0.501007 -4.76671 11.0618)
(-0.678999 -5.02032 10.7615)
(-0.974591 -6.13329 8.37138)
(-1.35093 -4.89556 7.35645)
(-1.05652 -5.16211 10.7806)
(-0.710274 -4.73413 10.7253)
(-1.41189 -5.41596 8.26672)
(-1.28625 -5.25332 8.18438)
(-0.640396 -5.3287 9.95544)
(-0.766759 -5.64072 8.76235)
(-1.36495 -5.80783 6.80767)
(-0.123614 -4.56852 6.60098)
(-0.824946 -5.45674 9.2096)
(-0.511543 -5.24388 9.50892)
(-1.51596 -5.23262 7.86916)
(-1.5202 -5.24331 7.33773)
(-1.51789 -6.0492 3.10299)
(-1.63767 -4.77128 3.4313)
(-0.659595 4.15542 -1.68012)
(1.48815 2.45316 -2.71525)
(-2.21909 -4.65137 3.24822)
(-2.56185 -5.60776 3.17974)
(-0.734364 1.25148 0.425176)
(-1.89801 -3.12683 1.40962)
(0.0551061 -3.61802 4.19202)
(1.79706 -2.48625 3.0675)
(1.81023 1.88129 -1.35185)
(1.76932 -0.079761 -2.06067)
(0.858129 -2.76681 3.48459)
(0.826518 -3.27211 3.98862)
(1.53131 -0.739105 1.43066)
(1.84034 -1.85264 1.61252)
(-0.646882 -5.2682 10.2247)
(-1.19395 -5.70772 7.8192)
(-1.04732 -4.80613 6.96039)
(-0.890602 -4.91818 6.76708)
(-1.48027 -5.16251 7.9305)
(-1.45122 -5.1383 7.91391)
(-0.889664 -4.84283 6.72766)
(-1.22201 -4.96283 7.28235)
(-0.690248 -5.0659 10.1838)
(-0.758784 -4.96581 6.75504)
(-1.56869 -5.89214 6.92677)
(-1.10445 -5.86907 7.89102)
(-1.23236 -5.3587 7.51633)
(-1.57015 -5.19797 7.5667)
(-0.958104 -5.90987 7.3762)
(-1.61712 -5.88681 6.55926)
(-1.83412 -5.12924 4.76472)
(-0.740855 -4.58002 5.04752)
(-0.529893 -3.53561 5.18791)
(-0.080328 2.46241 -1.05246)
(-1.00099 -5.58665 3.59289)
(-0.665027 -4.48497 4.98994)
(-1.24383 -5.42032 3.82433)
(-0.43629 -3.92227 5.35094)
(-1.51638 -5.17285 4.60288)
(-1.31383 1.14118 -1.49566)
(-0.0557029 -3.88027 5.14633)
(-1.78273 -4.80455 5.25168)
(-1.75627 -5.02208 4.92382)
(-2.13057 -5.69644 3.45153)
(-1.95312 -5.1161 5.00472)
(-0.0979199 -4.79643 3.60409)
(-0.18012 -1.29591 4.29162)
(-0.343219 -0.56297 5.00208)
(-0.168829 -0.531992 5.26169)
(-1.37905 -1.39158 4.3254)
(-0.489705 -0.789688 4.91303)
(-0.3296 -0.646293 4.98334)
(-0.453155 -0.771126 5.12085)
(-0.26728 -0.618686 5.0673)
(-0.000791227 -0.286652 5.36717)
(0.147477 -0.100495 4.87716)
(0.673209 0.00874989 5.30865)
(-0.230902 -0.597574 4.64484)
(-0.169669 -0.528693 5.53389)
(0.265231 -0.184793 5.26083)
(0.180094 -0.50694 5.36756)
(0.578989 -0.163853 5.03322)
(0.436516 -0.337898 5.6677)
(1.24987 -0.302202 5.50236)
(2.01183 -0.669751 6.6793)
(0.727579 -0.994761 5.84509)
(0.454251 -0.399195 5.61581)
(1.0955 -0.0983095 5.93724)
(0.775575 -0.664337 6.09953)
(1.58268 -0.808836 6.08456)
(-1.94823 -1.8379 4.46684)
(-1.08875 -1.34551 4.40097)
(-1.02515 -0.849595 4.95672)
(-2.4811 -1.26972 4.99394)
(-2.12656 -1.71481 4.78184)
(-1.04946 -1.55715 4.51481)
(-1.857 -1.4239 4.96998)
(-1.09953 -1.34116 4.8499)
(-0.323823 -0.427456 4.8921)
(-0.0866502 -0.552756 5.40193)
(-1.41584 -1.31305 4.5287)
(-0.965207 -1.06968 4.66698)
(-0.0733336 -0.409256 5.28514)
(-0.268315 -0.568063 5.13952)
(-0.638278 -1.04818 4.62604)
(-0.784177 -1.06798 4.49011)
(0.0361869 -0.314918 5.19093)
(-0.27643 -0.543765 4.78906)
(0.704093 -0.0868523 5.27419)
(0.203826 -0.343824 5.45156)
(-0.113233 -0.323615 5.44723)
(-0.122334 -0.289346 5.44198)
(0.0774966 -0.284458 5.38635)
(0.291863 -0.196695 5.26333)
(0.0283934 -0.548567 5.575)
(-1.24312 -1.01315 4.71059)
(-0.793784 -0.997227 4.95996)
(-0.469571 -1.01276 5.42145)
(-0.694513 -1.02125 4.89271)
(-0.800228 -0.891338 4.7517)
(-0.770852 -1.14662 5.02234)
(-0.900289 -1.04336 5.03017)
(0.224769 -0.291388 5.52098)
(0.106778 -0.596587 5.63414)
(-0.186142 -0.765288 5.14016)
(0.742567 -0.154534 5.70357)
(0.268637 -0.27141 5.5628)
(0.0800347 -0.849113 5.01616)
(0.4123 -0.255288 5.54305)
(-0.0142138 -0.695812 5.05044)
(-0.0551945 -1.85219 3.69615)
(-0.440099 -1.94259 3.80752)
(-0.406482 -0.694473 5.16225)
(-1.36479 -1.78229 4.35115)
(-0.293696 -1.69864 4.03013)