/*--------------------------------*- C++ -*----------------------------------*\
| =========                 |                                                 |
| \\      /  F ield         | OpenFOAM: The Open Source CFD Toolbox           |
|  \\    /   O peration     | Version:  2506                                  |
|   \\  /    A nd           | Website:  www.openfoam.com                      |
|    \\/     M anipulation  |                                                 |
\*---------------------------------------------------------------------------*/
FoamFile
{
    version     2.0;
    format      ascii;
    arch        "LSB;label=32;scalar=64";
    class       volVectorField;
    location    "200";
    object      U;
}
// * * * * * * * * * * * * * * * * * * * * * * * * * * * * * * * * * * * * * //

dimensions      [0 1 -1 0 0 0 0];

internalField   nonuniform List<vector> 
41920
(
(-0.00581276 -0.00484484 0.999183)
(-0.0128187 -0.0242401 1.00044)
(0.00212147 -0.00897773 0.992043)
(-0.00611124 -0.0159652 1.00109)
(-0.0168729 -0.029602 0.99693)
(-0.0349133 -0.0510853 1.01559)
(-0.00619752 -0.0113772 0.99925)
(-0.0194899 -0.0277591 1.02031)
(0.000730782 -0.0401863 1.06261)
(-0.00745554 -0.0373297 1.13832)
(0.00131405 -0.0324741 1.03861)
(-0.0447529 -0.0272493 1.09296)
(-0.0420316 -0.0562675 1.15925)
(-0.0223584 -0.0537986 1.14494)
(-0.0388072 -0.0538973 1.10994)
(-0.0312772 -0.020655 1.10267)
(0.00313393 -0.0037456 0.999967)
(-0.0034843 -0.0217406 0.997229)
(0.00271226 -0.00859728 0.997073)
(-3.63114e-06 -0.0121334 0.998243)
(-0.00167343 -0.0177982 1.00148)
(0.00398424 -0.028554 1.01745)
(-0.000780013 -0.0077113 0.998356)
(0.00272892 -0.0300097 1.01633)
(-0.00729832 -0.011386 1.00287)
(-0.0347576 -0.0278698 1.02976)
(-0.00503014 -0.0127309 0.998733)
(-0.0108767 -0.0100503 1.00121)
(-0.0221248 -0.0107936 1.00263)
(-0.0230236 -0.0201615 1.01846)
(-0.00550937 -0.00413329 0.99681)
(-0.010754 -0.0169695 1.01906)
(-0.0364686 -0.0641189 1.05869)
(-0.00548473 -0.027808 0.998551)
(-0.0245693 -0.0165929 1.00496)
(-0.0454835 -0.0452489 1.05049)
(-0.0324138 -0.0459638 1.03671)
(-0.0352065 -0.0521845 1.03957)
(-0.0365171 -0.0314941 1.03594)
(-0.0306414 -0.0333927 1.0178)
(-0.0372303 -0.0673027 1.07336)
(-0.0371992 -0.0347424 1.07829)
(-0.00458107 -0.0517472 1.05518)
(-0.0140385 -0.0390744 1.01671)
(-0.0379958 -0.0265472 1.07291)
(-0.0425002 -0.0583438 1.11424)
(-0.00675049 -0.0243908 0.999281)
(-0.012332 -0.0538995 1.0571)
(-0.00242304 -0.00853412 0.997101)
(-0.0055722 -0.00937328 0.997375)
(-0.0266581 -0.0289731 1.02955)
(-0.00349371 -0.00711676 0.996748)
(-0.000101667 -0.0138618 0.996785)
(-0.0122552 -0.0244025 1.01878)
(-0.0116228 -0.0166312 1.00259)
(-0.0268828 -0.032976 1.03443)
(-0.00939381 -0.0305169 1.01614)
(-0.004696 -0.020086 1.01795)
(-0.0281647 -0.0284765 1.07383)
(-0.015343 -0.0189612 1.03681)
(-0.0138992 -0.0389996 1.03409)
(-0.0121094 -0.0244553 1.01669)
(-0.0130002 -0.0369163 1.03252)
(-0.015164 -0.0335837 1.0296)
(-0.0543449 -0.0587575 1.21559)
(-0.0171827 -0.0584196 1.13119)
(-0.0835466 -0.0647194 1.25305)
(-0.0653861 -0.0530951 1.14055)
(-0.0298207 -0.0609437 1.18832)
(-0.0358506 -0.0675679 1.2038)
(-0.0752342 -0.0619761 1.17303)
(-0.0690476 -0.0490433 1.17823)
(-0.00519388 -0.0478084 1.06116)
(0.00213504 -0.0255882 1.02015)
(-0.0278105 -0.0620163 1.07976)
(0.00192321 -0.0144444 1.00483)
(-7.1343e-05 -0.0429064 1.04713)
(-0.00918383 -0.0488897 1.05387)
(-0.013799 -0.0454349 1.04369)
(-0.00392728 -0.0400646 1.02991)
(-0.125402 -0.123119 1.27305)
(-0.090459 -0.0982586 1.16358)
(-0.174649 -0.159097 1.29424)
(-0.122641 -0.114619 1.14237)
(-0.107359 -0.113428 1.20322)
(-0.120037 -0.118445 1.21732)
(-0.154532 -0.135346 1.20454)
(-0.14368 -0.103987 1.18036)
(-0.0549534 -0.0587051 1.06097)
(-0.0185293 -0.0257634 1.01363)
(-0.076076 -0.0754802 1.06239)
(-0.0318238 -0.0218638 1.00621)
(-0.0514272 -0.0692904 1.05302)
(-0.0519511 -0.075469 1.05335)
(-0.0597613 -0.0488009 1.02777)
(-0.0561628 -0.0453856 1.03628)
(-0.0135305 -0.0606762 1.10661)
(-0.0738063 -0.0785593 1.19567)
(-0.0529821 -0.0738259 1.12341)
(-0.0206135 -0.0569123 1.04181)
(-0.0440158 -0.065271 1.10088)
(-0.0636368 -0.079397 1.15036)
(-0.0313011 -0.0585054 1.04959)
(-0.057791 -0.0810342 1.12523)
(-0.0187626 -0.0672379 1.11617)
(-0.0286776 -0.0633704 1.05149)
(-0.053086 -0.0851943 1.11334)
(-0.0795982 -0.0799151 1.2155)
(-0.0404617 -0.0625464 1.09328)
(-0.0299346 -0.0766103 1.058)
(-0.0558728 -0.0681654 1.1669)
(-0.0443884 -0.0789963 1.10375)
(-0.106611 -0.106634 1.19081)
(-0.0702105 -0.0724182 1.08185)
(-0.0324167 -0.0577633 1.02917)
(-0.108007 -0.0921623 1.09172)
(-0.0869296 -0.0901997 1.15434)
(-0.0689974 -0.0609368 1.09818)
(-0.0789621 -0.0956125 1.11189)
(-0.0644398 -0.0896024 1.06529)
(-0.104848 -0.0748521 1.19834)
(-0.110732 -0.0777028 1.11038)
(-0.0381927 -0.0531911 1.04517)
(-0.0548983 -0.0807622 1.09952)
(-0.1002 -0.104202 1.14632)
(-0.0836545 -0.107314 1.12074)
(-0.0694003 -0.0857721 1.1108)
(-0.0371689 -0.0734882 1.04959)
(-0.0460281 -0.0555172 1.2398)
(-0.0203444 -0.0647374 1.15437)
(-0.031685 -0.0857688 1.27569)
(-0.0862718 -0.0628633 1.27086)
(-0.0310439 -0.0640718 1.22713)
(-0.0178272 -0.0722791 1.19141)
(-0.0556645 -0.0752078 1.32113)
(-0.0334328 -0.081432 1.23864)
(-0.00443749 -0.0617782 1.07676)
(-0.00113889 -0.0310871 1.02259)
(0.00865727 -0.0737291 1.06765)
(-0.0298441 -0.0710126 1.08909)
(-7.48127e-05 -0.0580348 1.06634)
(0.00631307 -0.0400394 1.04748)
(0.00425281 -0.0725223 1.09933)
(-0.00386233 -0.0655781 1.06862)
(-0.0152098 -0.110634 1.28191)
(0.0166311 -0.106143 1.15975)
(0.0115152 -0.121664 1.29439)
(-0.0627524 -0.134126 1.31806)
(-0.00252859 -0.109961 1.23536)
(0.0235155 -0.103963 1.20003)
(-0.0322759 -0.127077 1.35862)
(-0.000238887 -0.1253 1.2796)
(-0.121151 -0.109593 1.29095)
(-0.0909076 -0.11357 1.19521)
(-0.119635 -0.145776 1.33992)
(-0.163976 -0.161109 1.33486)
(-0.106054 -0.108922 1.24524)
(-0.0835268 -0.112513 1.24493)
(-0.148755 -0.149358 1.38904)
(-0.126117 -0.140164 1.30732)
(-0.0225478 -0.0709679 1.14038)
(-0.027668 -0.0908031 1.24634)
(-0.077719 -0.0741512 1.23721)
(-0.0492013 -0.0824685 1.14324)
(-0.0170434 -0.0879415 1.18782)
(-0.0491833 -0.0925673 1.22536)
(-0.0604726 -0.0740773 1.1748)
(-0.061291 -0.0770101 1.21171)
(-0.00224845 -0.065542 1.09752)
(-0.0321975 -0.0711251 1.1208)
(0.0141703 -0.0715941 1.09646)
(-0.0127008 -0.103459 1.21232)
(-0.0136247 -0.0818359 1.1517)
(-0.0144701 -0.0927229 1.12213)
(-0.0122633 -0.09333 1.16179)
(-0.0042062 -0.0911801 1.1398)
(-0.0485746 -0.103481 1.34586)
(-0.0942495 -0.101554 1.34759)
(-0.0540976 -0.106468 1.19692)
(-0.094008 -0.136887 1.38418)
(-0.0749405 -0.0958186 1.2963)
(-0.0783532 -0.0990529 1.26401)
(-0.0603424 -0.105727 1.25705)
(-0.0776755 -0.116274 1.24369)
(-0.0269957 -0.112188 1.25716)
(-0.0746519 -0.136762 1.29294)
(-0.0549491 -0.100586 1.17876)
(-0.0048951 -0.101907 1.15645)
(-0.0309359 -0.11518 1.2298)
(-0.0473296 -0.101572 1.2252)
(-0.00384147 -0.114141 1.17887)
(-0.0502102 -0.107784 1.17637)
(0.0311876 -0.0227553 0.997369)
(0.0326231 -0.0355202 0.991142)
(0.0108373 -0.0200229 1.00421)
(0.138626 -0.102917 1.02836)
(0.0929487 -0.0362109 0.99452)
(0.0132475 -0.022165 1.00239)
(0.0976691 -0.0583436 1.0201)
(0.0344622 -0.0498923 1.01666)
(0.0241696 -0.0285258 0.994429)
(0.0245943 -0.0157224 0.995114)
(0.0173177 -0.0193055 0.997982)
(0.107016 -0.0712813 1.02414)
(0.060056 -0.0300447 0.996199)
(0.0149328 -0.00597683 0.999604)
(0.0725116 -0.0367709 1.01537)
(0.0409239 -0.0379842 1.01642)
(0.00694636 -0.0108949 0.99617)
(0.0112966 -0.0169344 0.997881)
(0.00620111 -0.0123702 0.99932)
(0.0638858 -0.0639955 1.03583)
(0.0335315 -0.0269531 1.01235)
(0.00893839 -0.00602746 1.00077)
(0.042235 -0.0339965 1.02203)
(0.0186597 -0.0266525 1.01297)
(0.219055 -0.192191 1.09604)
(0.195589 -0.160944 1.12385)
(0.164106 -0.156717 1.14198)
(0.286962 -0.281056 1.30715)
(0.270497 -0.212622 1.18346)
(0.17567 -0.170196 1.11897)
(0.24388 -0.207716 1.21926)
(0.205257 -0.183563 1.20085)
(0.0688466 -0.0479152 0.991812)
(0.0493409 -0.0276599 1.0012)
(0.187314 -0.12195 1.04893)
(0.150478 -0.10161 1.03987)
(0.0825033 -0.0472809 1.00543)
(0.0871913 -0.0545266 1.02477)
(0.125874 -0.10184 1.01435)
(0.100541 -0.0947619 1.04325)
(0.0147099 -0.0225853 1.00733)
(0.0888196 -0.0589537 1.01974)
(0.0148234 -0.00505167 1.00063)
(0.00975613 -0.0129607 1.00407)
(0.043801 -0.0304268 1.00681)
(0.072036 -0.0531916 1.03074)
(0.0110973 -0.0157114 0.995515)
(0.044759 -0.0337786 1.00687)
(0.0762209 -0.047674 1.03061)
(0.19014 -0.132809 1.09906)
(0.176727 -0.108434 1.08495)
(0.122064 -0.101948 1.10377)
(0.0654963 -0.0703141 1.02934)
(0.132343 -0.112659 1.0689)
(0.13748 -0.100695 1.06615)
(0.163198 -0.1396 1.10865)
(0.031009 -0.0245115 1.00425)
(0.0965663 -0.0797753 1.07721)
(0.123024 -0.0992291 1.07458)
(0.0327862 -0.031383 1.01273)
(0.0520774 -0.044199 1.03359)
(0.0783379 -0.0567401 1.02522)
(0.0648487 -0.032989 1.02217)
(0.0887254 -0.0786664 1.03324)
(0.00902405 0.0294788 1.02825)
(-0.0404326 -0.0341825 0.990461)
(0.0859013 0.169887 1.10874)
(0.082536 -0.0139455 1.07862)
(0.0698403 -0.0354747 1.01229)
(-0.0133685 0.0629403 1.05035)
(0.0871318 -0.014397 1.07411)
(-0.000882002 0.0393879 1.06014)
(-0.134512 -0.1435 1.53842)
(-0.0525445 0.111649 4.2203)
(-0.171582 0.363592 2.14216)
(-0.0731374 0.129685 1.33196)
(0.174982 -0.229199 1.1201)
(-0.0441436 0.0625901 2.18659)
(0.101793 -0.0647702 1.13222)
(-0.0373979 0.281549 1.48461)
(0.187011 0.268322 1.33015)
(0.195582 0.176992 2.04762)
(-0.143552 0.341219 1.97012)
(0.0795244 0.350043 1.41865)
(0.168075 0.141247 1.3945)
(0.124881 -0.118777 1.44131)
(0.0167395 0.355169 1.35658)
(0.00896722 0.0361938 1.40697)
(0.161455 -0.0533358 1.27651)
(0.0843899 -0.104709 1.42279)
(-0.024163 0.0691418 1.62618)
(0.0819509 -0.119616 1.21681)
(0.147904 -0.090919 1.30321)
(0.0878915 0.00251994 1.35514)
(0.16151 -0.0846084 1.34622)
(0.0770251 -0.0269368 1.35668)
(0.0507454 -0.0926718 1.01911)
(0.070873 0.184393 1.08178)
(0.120796 -0.019969 1.12842)
(0.111614 -0.193013 1.42489)
(-0.0275002 0.0181148 1.08245)
(-0.0323157 0.0965296 1.09114)
(-0.0153016 -0.00235339 1.16712)
(0.0337328 0.0736448 1.1752)
(0.00276855 -0.233571 1.16164)
(-0.209413 0.133927 1.53854)
(-0.0852606 0.368964 1.90404)
(0.130338 0.0914968 1.01716)
(0.0182335 -0.166669 1.22853)
(-0.0428217 -0.0170149 1.32924)
(-0.123929 -0.0596495 1.05601)
(-0.104023 -0.00173388 1.00791)
(0.0238182 0.220747 1.25476)
(0.126513 -0.00591907 1.14132)
(0.0665146 -0.287206 1.48122)
(0.0763636 0.134122 1.34796)
(0.0720786 0.192935 1.28769)
(0.0675706 0.0273062 1.13866)
(0.033629 0.00463704 1.34591)
(-0.0325448 -0.0814173 1.28928)
(0.118611 0.146082 1.12394)
(-0.027956 0.164295 1.20043)
(-0.178493 -0.0877082 1.49324)
(-0.017932 0.235598 1.64952)
(0.013306 0.0432497 1.19078)
(-0.124076 5.51301e-05 1.27563)
(-0.116768 -0.147595 1.04908)
(-0.189975 -0.136388 1.37823)
(-0.154965 -0.16417 1.34046)
(-0.0729658 -0.118543 1.18884)
(-0.121442 -0.14235 1.30846)
(-0.12471 -0.134057 1.15288)
(-0.116139 -0.120235 1.21522)
(-0.149308 -0.135754 1.26337)
(-0.130801 -0.148747 1.23863)
(-0.148405 -0.151334 1.24649)
(-0.0215187 -0.0695672 1.07174)
(-0.0152651 -0.0330497 1.00971)
(0.00891856 -0.0639346 1.03328)
(-0.0294349 -0.0267063 0.990759)
(-0.0039957 -0.0483312 1.02322)
(-0.0033451 -0.0551709 1.03066)
(-0.0219105 -0.0518585 1.02498)
(-0.00091742 -0.0526409 1.02738)
(-0.053602 -0.125757 1.28105)
(0.0254199 -0.0916208 1.12687)
(0.00977377 -0.109531 1.23781)
(-0.0420074 -0.110495 1.12412)
(-0.0246442 -0.118829 1.20237)
(-0.00290946 -0.107132 1.25342)
(-0.0400395 -0.115516 1.1849)
(-0.00216381 -0.117649 1.21517)
(-0.0886841 -0.104323 1.06679)
(-0.0520229 -0.0413639 1.00371)
(-0.070013 -0.0944209 1.04524)
(-0.0526729 -0.0507977 0.997817)
(-0.0592533 -0.0623315 1.05679)
(-0.0690545 -0.0725126 1.06089)
(-0.0788038 -0.0820116 1.03062)
(-0.0451703 -0.0781522 1.03763)
(-0.0497711 -0.0914296 1.11035)
(-0.088554 -0.136228 1.21954)
(-0.0957406 -0.0971611 1.16023)
(-0.0354965 -0.0697655 1.0726)
(-0.0612037 -0.101518 1.12072)
(-0.120164 -0.140107 1.16997)
(-0.0574981 -0.0760089 1.05294)
(-0.12066 -0.11163 1.15289)
(-0.0614436 -0.0962103 1.13188)
(-0.0390416 -0.0550351 1.05804)
(-0.000580099 -0.0861827 1.1147)
(-0.0778463 -0.123958 1.24747)
(-0.0641982 -0.0967866 1.12364)
(-0.0420998 -0.0802099 1.05696)
(-0.0315666 -0.10358 1.1407)
(-0.0215869 -0.0940702 1.0902)
(-0.0975365 -0.134447 1.21268)
(-0.104059 -0.117153 1.11147)
(-0.0566099 -0.0649895 1.0269)
(-0.0706873 -0.10456 1.09425)
(-0.0957873 -0.134631 1.16027)
(-0.12035 -0.131431 1.12672)
(-0.0506667 -0.104218 1.11209)
(-0.0799764 -0.0965886 1.06425)
(-0.0747578 -0.130179 1.2189)
(-0.0368417 -0.109607 1.10636)
(-0.0233252 -0.0620486 1.03459)
(-0.00771775 -0.0896711 1.10237)
(-0.053023 -0.121669 1.1488)
(-0.0452679 -0.0911729 1.13879)
(-0.0329838 -0.0806721 1.08593)
(-0.0423266 -0.067408 1.04582)
(-0.0305253 -0.0187038 1.00658)
(-0.0951225 -0.0854002 1.04585)
(-0.0751482 -0.0816405 1.06981)
(-0.0182721 -0.0232544 1.00157)
(-0.0594885 -0.0526403 1.00082)
(-0.115744 -0.0862227 1.06484)
(-0.0453296 -0.0465864 1.01578)
(-0.0571358 -0.0851902 1.02753)
(-0.163991 -0.154169 1.13118)
(-0.212842 -0.205003 1.34914)
(-0.15392 -0.169368 1.33321)
(-0.122359 -0.129036 1.17625)
(-0.188385 -0.167149 1.16548)
(-0.227315 -0.185529 1.27187)
(-0.125597 -0.146806 1.19195)
(-0.161688 -0.163315 1.22853)
(-0.096041 -0.0826757 1.16841)
(-0.103545 -0.0984402 1.3103)
(-0.0515004 -0.0587527 1.22471)
(-0.0546977 -0.0572651 1.1492)
(-0.084449 -0.0926328 1.17638)
(-0.0897158 -0.0681445 1.24722)
(-0.0629645 -0.0412138 1.18204)
(-0.0547797 -0.0531245 1.24127)
(-0.0150525 -0.015637 1.00221)
(-0.0603635 -0.0666609 1.06934)
(-0.043898 -0.0297906 1.07393)
(-0.0187739 -0.0163894 1.01534)
(-0.0356309 -0.043487 1.02816)
(-0.0437313 -0.0345381 1.04011)
(-0.0285695 -0.0271928 1.01877)
(-0.0527991 -0.0386153 1.03674)
(-0.128052 -0.115868 1.05437)
(-0.0755982 -0.0981634 1.08156)
(-0.0394305 -0.0565704 1.01257)
(-0.098774 -0.111251 1.09578)
(-0.0954283 -0.103191 1.09349)
(-0.0815597 -0.097046 1.05095)
(-0.0678796 -0.0689887 1.05568)
(-0.0451403 -0.0582173 1.03556)
(-0.201344 -0.140962 1.15787)
(-0.104 -0.0837549 1.13706)
(-0.157592 -0.125546 1.27294)
(-0.117007 -0.101892 1.14834)
(-0.11951 -0.138867 1.09323)
(-0.123765 -0.122321 1.13833)
(-0.125144 -0.135367 1.20618)
(-0.115272 -0.135245 1.19219)
(-0.0687034 -0.0644068 1.09421)
(-0.0328749 -0.0385023 1.00518)
(-0.0794157 -0.085969 1.07679)
(-0.0598334 -0.0425743 1.07972)
(-0.0478695 -0.058114 1.04999)
(-0.0547127 -0.0563822 1.02973)
(-0.0671507 -0.0684446 1.07836)
(-0.0605778 -0.0530775 1.04997)
(-0.0687585 -0.0950801 1.10628)
(-0.0712328 -0.0531604 1.12519)
(-0.0938974 -0.0924142 1.12173)
(-0.109413 -0.112445 1.21631)
(-0.0838656 -0.0826733 1.12751)
(-0.0695255 -0.0496979 1.10047)
(-0.0952705 -0.083244 1.18847)
(-0.0850312 -0.0873019 1.1447)
(0.269972 -0.280909 1.33891)
(0.192393 -0.153538 1.15248)
(0.172473 -0.137977 1.18927)
(0.208292 -0.19749 1.31234)
(0.236016 -0.219251 1.2718)
(0.203445 -0.175747 1.19423)
(0.220069 -0.200843 1.26497)
(0.165919 -0.161936 1.24994)
(0.116314 -0.0564873 1.05051)
(0.0430386 7.00354e-05 1.01196)
(0.0431171 -0.0142846 1.02111)
(0.0955824 -0.0115032 1.05569)
(0.0829521 -0.0444695 1.04511)
(0.0468647 -0.020528 1.02687)
(0.0881068 -0.0369351 1.02643)
(0.0520342 -0.0275079 1.04308)
(0.074181 -0.0541164 1.06992)
(0.032261 -0.0171333 1.01571)
(0.0207341 -0.0132497 1.01331)
(0.061579 -0.0365477 1.05006)
(0.056477 -0.0366827 1.05063)
(0.0274728 -0.0284759 1.02072)
(0.0447338 -0.0413553 1.03181)
(0.0195999 -0.0288026 1.03001)
(0.152925 -0.127419 1.29888)
(0.111467 -0.0497867 1.14245)
(0.10071 -0.0650595 1.13666)
(0.129252 -0.0909021 1.27516)
(0.160539 -0.0879249 1.26732)
(0.131144 -0.069719 1.1842)
(0.135679 -0.0831841 1.2402)
(0.0880996 -0.070146 1.19412)
(0.157681 -0.121233 1.11856)
(0.145233 -0.104414 1.13793)
(0.181398 -0.160101 1.27362)
(0.132151 -0.0694049 1.13094)
(0.153551 -0.0992313 1.11891)
(0.161806 -0.138943 1.20625)
(0.136281 -0.0925612 1.14733)
(0.155734 -0.12828 1.19125)
(0.122619 -0.0793503 1.08221)
(0.103079 -0.0490908 1.09175)
(0.0412941 -0.0263561 1.02568)
(0.103696 -0.0825746 1.08685)
(0.115596 -0.0872445 1.12833)
(0.101032 -0.070848 1.09119)
(0.105967 -0.0702058 1.07195)
(0.0788317 -0.0426879 1.05913)
(0.124409 -0.0968434 1.1274)
(0.174441 -0.137299 1.25393)
(0.125475 -0.059787 1.12218)
(0.0954227 -0.069919 1.11543)
(0.122237 -0.0898738 1.14274)
(0.124524 -0.0976164 1.21873)
(0.106181 -0.0702805 1.11814)
(0.132709 -0.0829671 1.19561)
(0.0798399 -0.0722608 1.11656)
(0.0659357 -0.0547326 1.11195)
(0.0965816 -0.0576663 1.12583)
(0.03469 -0.0294135 1.03717)
(0.0777026 -0.0651631 1.08211)
(0.0835033 -0.0600987 1.08031)
(0.0813211 -0.0408651 1.03878)
(0.0797809 -0.0366661 1.0558)
(-0.616911 -0.444037 1.94951)
(-0.961792 -0.904559 0.933555)
(-0.668275 -0.339472 1.68757)
(-0.513417 -0.228007 4.19964)
(0.0663592 -0.799964 3.72438)
(-0.32174 0.479121 1.82924)
(-0.94544 -1.01377 5.13444)
(-1.32948 -0.0303282 2.55873)
(0.167929 -0.276359 1.02502)
(0.0620763 -0.0311659 1.01672)
(0.0919323 -0.221217 0.676155)
(-0.0246606 -0.421811 0.956069)
(0.0285153 -0.520667 0.952881)
(0.0857232 -0.111815 0.952876)
(0.0518415 -0.507414 0.978282)
(0.0471458 -0.335349 0.805874)
(-0.545215 -0.201761 1.31244)
(0.0931888 -0.0947508 0.753352)
(-0.657261 0.595539 1.73136)
(-0.835933 0.134854 1.67773)
(-0.671228 -0.13379 1.54967)
(-0.377382 0.147266 1.34246)
(-0.900173 0.29589 1.78592)
(-0.747627 0.567458 1.6263)
(-0.611829 -0.103718 4.04912)
(-0.607323 -0.898299 0.704597)
(0.0135719 -0.0545221 1.84914)
(-0.0793966 0.191709 4.48469)
(-0.399964 -0.14768 4.12958)
(0.0692431 0.0453452 2.85825)
(-0.733548 0.221222 5.53632)
(0.0422779 -0.117168 2.44186)
(-0.683999 -0.909917 0.530299)
(0.0576007 -0.99832 -0.193455)
(-0.551204 -0.443156 4.12676)
(-0.450571 -0.804155 0.963851)
(-0.655598 -0.923095 0.303594)
(-0.40264 0.00354059 1.26681)
(-0.744397 -0.936648 0.647396)
(-0.470639 0.0119899 2.8595)
(-0.209353 -1.14948 1.05361)
(-0.316367 -0.701893 0.917833)
(0.29875 -0.208959 0.472866)
(-0.172165 -0.876217 0.911451)
(-0.382847 -0.767426 0.93164)
(-0.162415 -0.733115 0.926774)
(-0.0703928 -0.734123 0.597362)
(0.119594 -0.621456 0.533305)
(-0.323592 -0.277654 1.92054)
(-0.552686 -0.495579 4.66405)
(-0.566905 -0.8583 0.466593)
(0.100652 0.440143 2.32487)
(0.146767 -0.405275 1.57978)
(-0.272642 -0.269454 2.1827)
(-0.289805 -0.191463 1.22159)
(-0.363951 -0.31265 1.20241)
(-0.217052 -0.384327 0.949395)
(-0.144291 -0.311053 1.52311)
(-0.327258 -0.658667 0.879181)
(0.29585 -0.125037 0.678474)
(-0.208698 -0.632428 1.07869)
(-0.377256 -0.452125 1.30225)
(-0.0435751 -0.668838 0.649413)
(-0.227912 -0.669749 0.745025)
(-0.0353383 -0.323121 1.24201)
(-0.483887 -0.365896 2.10437)
(-0.0103162 -0.417018 3.3033)
(-0.340949 0.191298 2.15054)
(-0.342788 -0.0636816 2.14448)
(-0.618008 -0.456423 1.92621)
(-0.323352 -0.186514 3.04774)
(-0.456879 -0.0318946 2.83802)
(-0.545693 -0.0671194 1.84532)
(-0.450422 -0.138269 1.57175)
(-0.31098 -0.122418 1.85224)
(-0.137383 -0.129215 1.19607)
(-0.445312 -0.0830829 1.63443)
(-0.492842 -0.0492912 1.64507)
(-0.227322 -0.0523523 1.32644)
(-0.259206 -0.0270139 1.08365)
(-0.0974446 -0.214304 3.96244)
(-0.0226861 -0.0930616 2.35762)
(-0.350241 -0.266773 3.86914)
(-0.430236 -0.208546 1.87514)
(-0.388503 -0.377384 3.36612)
(-0.180178 -0.0751253 3.22731)
(-0.420518 -0.419572 3.68475)
(-0.495127 -0.258913 3.16907)
(-0.0896496 -0.0424653 1.19535)
(-0.0615793 -0.146207 1.06191)
(-0.0420975 -0.122449 1.12189)
(-0.0653836 -0.0545998 1.01923)
(-0.0511742 -0.104182 1.17258)
(-0.0939237 -0.0676495 1.1515)
(-0.0525927 -0.152746 1.08884)
(-0.0932136 -0.14576 1.16145)
(-0.551273 -0.0039442 1.96945)
(-0.23566 -0.102782 2.95047)
(-0.225558 -0.0714717 1.8218)
(-0.0767663 -0.164908 1.26721)
(-0.183694 -0.0420594 2.14373)
(-0.375371 -0.0862064 2.25712)
(-0.276496 0.0563425 1.50259)
(-0.129491 0.127304 1.89614)
(-0.586698 -0.123169 1.88676)
(-0.101743 -0.127545 1.28079)
(-0.317069 -0.0618369 2.13128)
(-0.145625 -0.502685 2.93073)
(-0.359202 -0.000408439 1.76421)
(-0.282662 -0.027063 1.13036)
(-0.248829 -0.0610121 2.8923)
(-0.267361 -0.131907 2.11481)
(-0.0600877 -0.168264 3.35223)
(-0.0922238 -0.13587 1.72628)
(-0.122977 -0.0764735 1.20731)
(-0.406924 -0.235612 1.80024)
(-0.112514 -0.112764 1.93497)
(-0.0197527 -0.102133 1.83469)
(-0.0617712 -0.163355 1.86738)
(-0.0736086 0.00590852 1.47584)
(-0.257391 -0.308893 3.44337)
(-0.137334 -0.125677 1.84491)
(-0.061748 -0.0827488 1.21959)
(-0.180244 -0.0771057 1.63101)
(-0.130491 -0.246943 2.51452)
(-0.111412 -0.0308782 1.76304)
(0.0222786 -0.120259 1.98728)
(-0.078614 -0.0988645 1.19422)
(1.21659 0.904701 7.36477)
(4.42877 4.99507 1.66122)
(3.36417 0.72364 3.94481)
(1.23259 0.754386 1.91013)
(0.316171 1.71206 1.87913)
(2.65031 2.05879 2.46521)
(3.52617 1.39741 4.51783)
(4.12909 1.58352 3.56898)
(0.221588 -0.253533 -0.769416)
(0.0986684 0.0343627 1.05553)
(-0.0484093 -0.0612375 1.13653)
(-0.325438 -0.1836 0.772872)
(0.00249721 0.246138 0.77303)
(0.00723744 -0.162645 1.15777)
(-0.222168 -0.136901 1.06939)
(-0.150069 -0.125676 1.24909)
(2.24906 0.711616 1.28194)
(0.0202583 -0.213678 1.09459)
(0.282989 -0.261524 0.420262)
(1.01669 0.649803 1.62685)
(0.528368 0.161163 0.732769)
(-0.188033 -0.499674 0.490681)
(1.21085 0.742181 1.47205)
(0.185151 -0.0919359 0.272286)
(1.15869 -0.286374 1.65238)
(0.564056 0.327981 1.73538)
(1.01174 0.453669 2.12707)
(0.192845 -0.355047 1.24786)
(1.71555 0.547442 1.78354)
(0.818963 0.204054 1.71453)
(1.15549 -0.322212 1.78082)
(0.979403 0.278116 1.94909)
(-0.569846 -2.56161 0.446285)
(1.66734 0.445168 1.29887)
(1.71685 0.786511 1.01992)
(-0.892341 -1.75563 -0.0485113)
(0.859798 1.40242 1.55023)
(1.66132 1.84556 1.05383)
(-1.51738 0.298358 2.07082)
(1.62308 2.28567 1.50568)
(0.234595 -0.530734 -0.0939516)
(-0.172602 -0.141501 1.20008)
(-0.109662 -0.133375 1.19504)
(1.57116 -0.596464 0.653705)
(1.05086 -0.426646 1.1366)
(-0.215602 -0.320622 1.25193)
(0.894084 -0.315587 0.264795)
(0.280834 -0.487204 1.41316)
(2.17087 1.27177 2.29858)
(1.39723 -0.56208 2.90124)
(0.499548 0.295201 1.33718)
(1.22951 0.644388 2.16171)
(1.50322 0.462427 1.91494)
(0.543609 0.869708 2.37524)
(0.596783 0.177529 1.04827)
(0.652751 0.378798 1.22399)
(2.07089 0.865547 1.3191)
(0.813934 0.427008 1.18694)
(0.00280061 -0.160613 1.14988)
(-0.0118622 -0.249696 0.95186)
(0.305316 -1.02683 0.354873)
(0.7193 0.075273 0.819457)
(0.418317 -0.183204 0.674694)
(0.0538027 -0.107531 0.863716)
(-0.0361106 -0.0174966 1.21767)
(-0.0172426 0.00985517 1.21924)
(-0.0114024 -0.00182229 1.112)
(-0.0394999 0.0132176 1.11469)
(-0.0416622 0.00787492 1.21236)
(-0.0213161 0.00281607 1.20135)
(-0.0381168 0.0123276 1.15235)
(-0.0100061 0.00962434 1.15144)
(0.00341651 0.0382705 1.21991)
(0.0117358 0.0952109 1.21988)
(0.0139212 0.0406729 1.10932)
(0.0123308 0.0689369 1.12294)
(0.0112548 0.0513727 1.19818)
(0.0123138 0.0598201 1.18903)
(0.00410265 0.0639328 1.14737)
(0.0180406 0.0760329 1.13632)
(0.00575711 0.0123151 1.05018)
(0.0159057 0.0203071 1.04103)
(0.0105426 0.000822015 1.00317)
(0.000589902 0.00692661 1.00556)
(0.0106237 0.0160077 1.02779)
(0.0140293 0.0189679 1.03115)
(0.00470961 0.017716 1.01519)
(0.0109193 0.0161192 1.01262)
(-0.0311893 0.0203022 1.04499)
(-0.0138193 0.0477067 1.05128)
(-0.00808802 0.00824245 1.00705)
(-0.0130163 0.0137937 1.00747)
(-0.0188339 0.0255691 1.0326)
(-0.0201314 0.0272511 1.03436)
(-0.0159284 0.0244949 1.02019)
(-0.00814417 0.0276486 1.0171)
(-0.020559 0.0268175 1.20376)
(-0.00446421 0.0118384 1.09168)
(-0.0318769 0.0256667 1.09387)
(-0.00839565 0.0492296 1.09181)
(-0.0202408 0.0313325 1.14759)
(-0.0144322 0.0230833 1.15605)
(-0.0160546 0.0423105 1.10952)
(-0.0227234 0.0252831 1.0928)
(0.00171638 0.0250278 1.20802)
(-0.00664032 0.0471882 1.09108)
(0.0193816 0.0424741 1.09716)
(-0.000561407 0.0189134 1.09239)
(0.00437164 0.0340462 1.14751)
(-0.00345864 0.0368085 1.13539)
(0.0126975 0.0266748 1.12318)
(0.01186 0.0354437 1.08954)
(-0.00948967 0.017262 1.09076)
(-0.0325977 0.02648 1.08044)
(-0.0184683 0.0455573 1.08021)
(-0.00718107 0.0173747 1.01278)
(-0.0180613 0.0122381 1.05041)
(-0.0146761 0.0269309 1.06486)
(-0.00598135 0.0260537 1.02948)
(-0.0133398 0.0301309 1.04405)
(0.00761681 0.0144181 1.06858)
(0.00381811 0.0207611 1.01406)
(-0.0023489 0.0556778 1.06642)
(0.0174774 0.0319353 1.05924)
(0.00642783 0.0237946 1.04229)
(-0.00779087 0.0275716 1.03229)
(0.00293873 0.0316111 1.07655)
(-0.00533614 0.0302784 1.04153)
(0.00518421 0.0909272 1.27934)
(-0.00597784 0.0370506 1.28396)
(-0.00970337 0.089032 1.30533)
(-0.00793982 0.0682822 1.15014)
(-0.00349104 0.0762624 1.21148)
(-0.000254154 0.0720244 1.29721)
(-0.00707939 0.0891038 1.196)
(-0.000992681 0.0955254 1.22319)
(-0.0302473 0.0101681 1.27621)
(-0.0540965 -0.0153803 1.29261)
(-0.0805685 0.0111693 1.28189)
(-0.0580117 0.0183194 1.15444)
(-0.0427659 0.0117034 1.21945)
(-0.0506087 0.00237608 1.30582)
(-0.0645866 0.0222365 1.19387)
(-0.0681806 0.0110116 1.22595)
(-0.0553035 0.0654244 1.29917)
(-0.105486 0.0364877 1.29317)
(-0.122006 0.0548803 1.29617)
(-0.080186 0.0649281 1.17462)
(-0.0735672 0.057143 1.2213)
(-0.0979968 0.0533344 1.31255)
(-0.0818808 0.0720873 1.19083)
(-0.109568 0.0497678 1.22747)
(-0.0287536 0.0444113 1.06554)
(-0.050884 0.0327948 1.0672)
(-0.0533534 0.0523545 1.07829)
(-0.0242484 0.0275739 1.00938)
(-0.0217594 0.0381886 1.04696)
(-0.0409123 0.044591 1.08268)
(-0.0317062 0.036236 1.02877)
(-0.0481572 0.0384253 1.04286)
(-0.0187716 0.0349817 1.21037)
(-0.0307788 0.0669863 1.22832)
(-0.0199972 0.0671772 1.13778)
(-0.0373701 0.037539 1.14149)
(-0.0375706 0.0511316 1.18635)
(-0.0272253 0.0597195 1.20486)
(-0.0302213 0.0348568 1.14766)
(-0.0231608 0.0666641 1.14719)
(-0.0258719 0.030074 1.2936)
(-0.0490022 0.0384468 1.15751)
(-0.0727395 0.028938 1.30717)
(-0.0384246 0.0610839 1.30445)
(-0.0373697 0.0431406 1.22103)
(-0.0566134 0.0266682 1.21263)
(-0.047387 0.0387453 1.27714)
(-0.0604157 0.0354824 1.22265)
(-0.0438126 0.0647874 1.20131)
(-0.0298495 0.0629738 1.0908)
(-0.0537218 0.0336231 1.09632)
(-0.0504314 0.0517962 1.09017)
(-0.0382282 0.063014 1.15553)
(-0.0355766 0.048264 1.11578)
(-0.0494513 0.0465982 1.1349)
(-0.0478673 0.0346213 1.09901)
(-0.04362 0.0609583 1.22818)
(-0.0797942 0.0458104 1.11389)
(-0.0666794 0.0307425 1.1178)
(-0.0902053 0.0291362 1.2264)
(-0.0763548 0.0417425 1.20823)
(-0.0612116 0.0531377 1.15109)
(-0.0791474 0.0435995 1.19702)
(-0.0744617 0.0318986 1.15416)
(0.0225377 0.0316006 1.0053)
(-0.0791413 -0.0584895 0.841238)
(-0.00687523 0.118703 0.955256)
(0.0969448 -0.0281184 1.0057)
(0.0408439 -0.08783 1.01341)
(-0.0754826 0.0602549 0.932959)
(0.126729 -0.0524719 0.983461)
(0.00140039 -0.0584977 0.890871)
(0.124766 -0.119195 1.22568)
(0.139934 -0.574318 0.69414)
(1.03987 0.380143 4.61753)
(1.07423 -0.0150983 2.45701)
(1.02893 -0.597299 2.22994)
(0.579526 -0.244745 2.54608)
(1.26286 -0.219043 2.52501)
(0.427108 -0.331251 3.73221)
(0.0248723 0.0528364 1.58274)
(0.372446 0.34203 4.50057)
(0.127519 0.624563 4.59539)
(0.0643447 0.0106921 1.08553)
(0.0157238 8.44639e-05 1.52121)
(0.0644126 0.676575 4.69874)
(-0.033376 -0.198633 0.803698)
(0.00941267 0.176699 4.14988)
(0.20715 -0.0930058 1.19381)
(0.301995 -0.13501 0.925303)
(0.127896 -0.18048 1.50456)
(0.106341 -0.140472 1.09768)
(0.187472 -0.0663999 1.23054)
(0.360165 -0.146277 1.32596)
(0.085664 -0.12024 1.31826)
(0.170454 -0.0432771 1.44311)
(0.147097 -0.29398 1.16566)
(-0.0256029 -0.187545 1.06017)
(0.173384 -0.0758908 1.10264)
(0.292641 -0.127627 1.35107)
(0.186404 -0.273261 1.22728)
(0.058302 -0.192476 1.08438)
(0.188676 -0.172327 1.35892)
(0.182372 -0.14879 1.29305)
(0.118718 0.0169294 1.47404)
(0.905908 0.160762 2.31812)
(0.328889 0.300796 4.6596)
(-0.0342028 -0.0288536 1.50406)
(0.133848 -0.0870949 1.42485)
(0.671568 -0.109631 1.9361)
(-0.1241 0.120126 1.57002)
(0.359118 -0.231216 1.7956)
(0.0576756 -0.17002 1.0672)
(0.240212 -0.053326 1.14386)
(0.376532 -0.188657 1.67051)
(0.158396 -0.267014 1.69638)
(0.0492097 -0.0345581 1.14589)
(0.1494 -0.0661702 1.28961)
(0.216671 -0.254109 1.47135)
(0.340737 -0.295053 1.78515)
(-0.0487506 -0.0221566 1.26179)
(0.466753 0.0474442 2.12389)
(0.894974 -0.136682 2.50446)
(0.433477 0.466091 4.64842)
(0.108648 0.0395856 1.51135)
(0.316557 0.175125 1.57273)
(0.582157 -0.00348913 1.88122)
(0.793833 -0.142644 2.0509)
(0.0448597 0.0345142 0.952878)
(0.169296 -0.00833615 1.05664)
(0.0734869 -0.0047558 1.10364)
(0.149514 -0.00909122 0.990734)
(0.0763615 0.00519451 0.946952)
(0.102982 -0.0300403 0.997472)
(0.14134 0.0767169 0.939382)
(0.178641 -0.00974568 0.987773)
(0.274095 -0.312377 2.18674)
(0.0332432 -0.159078 3.1631)
(0.168595 -0.392895 3.46956)
(-0.193519 -0.197488 3.41553)
(0.159424 -0.605885 3.05574)
(0.110386 -0.434547 3.0289)
(0.0681797 -0.629635 3.28647)
(-0.0560087 -0.207298 3.37791)
(0.269645 -0.16579 1.22356)
(0.262812 -0.387383 2.19057)
(0.225352 -0.13705 1.51382)
(0.235622 -0.28633 2.46114)
(0.49226 -0.435807 1.94956)
(0.353414 -0.321437 1.8717)
(0.430594 -0.427479 1.69552)
(0.173516 -0.099333 1.79611)
(0.27644 0.308399 1.52609)
(-0.269507 -0.296667 3.76979)
(0.0203925 -0.49636 3.75398)
(-0.193933 0.577295 3.68605)
(-0.0478442 0.31176 2.21872)
(-0.125583 -0.418541 3.7397)
(-0.0535147 0.246256 2.30282)
(-0.122154 -0.185949 3.77705)
(0.210973 -0.107441 1.77877)
(0.190879 -0.0296548 0.821491)
(0.158216 0.00514867 1.51123)
(0.0282206 -0.86712 3.7898)
(0.155021 -0.0174222 1.54782)
(0.0679309 0.028228 0.493383)
(0.488494 -0.387841 2.75485)
(0.264385 -0.339078 2.12733)
(0.149935 -0.262283 1.97231)
(-0.00177939 -0.392156 3.2404)
(0.291573 -0.369469 2.88159)
(0.311421 -0.171679 1.40057)
(0.129276 -0.183609 1.92553)
(0.205898 -0.568193 2.95024)
(0.3355 -0.219084 1.66128)
(0.260274 -0.459565 2.64815)
(0.304695 -0.0107021 0.980139)
(0.270331 -0.187605 1.73123)
(-0.00114318 -0.767472 3.84064)
(0.253489 -0.670594 2.85215)
(0.273861 -0.150301 1.33018)
(0.319785 -0.353193 2.01069)
(0.189187 -0.592431 2.95188)
(0.113496 -0.741564 3.56888)
(0.438567 -0.228737 1.47682)
(0.205939 -0.1957 2.81593)
(-0.138538 -0.314203 3.45076)