/*--------------------------------*- C++ -*----------------------------------*\
| =========                 |                                                 |
| \\      /  F ield         | OpenFOAM: The Open Source CFD Toolbox           |
|  \\    /   O peration     | Version:  2506                                  |
|   \\  /    A nd           | Website:  www.openfoam.com                      |
|    \\/     M anipulation  |                                                 |
\*---------------------------------------------------------------------------*/
FoamFile
{
    version     2.0;
    format      ascii;
    arch        "LSB;label=32;scalar=64";
    class       volVectorField;
    location    "300";
    object      U;
}
// * * * * * * * * * * * * * * * * * * * * * * * * * * * * * * * * * * * * * //

dimensions      [0 1 -1 0 0 0 0];

internalField   nonuniform List<vector> 
45440
(
(0.00347019 -0.0695483 1.08752)
(0.0236955 -0.077798 1.08957)
(0.00596417 -0.0406368 1.03691)
(-0.00269755 -0.0333444 1.06258)
(-0.00222294 -0.0616609 1.06736)
(0.00271405 -0.0526743 1.05599)
(0.00152738 -0.0357736 1.05365)
(0.00479443 -0.039461 1.05623)
(0.0500222 -0.081576 1.07694)
(0.0634644 -0.0924554 1.10955)
(0.0436307 -0.0540536 1.04228)
(0.0283632 -0.043656 1.05647)
(0.0404423 -0.0664559 1.0706)
(0.0553169 -0.0610131 1.07169)
(0.0383923 -0.0459146 1.05151)
(0.041286 -0.0505684 1.05488)
(0.0060336 -0.0182895 1.01417)
(0.0200489 -0.0262652 1.01278)
(0.00330921 -0.00773159 1.00576)
(0.000300339 -0.0079758 1.01293)
(0.00891705 -0.0168559 1.01027)
(0.0112818 -0.0155339 1.00386)
(0.00385935 -0.0114929 1.00824)
(0.00406798 -0.0133127 1.00895)
(-0.0118633 -0.0130337 1.05227)
(-0.00229301 -0.0201657 1.05195)
(-0.0103638 -0.00128741 1.02898)
(-0.0214317 0.00712143 1.04631)
(-0.0142206 -0.0120839 1.04755)
(-0.00694456 -0.00829677 1.03953)
(-0.0123209 -0.000761008 1.03945)
(-0.00682664 -0.0043746 1.03026)
(0.0211068 -0.0682844 1.06866)
(0.00907396 -0.0296445 1.0294)
(-0.00502179 -0.0303499 1.0548)
(0.0117399 -0.0387768 1.0557)
(0.017199 -0.0427933 1.04833)
(0.0105478 -0.0362356 1.04417)
(0.0084113 -0.0388134 1.06202)
(0.00104876 -0.029348 1.0524)
(0.0303929 -0.0486541 1.05722)
(0.0194116 -0.0383284 1.04111)
(0.028114 -0.0354736 1.02866)
(0.012823 -0.0268046 1.02092)
(0.0221383 -0.038444 1.04665)
(0.0272225 -0.040697 1.03877)
(0.0252993 -0.043539 1.03377)
(0.0258809 -0.0393825 1.03417)
(0.00524206 -0.0202464 1.02284)
(-0.00819421 -0.0195118 1.04256)
(0.00841648 -0.031262 1.04547)
(-0.00330621 -0.00745414 1.01969)
(-0.0023099 -0.020189 1.03045)
(-0.000157965 -0.0186313 1.03964)
(-0.00117086 -0.0198343 1.03141)
(0.000798153 -0.0204477 1.03623)
(0.00738585 -0.0232726 1.02418)
(0.00169197 -0.0121726 1.01483)
(0.01305 -0.0253033 1.0349)
(0.0187975 -0.0276852 1.01992)
(0.00976781 -0.0226011 1.01862)
(0.00327189 -0.0184139 1.02283)
(0.0159338 -0.0276066 1.02053)
(0.00810962 -0.0266419 1.02817)
(0.0396086 -0.0539013 1.11989)
(0.0545458 -0.061092 1.11439)
(0.036001 -0.0449719 1.11017)
(0.0154771 -0.0284208 1.10023)
(0.0355576 -0.0554614 1.12471)
(0.054593 -0.0584735 1.11407)
(0.019836 -0.0290976 1.10641)
(0.0365431 -0.0441444 1.09488)
(0.066914 -0.0694501 1.10638)
(0.0744387 -0.0846466 1.11242)
(0.0556148 -0.0676073 1.08728)
(0.0337782 -0.0485092 1.05776)
(0.0613328 -0.071674 1.10917)
(0.0726782 -0.0738815 1.11689)
(0.0519213 -0.0544692 1.08421)
(0.0564962 -0.0609679 1.0864)
(0.0262703 -0.0472832 1.09677)
(0.027809 -0.0635327 1.09638)
(0.0101497 -0.0546948 1.09035)
(-0.00402675 -0.0299289 1.06166)
(0.0193034 -0.0523031 1.1013)
(0.0207563 -0.0662184 1.09229)
(0.00943088 -0.0228842 1.07572)
(0.0107434 -0.053438 1.08893)
(-0.00517622 -0.00951002 1.07546)
(0.00418198 -0.0202109 1.05357)
(-0.0122453 -0.00969132 1.04926)
(-0.0204659 0.00895585 1.04397)
(-0.00721597 -0.00701764 1.07931)
(-0.00415718 -0.0168876 1.05795)
(-0.0122102 0.00996017 1.07703)
(-0.00492948 -0.00955422 1.05635)
(0.0524385 -0.0614122 1.11271)
(0.0309097 -0.0470569 1.1166)
(0.01025 -0.0250216 1.09778)
(0.0194094 -0.0399254 1.07809)
(0.0413491 -0.0421695 1.09253)
(0.0327248 -0.0456014 1.0914)
(0.0243289 -0.0408689 1.07694)
(0.0129385 -0.0420184 1.08931)
(0.0638386 -0.0657902 1.1148)
(0.0238879 -0.0425812 1.06354)
(0.0497433 -0.0679789 1.08714)
(0.0390614 -0.0574101 1.10501)
(0.048424 -0.0483957 1.08764)
(0.0424858 -0.0533323 1.07824)
(0.0419894 -0.0552747 1.10349)
(0.0365117 -0.0631278 1.10146)
(0.016618 -0.0230009 1.09441)
(0.0106724 -0.000532242 1.09133)
(0.0124405 -0.0285454 1.0736)
(-0.00527258 -0.00747336 1.07751)
(0.00581993 -0.0297922 1.08186)
(0.0174913 -0.0262741 1.07654)
(0.00375093 -0.0300899 1.08499)
(0.00857398 -0.0287085 1.06838)
(0.0306236 -0.0463176 1.09136)
(0.00239673 -0.0292393 1.06499)
(0.016248 -0.0367529 1.06518)
(0.025089 -0.054476 1.0921)
(0.0209216 -0.0481254 1.08031)
(0.00540063 -0.0360404 1.06624)
(0.0261734 -0.049112 1.09092)
(0.0160718 -0.0390851 1.06199)
(0.00652496 -0.00921812 1.00474)
(0.00647247 -0.0114524 1.01609)
(0.0246969 -0.0277663 1.01441)
(0.0178163 -0.0217511 1.01367)
(0.00749995 -0.0101996 1.00461)
(0.0052635 -0.0141745 1.00923)
(0.0116265 -0.0162528 1.01211)
(0.0104087 -0.015895 1.01433)
(-0.000406166 -0.00192263 1.02991)
(-0.0210046 0.00545874 1.03984)
(-0.000599939 -0.0209682 1.04577)
(-0.00189626 -0.010354 1.04436)
(-0.00629923 -0.00285867 1.03357)
(-0.0115114 0.00598154 1.0324)
(0.00176916 -0.013196 1.04536)
(-0.00245083 -0.0131509 1.04522)
(0.0518169 -0.051383 1.04448)
(0.0346516 -0.0461779 1.05045)
(0.0661995 -0.0783651 1.08464)
(0.0685332 -0.0653147 1.06888)
(0.0483685 -0.0541154 1.04276)
(0.0419535 -0.0417417 1.04713)
(0.0595856 -0.0618286 1.06336)
(0.0552208 -0.0664253 1.06689)
(0.031838 -0.0362366 1.02738)
(0.0174947 -0.0285311 1.0407)
(0.0560777 -0.0614289 1.05248)
(0.0462726 -0.0486894 1.04798)
(0.0306384 -0.0347795 1.02678)
(0.0236332 -0.0300005 1.03051)
(0.0387001 -0.0511705 1.04463)
(0.0395525 -0.0506134 1.0486)
(0.00478111 -0.0102954 1.01779)
(0.0249132 -0.0274996 1.01445)
(0.0166932 -0.0198082 1.01382)
(0.00963936 -0.0177308 1.03006)
(0.00921167 -0.0160199 1.0283)
(0.0122651 -0.022341 1.0186)
(0.0120085 -0.0185469 1.02867)
(0.0144022 -0.0206984 1.01809)
(0.00135965 -0.0105494 1.01889)
(0.00655531 -0.0153575 1.03244)
(0.00725047 -0.02066 1.0355)
(0.0211436 -0.027726 1.01873)
(0.00664068 -0.0152492 1.02617)
(0.00757554 -0.0195706 1.0316)
(0.0211702 -0.0244154 1.02962)
(0.0145378 -0.0301317 1.03744)
(0.0326674 -0.0341877 1.02495)
(0.0262069 -0.0344648 1.02661)
(0.0181262 -0.0281001 1.04215)
(0.0549533 -0.0590688 1.05511)
(0.0445148 -0.0419837 1.03262)
(0.0223749 -0.0296122 1.02808)
(0.0422757 -0.041157 1.0313)
(0.025571 -0.0348016 1.03065)
(0.0297987 -0.0332857 1.02829)
(0.0503105 -0.0572872 1.05544)
(0.0169304 -0.0273163 1.04704)
(0.0237773 -0.0368779 1.0482)
(0.0315396 -0.0353451 1.03284)
(0.0310901 -0.0351884 1.03365)
(0.0249708 -0.0381035 1.0486)
(0.0250145 -0.0367537 1.04664)
(0.0523409 -0.0421516 1.11778)
(0.0667117 -0.0590678 1.09532)
(0.028735 -0.0275169 1.0995)
(0.0516477 -0.053166 1.08918)
(0.0452607 -0.0572238 1.11072)
(0.0463774 -0.0535176 1.10192)
(0.0483868 -0.0450262 1.11321)
(0.0386442 -0.0485828 1.1057)
(0.0815638 -0.0621802 1.09471)
(0.0886222 -0.0710706 1.10566)
(0.041172 -0.046075 1.06528)
(0.0834367 -0.0753396 1.07488)
(0.0718832 -0.0662179 1.09011)
(0.0589227 -0.0602827 1.08145)
(0.0750419 -0.0657534 1.08909)
(0.0450307 -0.0549796 1.07285)
(0.00394686 -0.00283792 1.08056)
(0.00723909 -0.0208377 1.0574)
(-0.0131464 0.0146513 1.0613)
(0.00310897 -0.0169814 1.05323)
(-0.000393202 -0.0118098 1.06088)
(-0.00172123 -0.00743584 1.05803)
(0.00116164 -0.00578943 1.06438)
(-0.0108966 0.00223251 1.05288)
(0.0519726 -0.0471349 1.06989)
(0.0745789 -0.0666541 1.05873)
(0.0254855 -0.0318724 1.04998)
(0.0501205 -0.0548267 1.05159)
(0.0466527 -0.0509542 1.06596)
(0.0427095 -0.0495552 1.06481)
(0.045534 -0.0442622 1.05743)
(0.0256374 -0.0374337 1.04882)
(0.0617534 -0.0598992 1.09988)
(0.0232598 -0.0337166 1.08225)
(0.051841 -0.0517283 1.09555)
(0.0657062 -0.060101 1.07867)
(0.0593417 -0.059957 1.09484)
(0.0476905 -0.0587693 1.08944)
(0.070342 -0.0641921 1.07983)
(0.0492818 -0.056655 1.08861)
(0.0569803 -0.0561873 1.0909)
(0.0496341 -0.0573415 1.07292)
(0.0251227 -0.0352183 1.05969)
(0.0237662 -0.0301016 1.07728)
(0.0437499 -0.0517748 1.09253)
(0.0568605 -0.0627035 1.07843)
(0.029905 -0.0346289 1.07665)
(0.0261989 -0.0406529 1.06376)
(0.0205284 -0.0271505 1.08579)
(0.0453261 -0.0488125 1.08087)
(0.0620504 -0.0598697 1.06697)
(0.018599 -0.0301209 1.05381)
(0.0205439 -0.0342816 1.07341)
(0.0368507 -0.0476362 1.0799)
(0.0240379 -0.0300889 1.06124)
(0.0495177 -0.0565744 1.06936)
(0.0122764 -0.0219026 1.07705)
(0.00947412 -0.0208155 1.0473)
(0.0340928 -0.0464419 1.05338)
(0.0102108 -0.0276959 1.05567)
(0.0217207 -0.0353706 1.06567)
(0.0164492 -0.0289043 1.05865)
(0.0246388 -0.0363602 1.0621)
(0.0320174 -0.043938 1.05459)
(-0.00857994 0.00477498 1.0043)
(-0.0135572 0.0117194 1.01092)
(-0.0106442 0.00291504 1.01226)
(-0.0258263 0.0177084 1.01347)
(-0.0177289 0.0120673 1.00667)
(-0.0165075 0.0128928 1.01132)
(-0.0168478 0.0135983 1.00556)
(-0.0164367 0.0125749 1.0077)
(-0.0193127 0.0190243 1.0237)
(-0.030793 0.0244403 1.04174)
(-0.0205869 0.0110037 1.04302)
(-0.0456848 0.0389599 1.04407)
(-0.0320379 0.0256322 1.03342)
(-0.0315218 0.0228464 1.04271)
(-0.023902 0.0276363 1.03347)
(-0.0292312 0.0268911 1.0468)
(-0.00487208 -0.00464099 1.02321)
(-0.00685305 -0.00481353 1.03606)
(0.00218402 -0.0143853 1.03614)
(-0.0160252 0.00763206 1.03504)
(-0.0059853 -0.00186911 1.02799)
(-0.00667454 -0.00800596 1.03573)
(0.000195212 -0.000296937 1.03449)
(-0.00459182 -0.00283539 1.04411)
(-0.0456981 0.0300787 1.02757)
(-0.0601456 0.0477234 1.04747)
(-0.041117 0.02754 1.03925)
(-0.0723502 0.0536009 1.05908)
(-0.0578264 0.041976 1.03967)
(-0.0575385 0.0376273 1.0456)
(-0.0511134 0.042912 1.04372)
(-0.052296 0.0397681 1.05196)
(-0.0248819 0.0202036 1.0177)
(-0.0156185 0.00765245 1.01504)
(-0.0387837 0.0264818 1.01946)
(-0.0479301 0.0353306 1.03733)
(-0.0206582 0.0221042 1.02033)
(-0.020192 0.0174035 1.01257)
(-0.0341349 0.0273795 1.02659)
(-0.0386511 0.0268454 1.02429)
(-0.0235914 0.019608 1.02379)
(-0.0478382 0.0342654 1.04538)
(-0.0189563 0.00642873 1.04106)
(-0.0152118 0.00496276 1.02063)
(-0.0244202 0.0180951 1.02174)
(-0.0235079 0.0253352 1.02957)
(-0.0144594 0.00452744 1.02965)
(-0.0202832 0.0123478 1.02931)
(-0.0137492 0.0108193 1.01859)
(-0.0337732 0.0272745 1.02191)
(-0.0385565 0.0351046 1.03955)
(-0.0248841 0.0198128 1.03438)
(-0.0235754 0.0118577 1.02409)
(-0.0348268 0.026092 1.02411)
(-0.0284582 0.0188242 1.03183)
(-0.0370732 0.0306268 1.03396)
(-0.0135019 0.00783279 1.0204)
(-0.0249875 0.0184302 1.04708)
(-0.0451078 0.0365495 1.04745)
(-0.0176853 0.0120111 1.04145)
(-0.0125009 0.0106941 1.03024)
(-0.0273387 0.0127596 1.03828)
(-0.0165895 0.0124372 1.03135)
(-0.031599 0.0211838 1.03989)
(0.012029 -0.0133812 1.05216)
(-0.00774581 -0.00377207 1.05355)
(0.00363356 -0.00868604 1.07151)
(-0.0135053 0.00741921 1.04923)
(0.00437725 -0.0063597 1.04568)
(0.00146965 -0.00915938 1.05453)
(-0.00539435 -0.00286491 1.05962)
(-0.00485898 -0.00761114 1.05807)
(-0.0223229 0.0142963 1.05787)
(-0.0322843 0.0262837 1.05676)
(-0.0332607 0.0232809 1.06751)
(-0.0463072 0.0371718 1.05905)
(-0.0261534 0.0226154 1.04766)
(-0.0272535 0.0201087 1.05468)
(-0.0316715 0.0306367 1.06013)
(-0.0322403 0.024272 1.06538)
(-0.00799224 -0.00075866 1.09266)
(-0.0309922 0.0164432 1.08694)
(-0.021368 0.00692852 1.10829)
(-0.0398132 0.0252141 1.09403)
(-0.0191862 0.0127803 1.09325)
(-0.0219321 0.00766319 1.09324)
(-0.0250531 0.0174685 1.11396)
(-0.0242025 0.0139617 1.10521)
(-0.0380047 0.0302448 1.05511)
(-0.0620808 0.0476829 1.06163)
(-0.0565154 0.0408151 1.0792)
(-0.0698077 0.0522531 1.05768)
(-0.0487134 0.0430432 1.05919)
(-0.0555086 0.0405487 1.06714)
(-0.0544528 0.0443294 1.06784)
(-0.0595814 0.0434583 1.0693)
(-0.013598 0.00577836 1.04719)
(-0.00814744 0.0044355 1.06831)
(-0.0195827 0.0156406 1.04688)
(-0.0391006 0.0308309 1.05314)
(-0.017172 0.0132836 1.05272)
(-0.0184678 0.0109549 1.06595)
(-0.0344206 0.0226879 1.05486)
(-0.0270426 0.0165834 1.05463)
(-0.0179303 0.00664534 1.06337)
(-0.0409656 0.0302617 1.05877)
(-0.027161 0.012564 1.07467)
(-0.00896592 -0.0015729 1.07432)
(-0.0163316 0.00752362 1.05972)
(-0.0326531 0.0278055 1.06251)
(-0.016749 0.00451418 1.07735)
(-0.0239495 0.018413 1.07413)
(-0.0167092 0.00865653 1.08623)
(-0.0280515 0.0201422 1.0623)
(-0.0464111 0.0395803 1.05999)
(-0.0441938 0.036543 1.09449)
(-0.0260234 0.0160873 1.07084)
(-0.0285921 0.0183744 1.05943)
(-0.03581 0.0300387 1.0759)
(-0.0467346 0.0361676 1.07394)
(-0.0136282 0.00280647 1.08193)
(-0.0448871 0.0333349 1.08493)
(-0.0469893 0.0356766 1.06618)
(-0.0299997 0.0190625 1.08308)
(-0.0305821 0.0212247 1.09513)
(-0.0385244 0.024096 1.07741)
(-0.0293156 0.0264068 1.08021)
(-0.048361 0.0340017 1.06938)
(0.00695362 -0.0101595 1.00473)
(0.0131031 -0.0205004 1.01094)
(0.00250089 -0.000239889 0.994804)
(0.0248424 -0.0289612 1.0156)
(0.0144952 -0.0167553 1.00263)
(0.0106707 -0.0026964 0.990951)
(0.00775096 -0.0164344 1.01024)
(0.011555 -0.0117758 1.0077)
(0.00718727 -0.0404332 1.0411)
(-0.00247529 -0.0879425 1.07502)
(-0.0119219 -0.0309094 1.02091)
(0.0268491 -0.0789376 1.0892)
(0.00315538 -0.0625961 1.0491)
(0.000328899 -0.0421407 1.02755)
(0.00289825 -0.0606388 1.04325)
(0.00300728 -0.0665146 1.0518)
(0.00102945 -0.00751321 1.00494)
(0.0216592 -0.0139904 1.00599)
(0.0057619 0.000770132 0.99089)
(0.014871 -0.0266281 1.01173)
(0.0134232 -0.0156854 1.00146)
(0.0143214 -0.00698433 0.998249)
(0.00940022 -0.0195481 1.00286)
(0.00818606 -0.016733 0.999588)
(0.048154 -0.0558345 1.04625)
(0.0538863 -0.0892029 1.0697)
(0.0363493 -0.0590671 1.03669)
(0.0580647 -0.0977862 1.11414)
(0.0563047 -0.0702095 1.06695)
(0.0425052 -0.0669777 1.04794)
(0.0606248 -0.0644541 1.05961)
(0.0461483 -0.070128 1.05757)
(0.0176445 -0.0311409 1.01727)
(0.0113771 -0.0149414 1.00589)
(0.0339267 -0.0371987 1.02392)
(0.0421924 -0.0565006 1.04808)
(0.00770992 -0.0336366 1.02461)
(0.0094413 -0.0194509 1.01047)
(0.0342512 -0.0492138 1.03795)
(0.0233742 -0.0319497 1.01742)
(0.0175655 -0.00897698 0.999092)
(0.025593 -0.05236 1.04256)
(0.000774654 -0.043664 1.0492)
(0.00777064 -0.013859 1.01515)
(0.0131781 -0.0273828 1.02515)
(0.00606977 -0.0339616 1.03572)
(0.00795531 -0.0139191 0.999596)
(0.0131191 -0.0363882 1.02157)
(0.00949606 -0.0144918 0.995889)
(0.0314799 -0.0342714 1.02061)
(0.0364222 -0.0522243 1.03828)
(0.0270518 -0.0427504 1.0248)
(0.0148824 -0.0210789 1.00473)
(0.0272733 -0.0331309 1.02277)
(0.0269225 -0.0429666 1.0247)
(0.0319408 -0.0500891 1.03787)
(0.00568085 -0.0137148 0.999294)
(0.0237448 -0.036773 1.01674)
(0.03877 -0.0432508 1.04913)
(-0.00552038 -0.0371587 1.00927)
(0.0206617 -0.0193312 1.00147)
(0.0244799 -0.0327638 1.02335)
(0.015021 -0.0197001 1.0011)
(0.0239823 -0.0274056 1.01797)
(0.0466846 -0.0436383 1.1426)
(0.0379562 -0.0585627 1.14902)
(0.0261612 -0.0801174 1.14566)
(0.0691168 -0.0332863 1.13935)
(0.0313793 -0.0682537 1.14622)
(0.0297525 -0.0688186 1.13458)
(0.0545393 -0.0537852 1.15547)
(0.0407427 -0.0693353 1.14235)
(0.022195 -0.0560567 1.13335)
(-0.0150949 -0.0581057 1.10263)
(0.00841261 -0.0534126 1.11503)
(0.0269577 -0.0702884 1.10738)
(0.0207223 -0.0533152 1.12479)
(0.000178237 -0.0566626 1.1002)
(0.0334597 -0.0596669 1.11956)
(0.0266251 -0.0564632 1.1104)
(0.0354847 -0.0510807 1.14906)
(0.0249126 -0.0504021 1.12022)
(0.0346935 -0.0521418 1.13948)
(0.0561196 -0.0638637 1.11905)
(0.0385488 -0.053002 1.13741)
(0.0252636 -0.0561708 1.12483)
(0.0538124 -0.0587541 1.14328)
(0.0508163 -0.0587332 1.12589)
(0.0915447 -0.0324632 1.14986)
(0.0559565 -0.074676 1.09267)
(0.0710925 -0.0754585 1.12144)
(0.0777043 -0.0825368 1.12632)
(0.0623944 -0.0850354 1.13871)
(0.0655158 -0.0618008 1.12218)
(0.0869845 -0.0828342 1.14946)
(0.0775201 -0.089376 1.13319)
(0.0360787 -0.0568302 1.14299)
(0.0389153 -0.0500492 1.14658)
(0.0633643 -0.0604437 1.14177)
(0.0430423 -0.064131 1.12195)
(0.0451332 -0.0646137 1.13004)
(0.0466094 -0.0474026 1.13402)
(0.0453342 -0.0698264 1.12598)
(0.0435905 -0.0647 1.12402)
(0.0224963 -0.0550151 1.13666)
(0.0334991 -0.0666456 1.111)
(0.0199422 -0.0551961 1.12059)
(0.0330318 -0.0621791 1.13535)
(0.0333536 -0.0603653 1.12932)
(0.033812 -0.064273 1.11595)
(0.0325242 -0.0541695 1.14242)
(0.0244211 -0.0521566 1.11895)
(0.0387993 -0.0625841 1.14579)
(0.0798231 -0.0505692 1.14863)
(0.0538825 -0.0635874 1.09952)
(0.0684319 -0.0687011 1.13895)
(0.0501033 -0.0643265 1.13685)
(0.061171 -0.0694671 1.12383)
(0.0591568 -0.0609857 1.13624)
(0.0596231 -0.0520326 1.12043)
(0.0409707 -0.0559292 1.13407)
(0.0677506 -0.0646091 1.12043)
(0.0482763 -0.0601882 1.1043)
(0.0370128 -0.0557687 1.1128)
(0.0459347 -0.0623566 1.12652)
(0.0443485 -0.0581512 1.11508)
(0.0413204 -0.0571357 1.1265)
(0.0383742 -0.0588762 1.1084)
(0.00776705 -0.00175282 1.00517)
(0.00490454 -0.0198419 1.01019)
(0.00258211 -0.00434163 0.999443)
(0.000349923 -0.0158017 1.01235)
(0.00493452 -0.0122233 1.00514)
(0.00949332 -0.0070406 1.01109)
(0.00101727 -0.00978249 1.00399)
(0.000738099 -0.0117476 1.00537)
(-0.00989776 -0.0343977 1.02802)
(-0.0125954 -0.0422579 1.06826)
(-0.000708993 -0.0291937 1.03277)
(-0.0128543 -0.0300796 1.0552)
(-0.0104189 -0.0384711 1.04658)
(-0.00715482 -0.0319685 1.03231)
(-0.0025194 -0.0337963 1.04163)
(-0.0046377 -0.0359187 1.041)
(0.00173394 -0.00399991 1.00019)
(0.00158327 -0.0157189 1.01591)
(0.00104265 -0.00571246 1.00313)
(-0.00193067 -0.00440935 1.01039)
(0.00409057 -0.0098194 1.00729)
(0.00637009 -0.0105986 1.00341)
(0.000946877 -0.00564308 1.00433)
(0.00177007 -0.00585923 1.00576)
(-0.016738 -0.00769802 1.0199)
(-0.0201578 -0.00728635 1.04645)
(-0.0112657 0.000503759 1.02142)
(-0.0282486 0.00965097 1.03646)
(-0.0159006 -0.00506418 1.03148)
(-0.0156142 -0.0038968 1.02839)
(-0.0127422 0.00258119 1.02777)
(-0.0153452 0.00260392 1.0309)
(-0.00620989 -0.0287399 1.0211)
(0.00381739 -0.0111362 1.00605)
(-0.00289693 -0.0203688 1.02069)
(-0.00944757 -0.0251494 1.03879)
(0.00102299 -0.0234117 1.01687)
(0.00608092 -0.0159279 1.01071)
(-0.00646735 -0.0270061 1.03176)
(0.0012296 -0.018772 1.02361)
(0.00829676 -0.0243982 1.02388)
(-0.00593309 -0.0247451 1.03752)
(0.00894183 -0.021637 1.01766)
(0.00575219 -0.0100722 1.00468)
(0.000624193 -0.0246131 1.0218)
(0.0033699 -0.0295597 1.02493)
(0.00679658 -0.0161513 1.01066)
(0.00280638 -0.0218238 1.02044)
(0.00357344 -0.00902189 1.00446)
(-0.00747605 -0.00720338 1.01136)
(-0.0126627 -0.0153281 1.03297)
(-0.00284536 -0.00383492 1.01312)
(-0.000627405 -0.0118732 1.01052)
(-0.00541593 -0.0127564 1.01889)
(-0.00317376 -0.0112577 1.01806)
(-0.00723781 -0.0122635 1.02064)
(0.00314016 -0.0106528 1.00701)
(-0.00443562 -0.00384735 1.01605)
(-0.0108285 -0.0183137 1.03648)
(0.000915513 -0.0177219 1.01928)
(0.00746213 -0.0148888 1.00721)
(-0.00325338 -0.0116044 1.01665)
(0.000892108 -0.0178142 1.01685)
(-0.0120285 -0.0164207 1.03277)
(0.0374751 -0.0548113 1.13874)
(0.0321193 -0.0574436 1.13403)
(0.0287427 -0.0568113 1.13482)
(0.0233371 -0.0384687 1.11485)
(0.0292561 -0.0590474 1.13634)
(0.0346155 -0.058643 1.13457)
(0.0244788 -0.0481146 1.12455)
(0.0294626 -0.0497657 1.12426)
(0.0317306 -0.0485378 1.13355)
(0.0370403 -0.0551995 1.12832)
(0.035746 -0.0467688 1.11047)
(0.0175337 -0.0327635 1.10451)
(0.0325986 -0.0516018 1.12424)
(0.0326085 -0.0535541 1.13028)
(0.0262884 -0.0366575 1.10567)
(0.0291654 -0.0398007 1.10746)
(0.0137527 -0.0536771 1.11382)
(0.0244557 -0.0485746 1.0984)
(0.00597488 -0.0562976 1.09188)
(-0.0029529 -0.0319461 1.06287)
(0.0168145 -0.0479414 1.09869)
(0.0203749 -0.0493225 1.10781)
(0.00488145 -0.0404679 1.0832)
(0.00854262 -0.0419945 1.08559)
(0.00253924 -0.0194803 1.08342)
(-0.00750093 -0.0153481 1.08128)
(-0.0129542 -0.0117974 1.05038)
(-0.0185145 0.00661861 1.04425)
(-0.00450983 -0.0164301 1.08002)
(-0.00132658 -0.0202969 1.08318)
(-0.0122138 -0.00169519 1.05734)
(-0.0122659 -0.00422359 1.06163)
(0.0322646 -0.0481548 1.12898)
(0.0287788 -0.0504455 1.12281)
(0.0188508 -0.037969 1.1085)
(0.0184854 -0.0321363 1.10395)
(0.0270573 -0.0418966 1.11266)
(0.0275718 -0.0440021 1.11491)
(0.0203932 -0.0370951 1.10839)
(0.0225801 -0.0380753 1.11196)
(0.0311532 -0.0564424 1.12992)
(0.0202421 -0.0368632 1.1054)
(0.0343486 -0.0480217 1.12085)
(0.0287837 -0.0535701 1.1318)
(0.0301403 -0.0437172 1.11452)
(0.0283743 -0.0396025 1.10462)
(0.0350866 -0.0493028 1.12747)
(0.0294414 -0.0464811 1.11243)
(0.0132533 -0.0445052 1.09878)
(0.00545166 -0.0309297 1.08561)
(0.00556962 -0.0215234 1.08479)
(-0.00655965 -0.0230308 1.0669)
(0.0103719 -0.0391278 1.09384)
(0.0106504 -0.0314871 1.09004)
(0.00864603 -0.0323735 1.08517)
(0.00878237 -0.0259863 1.08424)
(0.0205783 -0.0454287 1.10364)
(-0.00272593 -0.0240453 1.06814)
(0.00690372 -0.0233522 1.08619)
(0.0199973 -0.0416866 1.09595)
(0.0211169 -0.0398061 1.09454)
(0.0123394 -0.0359926 1.0928)
(0.0168778 -0.0376058 1.09494)
(0.00601539 -0.0329199 1.08479)
(-0.0106433 0.0031662 1.10575)
(-0.0146104 0.0132805 1.09041)
(0.000709753 -0.00239563 1.0927)
(0.00812266 -0.0126552 1.08399)
(-0.0104508 0.00429379 1.10451)
(-0.0103132 0.00279001 1.09488)
(0.00686513 -0.00975528 1.09427)
(0.000636163 -0.00521481 1.08973)
(-0.0206514 0.0180701 1.06716)
(-0.0191533 0.0199208 1.04969)
(-0.00710602 0.00457089 1.04576)
(-0.00374694 -0.00137016 1.04422)
(-0.0152861 0.0146604 1.0629)
(-0.0173764 0.0167851 1.05298)
(-0.00830609 0.00266571 1.0495)
(-0.00827056 0.00240724 1.0462)
(0.00948789 -0.0141086 1.06636)
(0.00864776 -0.0118679 1.0469)
(0.021578 -0.0249998 1.0453)
(0.0246021 -0.0321857 1.04379)
(0.0128712 -0.0146083 1.05917)
(0.00676271 -0.0106625 1.05488)
(0.0199694 -0.0246842 1.04527)
(0.0163424 -0.0210485 1.04085)
(0.0261993 -0.0296091 1.06644)
(0.0214992 -0.0217715 1.04669)
(0.0322374 -0.0392452 1.04791)
(0.0489929 -0.0453491 1.04723)
(0.0273582 -0.0284407 1.06059)
(0.0247306 -0.0274333 1.05577)
(0.036175 -0.0426792 1.04901)
(0.0295572 -0.0346466 1.0421)
(-0.013122 0.00682969 1.0844)
(0.00444684 -0.00482239 1.08168)
(0.00744015 -0.0119127 1.08434)
(0.00430125 -0.00871066 1.06244)
(-0.00501636 -0.00407152 1.07089)
(0.0040247 -0.00973174 1.07788)
(0.000807844 -0.0041894 1.07228)
(0.00948095 -0.0120081 1.07385)
(-0.0114795 0.0117073 1.07753)
(0.00291012 -0.0056892 1.05616)
(-0.00381938 0.000804436 1.05618)
(-0.000735932 -0.000164585 1.07774)
(-0.00231494 -0.00378872 1.06649)
(-0.00713784 -0.00429439 1.0587)
(-0.00197037 0.00168622 1.06935)
(-0.00404921 0.00153977 1.0627)
(0.0106801 -0.0199502 1.0691)
(0.0212939 -0.0287493 1.07382)
(0.0111795 -0.020189 1.05056)
(0.0283499 -0.0368511 1.04908)
(0.016741 -0.0242376 1.07011)
(0.0177998 -0.0225189 1.06719)
(0.0227907 -0.0200384 1.05905)
(0.0174152 -0.0237615 1.06026)
(0.00995239 -0.0132075 1.06376)
(0.0238818 -0.0279693 1.04068)
(0.0130506 -0.0187468 1.04498)
(0.00647175 -0.014239 1.04378)
(0.00977945 -0.0171719 1.05682)
(0.0154662 -0.0209589 1.0586)
(0.00606262 -0.0143424 1.04916)
(0.016602 -0.0171235 1.04965)
(0.0247059 -0.0199899 1.0389)
(0.00720236 -0.0122789 1.03781)
(0.00698587 -0.00705527 1.02378)
(0.0284594 -0.0274755 1.03771)
(0.0159055 -0.023572 1.03851)
(0.00689545 -0.00959481 1.03231)
(0.01629 -0.0202484 1.03139)
(0.00610657 -0.0112148 1.02656)
(-0.00425669 0.00140801 1.03494)
(-0.0182542 0.0165733 1.04252)
(-0.0133836 0.0156147 1.02308)
(-0.00265784 -0.00215079 1.04166)
(-0.00988971 0.00316125 1.04142)
(-0.0145185 0.0170936 1.03286)
(-0.00754451 0.000838552 1.03692)
(-0.0151449 0.0121089 1.02586)
(-0.00308377 0.00194432 1.01102)
(-0.00951087 0.0105427 1.01007)
(-0.00592046 0.00468122 1.00235)
(0.000144952 -0.0012211 1.01297)
(-0.00741764 0.00218361 1.00972)
(-0.00725503 0.00954971 1.00505)
(-0.00509733 -0.00102155 1.00888)
(-0.00675377 0.00500094 1.00191)
(0.0381518 -0.0365636 1.04045)
(0.0225184 -0.0225693 1.04339)
(0.020149 -0.0195276 1.02651)
(0.0465865 -0.0443738 1.04128)
(0.0314442 -0.0392219 1.04207)
(0.0238041 -0.0236703 1.03351)
(0.0298271 -0.0336084 1.03425)
(0.0197562 -0.0231415 1.03094)
(0.00522185 -0.0164661 1.04117)
(0.00247423 -0.0112296 1.02362)
(0.0231684 -0.0293143 1.04029)
(0.0118509 -0.021224 1.04333)
(0.00346935 -0.0103209 1.03526)
(0.00390685 -0.0115357 1.02633)
(0.0186375 -0.0218018 1.04306)
(0.0147365 -0.0167119 1.03279)
(-0.00452232 0.00298462 1.031)
(0.001616 -0.00402075 1.03154)
(-0.00995478 0.0130551 1.01543)
(-0.00338431 0.00127142 1.01578)
(-0.00415041 0.000590468 1.02375)
(-0.00653481 8.67154e-05 1.02867)
(-0.00582971 0.00598611 1.02218)
(-0.00899912 0.00461407 1.02274)
(0.00150041 -0.00887286 1.0184)
(0.0225064 -0.0283789 1.03172)
(0.0128122 -0.0170272 1.03718)
(0.00886109 -0.013361 1.02065)
(0.0133067 -0.0130778 1.02457)
(0.0140617 -0.0181967 1.0284)
(0.00701656 -0.0141561 1.02566)
(0.012885 -0.0190493 1.02879)
(-0.00552977 0.000834743 1.01376)
(-0.000680015 -0.00309005 1.01357)
(-0.000802466 -0.00401549 1.0271)
(-0.0104189 0.00917213 1.01044)
(-0.0070028 0.000700373 1.01438)
(0.00147738 -0.0043021 1.01716)
(-0.00499114 0.000471462 1.02057)
(-0.000525405 0.000298183 1.02284)
(0.000658292 0.00158584 1.00103)
(-0.00547879 0.0148983 1.00912)
(-0.00245046 0.00300974 1.00069)
(7.10735e-05 0.00143755 1.00702)
(-0.00414677 0.00515101 1.00517)
(-0.00354296 0.00493978 1.00496)
(-0.00230993 0.00463905 1.00637)
(-0.00257189 0.00275188 1.007)
(-0.019214 0.0367869 1.02397)
(-0.0432821 0.0538556 1.04806)
(-0.0355576 0.0332752 1.01991)
(-0.0272419 0.0368598 1.04996)
(-0.0329467 0.043052 1.03929)
(-0.0320737 0.0392492 1.04311)
(-0.0363693 0.0350076 1.04409)
(-0.0339615 0.0361038 1.03842)
(-0.00453123 0.00375719 1.00106)
(-0.0220823 0.0175261 1.00671)
(-0.00759075 0.00556003 0.999735)
(-0.0114345 0.00738054 1.00824)
(-0.0139105 0.00901488 1.00776)
(-0.0127826 0.010658 1.00485)
(-0.0145737 0.0107638 1.00807)
(-0.0132587 0.008365 1.00438)
(0.00321089 -0.00143573 1.01715)
(-0.0123344 0.016585 1.04002)
(-0.00491145 0.00209112 1.01855)
(0.00787396 -0.00835076 1.03442)
(-0.00346866 0.00129763 1.02447)
(-0.00561329 0.00593138 1.02608)
(-0.000661143 0.0013337 1.02799)
(-0.00316953 0.00326789 1.03105)
(-0.0165134 0.020194 1.01889)
(-0.00912871 0.00673512 1.00619)
(-0.00442901 0.00543085 1.01228)
(-0.0212701 0.0208153 1.03449)
(-0.0138983 0.0173697 1.02387)
(-0.00715152 0.00762102 1.0091)
(-0.0098176 0.0157214 1.0211)
(-0.00659256 0.0078278 1.01214)
(-0.0165876 0.0196113 1.01902)
(-0.0215158 0.0227481 1.03341)
(-0.0243151 0.0253869 1.01822)
(-0.00810792 0.00803477 1.00341)
(-0.0146288 0.0162873 1.02372)
(-0.0227838 0.0223707 1.02511)
(-0.0154022 0.0163294 1.00512)
(-0.0260717 0.0224653 1.01617)
(-0.0077502 0.00671059 1.00674)
(-0.00125314 0.00469634 1.01568)
(-0.0178366 0.0173342 1.03984)
(-0.00996856 0.0074329 1.01872)
(-0.00483742 0.00455087 1.00514)
(-0.00220455 0.00465304 1.01433)
(-0.0127416 0.00804451 1.01658)
(-0.00867428 0.0083135 1.01937)
(-0.00708648 0.00613001 1.00645)
(-0.0134386 0.00906503 1.01778)
(-0.0233165 0.0212814 1.03924)
(-0.0248686 0.0202555 1.01547)
(-0.0137979 0.0104041 1.00964)
(-0.0138962 0.0120249 1.01355)
(-0.0279483 0.0210177 1.02307)
(-0.0212806 0.0177289 1.02128)
(0.0166239 -0.00244311 1.1233)
(-0.00165278 0.00809673 1.12365)
(-0.000621568 0.0174558 1.1103)
(0.011421 -0.0046815 1.10697)
(0.00834983 -0.00549611 1.12122)
(0.00442853 0.0130277 1.12454)
(0.010642 -4.40741e-06 1.10587)
(0.00227677 0.0132435 1.10961)
(-0.0147412 0.0196217 1.12013)
(-0.0280363 0.0286407 1.12418)
(-0.0417031 0.0454321 1.10552)
(-0.0158275 0.0131447 1.09612)
(-0.0146538 0.0129811 1.11644)
(-0.023026 0.0355373 1.12959)
(-0.0132714 0.0158558 1.09823)
(-0.0257649 0.0348247 1.10942)
(-0.0266762 0.0376905 1.09569)
(-0.0548072 0.0529076 1.09419)
(-0.0583057 0.0566263 1.08385)
(-0.0307544 0.0365211 1.06863)
(-0.0321714 0.0405441 1.09236)
(-0.0412085 0.049597 1.09014)
(-0.0316918 0.0387863 1.07543)
(-0.0432225 0.0468312 1.08338)
(0.0118153 -0.0055202 1.08205)
(-0.00030783 -0.000228526 1.07259)
(-0.0108805 0.0146014 1.06202)
(0.00766892 -0.0121968 1.05422)
(0.0103637 -0.0110171 1.07482)
(0.00369705 0.00187422 1.07128)
(0.00837549 -0.00894112 1.05701)
(-0.00183159 0.00945547 1.06004)
(-0.000663868 0.00361781 1.12347)
(-0.0133062 0.016761 1.10175)
(0.0127545 -0.00616441 1.10008)
(-0.00214428 0.00191484 1.09247)
(0.000764015 0.00693601 1.10516)
(-0.00549034 0.0122388 1.10359)
(0.000842823 0.00332033 1.10865)
(0.00325931 0.00706222 1.09589)
(-0.011768 0.0274955 1.12433)
(-0.00943653 0.0144853 1.09086)
(-0.036585 0.0453737 1.10714)
(-0.0186206 0.0379548 1.11105)
(-0.0145508 0.0265962 1.10612)
(-0.0117556 0.0177677 1.10282)
(-0.0254028 0.0336987 1.10913)
(-0.0271143 0.0284215 1.09551)
(-0.00686085 0.0221751 1.08876)
(0.0082929 -0.00759092 1.08276)
(-0.00362846 0.00175066 1.08111)
(-0.0109412 0.012909 1.06584)
(-0.00798413 0.0146994 1.0821)
(-0.00307518 0.00991335 1.08871)
(-0.0113945 0.0175475 1.08149)
(-0.00114078 0.0102861 1.08095)
(-0.0181802 0.0326017 1.10073)
(-0.0223761 0.0320508 1.06555)
(-0.01363 0.0185817 1.08194)
(-0.0354969 0.0451765 1.09621)
(-0.0284411 0.035437 1.08779)
(-0.0185838 0.0266334 1.07929)
(-0.0236535 0.0324017 1.08876)
(-0.0238454 0.0245322 1.07829)
(0.00481858 -0.0205058 1.00821)
(0.000264301 -0.00533365 1.00429)
(-0.0126752 -0.0439817 1.01204)
(-0.00796033 -0.0353717 1.04193)
(0.00447326 -0.0123642 1.01451)
(0.000892061 -0.00774473 1.00284)
(-0.00121684 -0.0155837 1.01184)
(-0.00522995 -0.0133085 1.00463)
(-0.0042039 -0.00241218 1.00175)
(-0.00512929 -0.000303537 1.00249)
(-0.00956881 -0.0062473 1.01697)
(-0.012755 0.00175107 1.00874)
(-0.00275671 -0.00276904 1.00497)
(-0.00488893 -0.00237361 1.00277)
(-0.00860059 -0.00343913 1.00611)
(-0.0103858 -0.00318924 1.00575)
(-0.0260867 -0.0477568 1.04652)
(-0.00954913 -0.0248886 1.0378)
(-0.0118075 -0.0485842 1.08791)
(-0.0122509 -0.0321283 1.05943)
(-0.00737147 -0.0315688 1.04108)
(-0.0143702 -0.0324489 1.0432)
(-0.00639012 -0.0336921 1.04891)
(-0.014947 -0.0317247 1.0516)
(-0.0154517 -0.0179812 1.04424)
(-0.0212436 0.00218431 1.01979)
(-0.0187441 -0.00860368 1.05225)
(-0.0163215 -0.00342571 1.03523)
(-0.0108328 -0.0056874 1.02481)
(-0.0174804 0.00298752 1.02665)