/*--------------------------------*- C++ -*----------------------------------*\
| =========                 |                                                 |
| \\      /  F ield         | OpenFOAM: The Open Source CFD Toolbox           |
|  \\    /   O peration     | Version:  2506                                  |
|   \\  /    A nd           | Website:  www.openfoam.com                      |
|    \\/     M anipulation  |                                                 |
\*---------------------------------------------------------------------------*/
FoamFile
{
    version     2.0;
    format      ascii;
    arch        "LSB;label=32;scalar=64";
    class       volScalarField;
    location    "1800";
    object      p;
}
// * * * * * * * * * * * * * * * * * * * * * * * * * * * * * * * * * * * * * //

dimensions      [0 2 -2 0 0 0 0];

internalField   nonuniform List<scalar> 
57600
(
-0.021013
-0.0641812
-0.0464243
-0.0510408
-0.0374447
-0.0476215
-0.044692
-0.0561845
-0.178067
-0.534703
-0.139714
-0.1939
-0.20283
-0.234015
-0.197477
-0.192953
-0.0547375
-0.0958425
-0.0484381
-0.0692076
-0.082611
-0.0829619
-0.0630904
-0.0576839
-0.0842565
-0.115466
-0.0591223
-0.0838495
-0.0897414
-0.0918361
-0.0726245
-0.0755158
-0.0944011
-0.0654258
-0.0740771
-0.13188
-0.106359
-0.0747025
-0.112841
-0.0848139
-0.100605
-0.158106
-0.157924
-0.0662506
-0.129109
-0.12995
-0.0999977
-0.133951
-0.0573771
-0.0755561
-0.11722
-0.0563873
-0.0742938
-0.0894249
-0.0778189
-0.0872066
-0.061571
-0.0730566
-0.112928
-0.119561
-0.0805831
-0.0865372
-0.10587
-0.0937832
-0.00237316
-0.0195744
0.00106991
-0.0218655
-0.00744532
-0.00942384
-0.00998285
-0.00964257
-0.0441773
-0.0621056
-0.0794889
-0.0578386
-0.0522372
-0.0606295
-0.0666805
-0.07875
-0.0301173
-0.183623
-0.374185
-0.108836
-0.0650186
-0.0761569
-0.0989439
-0.128109
-0.0474094
-0.0754019
-0.0846579
-0.0658651
-0.0610891
-0.0721697
-0.0702818
-0.0861659
-0.0305986
-0.0152757
-0.0284367
-0.0596943
-0.0397297
-0.0285047
-0.0439078
-0.0381886
-0.0367847
-0.0659147
-0.0737118
-0.0276645
-0.0451524
-0.0609881
-0.0400204
-0.0689777
-0.0301073
-0.0378685
-0.0694784
-0.0907877
-0.0533735
-0.0446956
-0.0742729
-0.0626073
-0.0353777
-0.115931
-0.0639295
-0.0963903
-0.0814779
-0.0951622
-0.0906393
-0.107471
-0.0118708
-0.0157276
-0.0587871
-0.0469884
-0.0252917
-0.0278183
-0.0464739
-0.0480139
-0.0191759
-0.0102616
-0.0844485
-0.0898169
-0.0408846
-0.0392511
-0.089265
-0.0886659
-0.166437
-0.250028
-0.49433
-0.206381
-0.20276
-0.262778
-0.258495
-0.249277
-0.0795145
-0.106207
-0.131896
-0.0902879
-0.0923606
-0.117722
-0.105747
-0.116194
-0.0311764
-0.0703726
-0.0612115
-0.0896286
-0.0665271
-0.0643296
-0.0650693
-0.0755548
-0.0286508
-0.107766
-0.11474
-0.0867653
-0.0653188
-0.0789207
-0.0821316
-0.11126
-0.123366
-0.0960266
-0.129289
-0.166966
-0.111835
-0.100019
-0.135972
-0.11355
-0.0971485
-0.187719
-0.135047
-0.187107
-0.159866
-0.185252
-0.177094
-0.171522
-0.503516
-0.163921
-0.171168
-0.207432
-0.200459
-0.23601
-0.225661
-0.205224
-0.0728613
-0.037651
-0.0578229
-0.0562919
-0.0485161
-0.0443239
-0.0551327
-0.0422126
-0.0692677
-0.0445049
-0.0238428
-0.051535
-0.0543761
-0.0410495
-0.0370462
-0.0267698
-0.137746
-0.062911
-0.0720082
-0.0757374
-0.0724727
-0.0751116
-0.0785754
-0.0732236
-0.115038
-0.126278
-0.113862
-0.0746943
-0.117041
-0.151834
-0.0890097
-0.118858
-0.106384
-0.0756036
-0.0643517
-0.0966628
-0.0976395
-0.0756877
-0.0913475
-0.0737136
-0.111455
-0.132707
-0.072964
-0.0745615
-0.0990723
-0.111691
-0.0834889
-0.0871974
-0.0721522
-0.0577802
-0.0648134
-0.0454143
-0.0770814
-0.0682099
-0.0618737
-0.0594087
-0.0160349
-0.0339561
-0.0123739
-0.0456816
-0.0320597
-0.0291428
-0.0286437
-0.0269092
-0.0465743
-0.0468662
-0.0403646
-0.0536271
-0.0502676
-0.0492275
-0.0523763
-0.0485531
-0.00864633
-0.0241031
-0.00765961
-0.0292514
-0.0198956
-0.0176921
-0.0174423
-0.017004
-0.0709928
-0.0599999
-0.052397
-0.077549
-0.0738552
-0.0652537
-0.0681291
-0.0631287
-0.0547219
-0.0236936
-0.0567546
-0.0654779
-0.0471258
-0.0365938
-0.0585973
-0.0520184
-0.0529707
-0.061145
-0.034651
-0.0210624
-0.0457075
-0.0510912
-0.0316412
-0.0381763
-0.0243758
-0.0552147
-0.0608673
-0.0414481
-0.0365294
-0.0500397
-0.0425789
-0.0577895
-0.0228029
-0.0404714
-0.0575462
-0.0353189
-0.0291735
-0.0377464
-0.0364269
-0.0458652
-0.0209724
-0.0770203
-0.0298454
-0.0918201
-0.0611237
-0.0628856
-0.0629013
-0.0616026
-0.0905584
-0.0852011
-0.0712088
-0.0772664
-0.0895175
-0.0885904
-0.0897472
-0.0853608
-0.0203214
-0.0479597
-0.0204049
-0.0553895
-0.0451184
-0.0441718
-0.0389567
-0.0394389
-0.100421
-0.0840136
-0.0920985
-0.110543
-0.0821703
-0.079896
-0.0813141
-0.0754399
-0.103431
-0.0502557
-0.0928484
-0.0913012
-0.10442
-0.0779983
-0.0987793
-0.090006
-0.106973
-0.0883567
-0.0734187
-0.0553642
-0.0888368
-0.0925077
-0.0552707
-0.0794963
-0.0505195
-0.0897946
-0.0826576
-0.0697997
-0.0827663
-0.0820423
-0.0744298
-0.0827149
-0.0538764
-0.0649294
-0.0788858
-0.0672767
-0.0669169
-0.0709175
-0.0692591
-0.0708387
-0.0459225
-0.0385398
-0.0524143
-0.0399691
-0.0454437
-0.0509401
-0.0453607
-0.0499989
-0.0270497
-0.0101101
-0.0330344
-0.0253238
-0.0223009
-0.0203541
-0.0290349
-0.0253751
-0.0589748
-0.0483148
-0.0666484
-0.0507956
-0.0606715
-0.0663752
-0.058058
-0.0620271
-0.0330126
-0.0263215
-0.0382271
-0.027289
-0.033166
-0.0380037
-0.0321044
-0.0374961
-0.0333715
-0.0514652
-0.038878
-0.0300155
-0.0365
-0.0446953
-0.031308
-0.042143
-0.0352263
-0.0325154
-0.0394419
-0.0584849
-0.0348664
-0.0343155
-0.0439295
-0.0363583
-0.049528
-0.0384819
-0.0319113
-0.0436071
-0.0431182
-0.0430595
-0.0450026
-0.039912
-0.0584591
-0.0492689
-0.0319653
-0.0372326
-0.0545817
-0.0503438
-0.04372
-0.0338579
-0.37129
-0.0358744
-0.189996
-0.172876
-0.0471749
-0.0902619
-0.272201
-0.109919
-0.00434706
0.000933598
-0.0185441
-0.0196193
0.00387373
0.00198053
-0.0139075
-0.00857507
-0.076026
-0.0407565
-0.0512697
-0.0554709
-0.0512187
-0.0486174
-0.0682033
-0.0484227
-0.103191
-0.0501337
-0.072301
-0.0764608
-0.0822219
-0.0693931
-0.104565
-0.0585832
-0.0145637
-0.0573442
-0.108448
-0.0336732
-0.0465993
-0.067274
-0.0499147
-0.0771272
-0.0132
-0.027355
-0.0241094
-0.0696582
-0.026446
-0.0202354
-0.0505789
-0.0291615
-0.141214
-0.134369
-0.0514342
-0.084014
-0.0928672
-0.100319
-0.0688008
-0.0624978
-0.0825554
-0.0593914
-0.0378889
-0.0338255
-0.049672
-0.0630035
-0.048559
-0.0464228
-0.0368721
-0.0256331
-0.0265043
-0.0272732
-0.0300556
-0.0256018
-0.0288878
-0.0237427
-0.0201127
-0.0180875
-0.0161237
-0.019676
-0.0192695
-0.0183358
-0.0189666
-0.0181028
-0.0147968
-0.0115348
-0.00563743
-0.011767
-0.0137022
-0.0104102
-0.0103771
-0.00709346
-0.0232885
-0.0204117
-0.0173536
-0.0231837
-0.0213497
-0.0193104
-0.0205114
-0.0188037
-0.0220532
-0.0215083
-0.023758
-0.0196867
-0.0215027
-0.0234158
-0.0215371
-0.0212193
-0.020045
-0.0188356
-0.0156245
-0.0191532
-0.0194453
-0.0193701
-0.0195496
-0.0175874
-0.0193138
-0.0229656
-0.0197808
-0.0155805
-0.0198002
-0.0198476
-0.0177563
-0.0202844
-0.0164075
-0.013203
-0.0191984
-0.0141359
-0.0160323
-0.0149302
-0.0157955
-0.0169828
-0.38392
-0.549698
-0.418665
-0.20632
-0.303236
-0.469432
-0.393268
-0.636038
-0.547235
-0.519754
-0.592713
-0.384048
-0.375492
-0.486735
-0.305159
-0.433404
-0.380657
-0.584042
-0.592696
-0.302377
-0.173886
-0.607069
-0.647679
-0.685073
-0.132823
-0.19174
-0.220168
-0.10598
-0.157037
-0.197398
-0.154728
-0.178984
-0.305729
-0.202412
-0.184857
-0.232001
-0.255644
-0.160642
-0.270702
-0.311329
-0.502143
-0.392142
-0.593274
-0.588144
-0.475552
-0.149371
-0.599385
-0.107422
-0.540049
-0.202435
-0.221457
-0.265308
-0.270717
-0.212853
-0.197545
-0.170118
-0.494486
-0.199369
-0.224737
-0.431738
-0.287798
-0.355802
-0.409096
-0.322438
-0.555723
-0.528091
-0.384939
-0.187365
-0.262357
-0.43426
-0.49981
-0.548054
-0.464734
-0.328987
-0.521473
-0.329718
-0.245058
-0.324929
-0.367851
-0.310296
-0.357125
-0.479528
-0.354671
-0.236799
-0.302153
-0.523263
-0.461373
-0.451684
-0.149519
-0.188481
-0.180399
-0.118452
-0.150012
-0.191339
-0.188267
-0.152892
-0.291733
-0.259113
-0.151451
-0.19683
-0.339434
-0.2479
-0.262384
-0.265869
-0.440272
-0.340927
-0.533188
-0.546396
-0.508164
-0.250572
-0.547471
-0.180572
-0.486423
-0.225818
-0.233325
-0.344449
-0.235196
-0.206415
-0.132668
-0.165172
-0.449994
-0.24695
-0.184048
-0.471843
-0.306306
-0.314327
-0.376287
-0.310981
-0.00614179
-0.0123764
-0.014727
-0.0151018
-0.0107333
-0.0127805
-0.0133652
-0.0145105
-0.016865
-0.0184314
-0.0183386
-0.0192308
-0.0178386
-0.0184414
-0.0186118
-0.0183527
-0.0233473
-0.0207897
-0.0288462
-0.024627
-0.0228885
-0.0233667
-0.0258171
-0.0250958
-0.0215885
-0.0218226
-0.023388
-0.0250441
-0.0225795
-0.0227488
-0.0247438
-0.0238207
-0.0156734
-0.0174567
-0.0192872
-0.0197133
-0.0177728
-0.0172296
-0.01926
-0.0199141
-0.0172857
-0.0199886
-0.0197124
-0.0193664
-0.0179163
-0.0183677
-0.0183139
-0.0189803
-0.0215237
-0.0206162
-0.0210182
-0.0240925
-0.0214063
-0.0201128
-0.022935
-0.0210851
-0.0220021
-0.0232327
-0.0207814
-0.0201457
-0.0219837
-0.0225425
-0.0205917
-0.0199988
0.109422
0.053335
0.101424
0.0149587
0.0634563
0.0727517
0.0511818
0.0611579
0.0264185
0.00677901
0.0210729
-0.0113601
0.0124065
0.0160535
0.00489805
0.00880205
-0.0226227
-0.00355908
-0.181841
-0.137234
-0.0918066
-0.0748614
-0.139102
-0.208671
-0.0573438
-0.0379456
-0.0847913
-0.0685268
-0.0648421
-0.054906
-0.0760727
-0.0781439
0.0347706
0.023488
-0.0195303
-0.0199912
0.0254558
0.0279232
0.000648377
-0.00789155
0.0377542
-0.0183405
0.0212629
0.0445208
0.027985
0.00666727
0.0466349
0.0168134
0.00218231
-0.0409663
-0.0313663
-0.113966
-0.0678436
-0.0452431
-0.0917962
-0.0555917
0.00103798
-0.132535
-0.0364574
-0.00825499
-0.0465794
-0.0838516
-0.0058224
-0.0373436
-0.03081
-0.0775739
-0.0240864
-0.089499
-0.0770296
-0.0768534
-0.0772157
-0.0707371
-0.0926215
-0.0802116
-0.0700713
-0.0775778
-0.0838782
-0.0816452
-0.0755266
-0.0732545
-0.0234865
-0.0455857
-0.0162008
-0.0527833
-0.0452502
-0.0438769
-0.0363177
-0.0357146
-0.100345
-0.0875156
-0.074983
-0.0924893
-0.0896049
-0.0861912
-0.0836616
-0.0799099
-0.103231
-0.0553773
-0.100773
-0.0959194
-0.103312
-0.086933
-0.0962888
-0.0969299
-0.104744
-0.0918231
-0.0774962
-0.0566133
-0.0907354
-0.0976872
-0.0599647
-0.082548
-0.0491564
-0.0946122
-0.0908039
-0.0621197
-0.0786999
-0.0864004
-0.0716104
-0.0830515
-0.0519544
-0.0609043
-0.0829753
-0.0669952
-0.0637329
-0.0701448
-0.0671208
-0.0692984
-0.00768919
-0.00686421
-0.0193253
-0.0226058
-0.0109258
-0.00939848
-0.0179821
-0.0169269
-0.00572615
-0.00550055
-0.014605
-0.0151185
-0.00767846
-0.00695435
-0.0119739
-0.0113499
-0.0267656
-0.0235477
-0.0321468
-0.0298569
-0.0277033
-0.0271102
-0.0296969
-0.0298271
-0.0267226
-0.0225314
-0.0271921
-0.0272515
-0.025102
-0.0241117
-0.0259407
-0.0247841
-0.00872774
-0.0212806
-0.0222989
-0.0182744
-0.0147364
-0.0188437
-0.0183036
-0.020906
-0.00775569
-0.0175319
-0.0167811
-0.0196807
-0.0137034
-0.015492
-0.0160079
-0.0177268
-0.0261491
-0.0255159
-0.0205656
-0.0269501
-0.0269763
-0.0239403
-0.026232
-0.0240327
-0.0253041
-0.0261528
-0.0193008
-0.0214947
-0.0246869
-0.025338
-0.022299
-0.0229865
-0.270611
-0.413947
-0.5595
-0.356417
-0.492778
-0.343239
-0.398402
-0.393674
-0.358388
-0.490488
-0.546329
-0.320215
-0.38763
-0.478912
-0.470951
-0.411323
-0.479798
-0.474253
-0.500729
-0.289285
-0.403556
-0.494625
-0.430063
-0.388782
-0.231446
-0.187299
-0.194008
-0.106397
-0.185057
-0.253933
-0.148158
-0.162689
-0.394791
-0.410117
-0.214027
-0.267769
-0.482246
-0.366032
-0.225052
-0.314173
-0.443535
-0.30738
-0.530247
-0.547699
-0.432967
-0.366301
-0.560212
-0.402846
-0.338739
-0.31978
-0.275658
-0.193565
-0.361954
-0.270714
-0.256479
-0.205805
-0.377739
-0.243056
-0.230915
-0.387332
-0.286609
-0.365951
-0.340272
-0.314977
-0.32739
-0.389821
-0.492538
-0.295818
-0.383706
-0.357251
-0.306207
-0.36934
-0.447821
-0.46423
-0.343006
-0.175545
-0.37955
-0.453699
-0.275017
-0.338975
-0.326585
-0.285719
-0.34309
-0.202134
-0.355046
-0.370105
-0.259696
-0.405241
-0.176166
-0.110593
-0.183634
-0.120763
-0.158326
-0.19576
-0.13488
-0.166346
-0.397958
-0.338275
-0.279508
-0.199476
-0.265998
-0.198455
-0.260334
-0.342039
-0.405414
-0.258361
-0.352705
-0.434926
-0.354661
-0.237233
-0.328519
-0.334178
-0.234553
-0.168603
-0.21491
-0.184944
-0.254492
-0.237542
-0.238312
-0.152951
-0.380747
-0.249957
-0.213474
-0.30226
-0.214809
-0.271369
-0.239648
-0.184395
-0.526459
-0.154239
-0.195828
-0.259446
-0.238191
-0.178379
-0.222501
-0.194936
-0.0440719
-0.0151951
-0.0146355
-0.0454032
-0.0420495
-0.0268021
-0.0352228
-0.0291533
-0.112539
-0.0279189
-0.0353021
-0.0836551
-0.0758424
-0.0512338
-0.0789367
-0.0517406
-0.152819
-0.0798028
-0.0989344
-0.0868801
-0.100652
-0.090382
-0.0954363
-0.0918987
-0.0999722
-0.146949
-0.148095
-0.0747224
-0.100027
-0.157767
-0.0986949
-0.128192
-0.0771999
-0.0631906
-0.0450737
-0.107658
-0.0824088
-0.0650546
-0.0831053
-0.051562
-0.145175
-0.137002
-0.0811958
-0.107002
-0.131572
-0.126111
-0.108738
-0.106309
-0.113598
-0.0839152
-0.0640262
-0.0361788
-0.0869862
-0.086688
-0.0537375
-0.0656282
-0.00745289
-0.0131924
-0.016912
-0.0159304
-0.00999655
-0.0122381
-0.0139466
-0.0152921
-0.017515
-0.0187479
-0.0203016
-0.0189119
-0.0180738
-0.0191597
-0.0194892
-0.0193254
-0.0269855
-0.0256453
-0.0353473
-0.0294201
-0.027042
-0.0281587
-0.0313671
-0.0315834
-0.0219693
-0.0210543
-0.0248656
-0.0223187
-0.0231075
-0.0233478
-0.0245135
-0.023664
-0.0155058
-0.0187131
-0.0181572
-0.0202144
-0.0177353
-0.0176249
-0.01824
-0.0195211
-0.0171641
-0.0207023
-0.0214275
-0.0208565
-0.0184563
-0.0198244
-0.0205365
-0.0201314
-0.023982
-0.0213578
-0.0215243
-0.0275449
-0.0242296
-0.0219806
-0.024791
-0.0227204
-0.0251282
-0.0270781
-0.021481
-0.0237028
-0.0249993
-0.0252542
-0.023519
-0.022833
-0.00844829
-0.0217842
-0.00803673
-0.0219252
-0.0151661
-0.0134478
-0.0153006
-0.0136654
-0.0348976
-0.0444466
-0.0349507
-0.0393211
-0.0394785
-0.0398756
-0.038037
-0.0390222
-0.00762202
-0.0215082
-0.00724491
-0.0196141
-0.0149172
-0.0139898
-0.0150498
-0.0141887
-0.027883
-0.0331187
-0.0271108
-0.0288453
-0.0314103
-0.0299581
-0.0305099
-0.0291445
-0.0306676
-0.0155758
-0.0293275
-0.0349432
-0.0299554
-0.0208836
-0.0305628
-0.0263224
-0.0281187
-0.0338015
-0.0279894
-0.0138388
-0.0281713
-0.0319924
-0.0210749
-0.028519
-0.0155579
-0.0280578
-0.0337669
-0.0255606
-0.0202315
-0.0259068
-0.0261889
-0.0292987
-0.014173
-0.0247208
-0.0327059
-0.0277157
-0.0204713
-0.0253194
-0.0278919
-0.0298307
-0.0458036
-0.115487
-0.124512
-0.0955977
-0.0993399
-0.090134
-0.0818242
-0.107138
-0.268412
-0.786908
-0.70119
-0.324256
-0.332837
-0.610143
-0.357769
-0.503952
-0.28642
-0.704391
-0.679603
-0.30764
-0.310263
-0.545577
-0.311594
-0.471703
-0.142294
-0.182763
-0.181513
-0.114247
-0.128561
-0.170808
-0.121538
-0.134852
-0.190558
-0.191401
-0.130575
-0.191132
-0.189014
-0.168544
-0.193979
-0.176114
-0.236372
-0.276706
-0.555676
-0.224683
-0.230093
-0.258171
-0.275528
-0.33292
-0.185591
-0.127967
-0.198317
-0.212251
-0.195528
-0.16164
-0.198762
-0.180458
-0.261534
-0.222824
-0.230682
-0.498079
-0.252133
-0.288195
-0.368751
-0.331734
-0.917839
-0.472999
-0.477643
-0.126489
-0.33493
-0.513152
-0.291453
-0.343455
-0.41868
-0.356992
-0.32902
-0.215178
-0.323918
-0.343615
-0.289656
-0.338028
-0.421181
-0.348199
-0.339063
-0.263103
-0.302498
-0.347651
-0.322217
-0.343149
-0.0921429
-0.107339
-0.096653
-0.0670718
-0.0879613
-0.0882316
-0.108687
-0.0937677
-0.350686
-0.370855
-0.175061
-0.168841
-0.239823
-0.246632
-0.173808
-0.198516
-0.367538
-0.2299
-0.331317
-0.422873
-0.307092
-0.289533
-0.434885
-0.318638
-0.33689
-0.166185
-0.12903
-0.202785
-0.133376
-0.178191
-0.193358
-0.123625
-0.321393
-0.185321
-0.168297
-0.340224
-0.349852
-0.225217
-0.315484
-0.247194
-0.339586
-0.362277
-0.337311
-0.20276
-0.317678
-0.315113
-0.272066
-0.322535
-0.398072
-0.499085
-0.44058
-0.278344
-0.349183
-0.424974
-0.329243
-0.385521
-0.351272
-0.370925
-0.341972
-0.235572
-0.304257
-0.369451
-0.263619
-0.332909
-0.119251
-0.121232
-0.0940574
-0.0704117
-0.108544
-0.122143
-0.0972999
-0.108886
-0.330983
-0.319932
-0.194855
-0.18709
-0.266745
-0.274164
-0.265004
-0.250333
-0.34604
-0.278868
-0.386874
-0.361501
-0.337518
-0.300442
-0.377331
-0.303978
-0.313155
-0.127491
-0.141543
-0.180196
-0.228115
-0.205014
-0.216343
-0.15095
-0.322555
-0.236302
-0.187648
-0.316904
-0.292014
-0.287666
-0.332733
-0.28101
-0.917303
-0.673738
-0.473775
-0.211864
-0.488587
-0.586843
-0.480845
-0.415697
-0.524691
-0.476799
-0.444875
-0.261215
-0.398945
-0.436771
-0.313443
-0.398088
-0.377461
-0.420762
-0.432861
-0.344538
-0.366447
-0.39375
-0.267132
-0.414316
-0.0918226
-0.127805
-0.215257
-0.121487
-0.13243
-0.142737
-0.114183
-0.137723
-0.434707
-0.381849
-0.18419
-0.209078
-0.419464
-0.361047
-0.247183
-0.274936
-0.495146
-0.285745
-0.480578
-0.521509
-0.408927
-0.314656
-0.549572
-0.396909
-0.231703
-0.136332
-0.105035
-0.120523
-0.170697
-0.234728
-0.250609
-0.150922
-0.383853
-0.244842
-0.200411
-0.419454
-0.317166
-0.302345
-0.242687
-0.283594
-0.328511
-0.14616
-0.442504
-0.148465
-0.25241
-0.33796
-0.256438
-0.283168
-0.059997
-0.0599167
-0.124776
-0.0561574
-0.0819253
-0.106127
-0.0921628
-0.0986632
-0.417088
-0.245712
-0.524767
-0.268478
-0.311099
-0.349317
-0.312613
-0.349306
-0.10216
-0.0855203
-0.147396
-0.0762862
-0.109233
-0.127883
-0.11135
-0.141317
-0.158321
-0.290911
-0.175532
-0.112689
-0.172368
-0.179922
-0.347075
-0.177329
-0.197541
-0.105159
-0.14844
-0.28006
-0.180542
-0.0650697
-0.304068
-0.164204
-0.321411
-0.159037
-0.0973523
-0.165999
-0.224652
-0.200077
-0.17037
-0.158472
-0.285854
-0.206188
-0.114579
-0.154392
-0.250088
-0.192805
-0.184746
-0.144581
-0.69328
-0.534747
-0.45346
-0.171603
-0.375403
-0.560385
-0.298794
-0.346113
-0.477331
-0.429207
-0.373801
-0.25531
-0.330076
-0.41376
-0.210797
-0.338257
-0.361992
-0.36384
-0.370675
-0.31579
-0.264373
-0.354249
-0.169477
-0.291195
-0.113708
-0.134554
-0.182186
-0.126008
-0.147214
-0.145452
-0.116195
-0.153799
-0.327529
-0.32634
-0.190534
-0.20729
-0.224313
-0.213284
-0.188841
-0.243258
-0.465873
-0.275746
-0.368943
-0.433099
-0.334449
-0.2273
-0.429747
-0.305553
-0.177742
-0.140913
-0.102504
-0.103907
-0.225025
-0.206645
-0.229561
-0.123532
-0.313272
-0.21752
-0.188418
-0.34048
-0.248944
-0.309073
-0.244904
-0.285542
-0.456752
-0.422983
-0.522701
-0.358018
-0.384149
-0.476197
-0.489881
-0.411087
-0.464519
-0.448292
-0.398203
-0.217531
-0.372658
-0.467689
-0.308203
-0.387435
-0.525416
-0.448098
-0.480251
-0.301622
-0.380757
-0.482335
-0.346907
-0.429131
-0.224226
-0.131643
-0.166105
-0.109795
-0.137391
-0.195431
-0.10209
-0.161562
-0.334962
-0.378292
-0.252401
-0.213489
-0.437031
-0.437007
-0.279905
-0.291803
-0.455412
-0.283705
-0.405066
-0.462562
-0.392175
-0.288844
-0.429528
-0.374603
-0.373774
-0.171735
-0.192289
-0.181095
-0.327012
-0.26956
-0.250577
-0.216827
-0.434051
-0.29012
-0.178961
-0.349247
-0.393622
-0.320031
-0.341548
-0.307957
-0.380176
-0.361468
-0.40951
-0.328886
-0.291729
-0.39914
-0.256432
-0.33603
-0.386612
-0.39907
-0.314066
-0.191646
-0.316496
-0.365786
-0.322083
-0.341909
-0.420137
-0.325821
-0.378317
-0.213635
-0.34181
-0.363536
-0.391308
-0.368194
-0.19781
-0.136585
-0.0959398
-0.126425
-0.145278
-0.123584
-0.152924
-0.16004
-0.293753
-0.287332
-0.219268
-0.233691
-0.301897
-0.277062
-0.264643
-0.296804
-0.39102
-0.248825
-0.333548
-0.421079
-0.345274
-0.321655
-0.362508
-0.318131
-0.277281
-0.199091
-0.277593
-0.231305
-0.276559
-0.238954
-0.239873
-0.310342
-0.361792
-0.253755
-0.200657
-0.321696
-0.346722
-0.223648
-0.314126
-0.321821
-0.0128932
-0.0285158
-0.0251407
-0.0263029
-0.0193178
-0.023805
-0.0220177
-0.0257153
-0.0522084
-0.0672607
-0.0569582
-0.0485997
-0.0529095
-0.059607
-0.0508668
-0.0583897
-0.0358656
-0.0487761
-0.0405191
-0.0350506
-0.0375722
-0.0440035
-0.036552
-0.0419421
-0.0316371
-0.0349878
-0.0294922
-0.027087
-0.0300075
-0.0326209
-0.0278471
-0.0296412
-0.0375026
-0.0301219
-0.0290659
-0.0391733
-0.0388903
-0.0316508
-0.0403524
-0.0335662
-0.042473
-0.0430387
-0.0496144
-0.0347981
-0.0442463
-0.045542
-0.0452549
-0.0434442
-0.0317698
-0.0303839
-0.037676
-0.0316927
-0.0329191
-0.0329236
-0.0336541
-0.0338729
-0.0359462
-0.0343
-0.0401642
-0.0471215
-0.039332
-0.0375836
-0.0431253
-0.0411477
-0.188427
-0.0537262
-0.378231
-0.228063
-0.137997
-0.321652
-0.216473
-0.234401
-0.0632115
-0.0511826
-0.0791468
-0.0651446
-0.0813995
-0.0823147
-0.0704871
-0.0908841
-0.370456
-0.17239
-0.380408
-0.2707
-0.244535
-0.202359
-0.262237
-0.280821
-0.0987828
-0.0700218
-0.148659
-0.0885072
-0.104358
-0.115906
-0.123681
-0.112079
-0.106094
-0.25011
-0.123755
-0.087571
-0.119337
-0.0698216
-0.0905877
-0.183824
-0.14664
-0.118247
-0.116907
-0.188789
-0.163319
-0.0763967
-0.137564
-0.141022
-0.24012
-0.161345
-0.16794
-0.168314
-0.227232
-0.15172
-0.128645
-0.132669
-0.241046
-0.164926
-0.154079
-0.172607
-0.19398
-0.127283
-0.192842
-0.338604
-0.0101962
-0.0584216
-0.0143882
-0.0476817
-0.0391571
-0.0361499
-0.0444501
-0.0425327
-0.164024
-0.472158
-0.213368
-0.198105
-0.261915
-0.253568
-0.267315
-0.267826
-0.0294307
-0.100146
-0.0232298
-0.0926052
-0.066219
-0.0412643
-0.0753298
-0.0517856
-0.0610306
-0.106467
-0.0869191
-0.0688104
-0.0775561
-0.0887832
-0.0738039
-0.0856026
-0.099796
-0.0560345
-0.0671864
-0.13295
-0.0995931
-0.059639
-0.0908725
-0.0677424
-0.106274
-0.173095
-0.127211
-0.0505826
-0.110284
-0.161886
-0.0643912
-0.135794
-0.0552814
-0.0642004
-0.121628
-0.0950212
-0.0579204
-0.0741669
-0.0946254
-0.100593
-0.054035
-0.103627
-0.158995
-0.141677
-0.0665161
-0.100912
-0.137261
-0.163633
0.0845785
0.0682697
0.049102
0.000874479
0.0621511
0.0728571
0.0390464
0.0485321
-0.0123655
-0.214209
-0.0148421
-0.128425
-0.0741464
-0.0524136
-0.0469084
-0.0483358
0.0207663
0.0169564
0.00540641
-0.0118065
0.0113974
0.0150701
-0.000436498
0.00377576
-0.0458491
-0.0760808
-0.035722
-0.0537253
-0.0548431
-0.0553846
-0.0440774
-0.0458578
0.0177145
0.0320367
-0.025114
-0.0806637
0.0134559
0.0271518
-0.0432617
-0.018372
0.032541
-0.0794837
0.0183754
0.0382932
0.0215926
-0.0109605
0.0398288
0.00982912
0.0139436
-0.0233507
-0.0517157
-0.0246892
-0.00556189
-0.021859
-0.0243926
-0.0403482
0.0207417
-0.0232106
-0.0558616
0.00315345
0.00809515
-0.0217354
-0.0029442
-0.0322541
0.0110531
0.0209174
0.0294806
-0.00815188
0.00819127
0.0198926
0.00424114
0.0154239
-0.0193397
-0.243685
0.00513446
-0.144429
-0.0833364
-0.0876162
-0.0856095
-0.109388
0.0574291
0.084922
0.103271
0.0231566
0.0578147
0.0823008
0.04851
0.0777335
-0.0431444
-0.0951836
-0.0369007
-0.0665304
-0.0548128
-0.0709107
-0.0562048
-0.0701052
-0.00101073
0.0299403
-0.0195553
-0.064803
-0.0101814
0.0142135
-0.0441182
-0.0198449
0.0184509
-0.0891808
0.0430579
0.0409013
0.00589204
-0.0214609
0.0457886
0.0199925
0.0224862
-0.0234796
-0.0660207
-0.0155456
0.00602518
-0.0193646
-0.0134359
-0.0454593
0.0387737
-0.00790502
-0.0969449
0.0314669
0.0372519
-0.00191323
0.00901866
-0.0123399
-0.017471
-0.0176604
-0.0164081
-0.017346
-0.0179248
-0.0179407
-0.0176299
-0.0182465
-0.0189565
-0.0221757
-0.0205
-0.0215211
-0.0207257
-0.0217738
-0.0210477
-0.0226029
-0.0122612
-0.0141181
-0.00608604
-0.010835
-0.0123554
-0.0118283
-0.00951728
-0.00906817
-0.0169936
-0.0200178
-0.014355
-0.0179785
-0.017939
-0.0180473
-0.0170769
-0.017635
-0.0189939
-0.016381
-0.0176557
-0.0199455
-0.0189109
-0.0185999
-0.0187583
-0.0180437
-0.0195968
-0.0199881
-0.0186008
-0.01667
-0.0199306
-0.0203519
-0.0171985
-0.0184682
-0.0145584
-0.0172414
-0.0191699
-0.0133162
-0.0147562
-0.0179698
-0.0152766
-0.0181214
-0.0154191
-0.0136524
-0.0202254
-0.0172148
-0.0157532
-0.0145656
-0.0164852
-0.0176869
-0.016854
-0.0392222
-0.00888587
-0.0409361
-0.0304063
-0.0278038
-0.0251869
-0.024935
-0.0452603
-0.0379962
-0.0342758
-0.0534512
-0.0461415
-0.0447946
-0.0460204
-0.0437655
-0.00842706
-0.0215739
-0.00742574
-0.0271543
-0.0183731
-0.0168627
-0.0173335
-0.0163402
-0.0604748
-0.0646739
-0.0512784
-0.0711751
-0.071613
-0.0648142
-0.0655202
-0.0616452
-0.0463182
-0.0203674
-0.0556083
-0.0569607
-0.0440759
-0.0366512
-0.0505674
-0.049914
-0.0443799
-0.0540281
-0.0312566
-0.0182347
-0.0399357
-0.0448508
-0.0286609
-0.034582
-0.0192636
-0.0506475
-0.0564917
-0.0397276
-0.0344799
-0.0469692
-0.0416048
-0.0509239
-0.0194028
-0.0376036
-0.0530084
-0.0309144
-0.0254433
-0.0372079
-0.0333562
-0.0457643
-0.861258
-0.427502
-0.635616
-0.0634503
-0.308972
-0.451141
-0.197868
-0.250143
-0.368023
-0.311557
-0.306153
-0.218464
-0.281473
-0.317136
-0.246775
-0.301459
-0.415309
-0.339726
-0.372681
-0.266504
-0.280371
-0.321238
-0.334084
-0.31561
-0.0362131
-0.0847295
-0.0867051
-0.0487188
-0.0791154
-0.0635666
-0.134946
-0.10418
-0.330081
-0.372205
-0.162808
-0.19536
-0.153548
-0.176801
-0.142062
-0.167747
-0.297047
-0.237994
-0.289437
-0.422801
-0.242521
-0.251894
-0.475679
-0.287104
-0.251735
-0.190495
-0.11911
-0.197661
-0.189736
-0.177757
-0.18849
-0.129039
-0.292642
-0.183553
-0.186146
-0.305586
-0.331246
-0.252521
-0.286431
-0.250033
-0.355269
-0.338775
-0.360027
-0.217219
-0.294005
-0.343533
-0.238267
-0.329754
-0.319577
-0.258581
-0.309746
-0.195931
-0.289762
-0.271269
-0.274213
-0.315521
-0.318808
-0.377035
-0.395937
-0.302023
-0.36343
-0.347357
-0.328281
-0.366121
-0.077501
-0.104218
-0.12984
-0.0492257
-0.112022
-0.106707
-0.0974135
-0.123809
-0.311472
-0.282295
-0.203071
-0.151397
-0.235138
-0.201544
-0.237281
-0.2642
-0.335686
-0.220206
-0.295904
-0.32996
-0.304225
-0.301528
-0.287154
-0.313312
-0.273241
-0.110138
-0.157108
-0.14749
-0.284495
-0.227293
-0.229136
-0.18885
-0.319559
-0.249314
-0.1441
-0.313025
-0.308519
-0.32985
-0.280511
-0.298245
-0.0457108
-0.0367124
-0.0394708
-0.0366958
-0.0430031
-0.0407516
-0.0403157
-0.0385877
-0.0225786
-0.00890388
-0.0211541
-0.017369
-0.0173534
-0.0150225
-0.019813
-0.0180838
-0.033253
-0.0281264
-0.028797
-0.0268301
-0.030794
-0.0295319
-0.0288967
-0.0280136
-0.030051
-0.0229481
-0.0268687
-0.0258706
-0.0277679
-0.0253048
-0.0273948
-0.0254218
-0.0305751
-0.0358753
-0.0348852
-0.0241504
-0.0311396
-0.0339127
-0.0280115
-0.0325462
-0.0293924
-0.0210273
-0.0257891
-0.0341415
-0.0292511
-0.0231602
-0.0314347
-0.0277367
-0.03378
-0.0336033
-0.0245154
-0.0281431
-0.0308553
-0.0314556
-0.0287586
-0.0283243
-0.0323499
-0.0272259
-0.0222205
-0.0263848
-0.0290356
-0.027588
-0.0272852
-0.0253241
-0.00198396
-0.0141737
-0.00618418
-0.00356018
-0.00472564
-0.0095699
-0.00447988
-0.009144
-0.0281131
-0.0440192
-0.0277693
-0.0455746
-0.0354614
-0.0337505
-0.0348903
-0.035815
-0.0108331
-0.0209766
-0.0168783
-0.0173518
-0.0164211
-0.0182592
-0.0165251
-0.0189334
-0.0105709
-0.0448387
-0.0213071
-0.0315063
-0.0202844
-0.0274927
-0.0196845
-0.0302223
-0.0191856
-0.0111036
-0.00839825
-0.0308197
-0.0189914
-0.0132908
-0.0246522
-0.0165123
-0.0208477
-0.033843
-0.0235641
-0.0140981
-0.0217485
-0.0291521
-0.0177888
-0.0228968
-0.0108982
-0.00839257
-0.0303462
-0.0178079
-0.00979612
-0.0168926
-0.0172474
-0.0225426
-0.0143269
-0.0225506
-0.0358359
-0.0244809
-0.0195613
-0.0210829
-0.0230033
-0.0258787
-0.0179415
-0.0190257
-0.0182496
-0.019768
-0.0191233
-0.0190461
-0.0191887
-0.0206954
-0.0211417
-0.0251858
-0.0253349
-0.0245119
-0.0242683
-0.0251046
-0.0241534
-0.0255507
-0.0145329
-0.0192145
-0.00802736
-0.0143691
-0.0165608
-0.0159525
-0.0122944
-0.0120025
-0.020883
-0.0238565
-0.0200292
-0.0227062
-0.0230621
-0.0232919
-0.0215523
-0.0228648
-0.0211092
-0.0202633
-0.0214126
-0.0239662
-0.0211465
-0.020792
-0.0215363
-0.0214083
-0.0210408
-0.0244862
-0.0236287
-0.0193809
-0.022718
-0.0235969
-0.0210362
-0.0237447
-0.0167464
-0.0200351
-0.0230653
-0.017261
-0.0186129
-0.0219447
-0.0212855
-0.0226877
-0.0187664
-0.0184329
-0.0241699
-0.0218302
-0.0194883
-0.0202673
-0.0209598
-0.0224726
-0.0059338
-0.0166824
-0.00496931
-0.0155888
-0.0102696
-0.0100233
-0.0107892
-0.0110671
-0.0281992
-0.0392569
-0.0332007
-0.0337421
-0.0344322
-0.0354365
-0.0340718
-0.0362715
-0.00573363
-0.0211215
-0.0086424
-0.0210205
-0.0138632
-0.0143141
-0.0150365
-0.0151602
-0.0230034
-0.0291985
-0.0274021
-0.0252927
-0.0266463
-0.0275569
-0.0268398
-0.0280851
-0.0215285
-0.011794
-0.0201536
-0.0294161
-0.0218895
-0.0157796
-0.0253212
-0.020357
-0.021921
-0.0307371
-0.0269437
-0.0111444
-0.023203
-0.0284039
-0.0175358
-0.0258933
-0.0126133
-0.0204975
-0.0297033
-0.0247962
-0.0171133
-0.0212857
-0.0240116
-0.0266678
-0.0122964
-0.0259738
-0.031485
-0.0277756
-0.0189336
-0.0252273
-0.0266043
-0.0297597
-0.342389
-0.167489
-0.350432
-0.230071
-0.219742
-0.30496
-0.180966
-0.279765
-0.0421129
-0.0614406
-0.140874
-0.0366819
-0.0740024
-0.0805256
-0.0948823
-0.0959039
-0.353503
-0.289994
-0.522354
-0.249987
-0.276329
-0.315892
-0.254334
-0.322954
-0.125879
-0.0841287
-0.135077
-0.0867344
-0.0852503
-0.108745
-0.0919185
-0.107644
-0.129088
-0.280318
-0.160171
-0.0877061
-0.112627
-0.22102
-0.287036
-0.162376
-0.187049
-0.0862225
-0.158698
-0.276171
-0.161967
-0.114858
-0.236093
-0.158095
-0.277523
-0.160226
-0.0642975
-0.166841
-0.216531
-0.183639
-0.19199
-0.157352
-0.266567
-0.207825
-0.103157
-0.178884
-0.253162
-0.228744
-0.166498
-0.15538
-0.00403824
-0.0128548
-0.00339092
-0.00952564
-0.00848571
-0.00974883
-0.00668235
-0.00889748
-0.0207564
-0.023576
-0.0245941
-0.0222762
-0.023189
-0.0260592
-0.0226607
-0.0262461
-0.00382763
-0.0177652
-0.00732625
-0.0117984
-0.010118
-0.0131447
-0.00834572
-0.012063
-0.0136532
-0.0201551
-0.0154622
-0.0170605
-0.0168351
-0.0195834
-0.015403
-0.0190414
-0.0177432
-0.00888747
-0.0127548
-0.0208347
-0.01617
-0.0130514
-0.0175155
-0.014612
-0.019671
-0.0227653
-0.0231507
-0.0107555
-0.0190381
-0.0223877
-0.0145851
-0.0204028
-0.00767894
-0.0114927
-0.0198562
-0.01202
-0.0102464
-0.0132499
-0.0138609
-0.0167443
-0.00994898
-0.0158441
-0.0225226
-0.022658
-0.014637
-0.0171506
-0.0187983
-0.0207497
-0.427335
-0.2293
-0.261261
-0.162536
-0.215606
-0.205989
-0.206573
-0.173833
-0.136394
-0.0901511
-0.10055
-0.0710317
-0.10919
-0.110054
-0.118731
-0.0985818
-0.116983
-0.103804
-0.0415158
-0.099684
-0.121457
-0.0893256
-0.10842