/*--------------------------------*- C++ -*----------------------------------*\
| =========                 |                                                 |
| \\      /  F ield         | OpenFOAM: The Open Source CFD Toolbox           |
|  \\    /   O peration     | Version:  2506                                  |
|   \\  /    A nd           | Website:  www.openfoam.com                      |
|    \\/     M anipulation  |                                                 |
\*---------------------------------------------------------------------------*/
FoamFile
{
    version     2.0;
    format      ascii;
    arch        "LSB;label=32;scalar=64";
    class       volScalarField;
    location    "1400";
    object      p;
}
// * * * * * * * * * * * * * * * * * * * * * * * * * * * * * * * * * * * * * //

dimensions      [0 2 -2 0 0 0 0];

internalField   nonuniform List<scalar> 
46720
(
15.6581
-1.00559
27.9927
5.37991
17.8502
17.3548
17.7115
20.7151
2.82008
0.696478
11.0017
-1.92429
2.7302
3.46349
1.16168
5.55604
33.9873
30.6006
47.4687
32.7817
35.174
37.1217
36.5961
40.0841
-7.03775
-6.54461
12.414
-4.51759
2.52012
3.97649
-1.91409
4.16153
7.21619
24.2268
11.5251
3.19263
3.52197
13.5242
-5.16119
16.4848
10.339
3.89989
11.4229
27.6258
9.63009
3.24378
16.9603
12.2396
24.9156
6.84781
-0.515109
15.829
22.0728
15.6371
16.9375
7.14277
28.6477
19.028
5.21931
18.6997
25.7895
17.7361
13.7951
13.5091
13.3466
13.6076
-3.72607
3.42201
4.87469
6.9786
16.7962
16.9367
2.30813
-2.65339
3.3799
2.4586
2.676
0.83219
3.58343
2.0764
1.53196
3.3311
0.491163
-0.229006
0.819604
2.76401
3.89203
-0.885398
-3.69898
1.53543
-2.72903
-1.38501
-0.125545
-3.68016
8.81572
-0.0171313
10.6855
-1.57183
4.59405
2.78572
9.80218
7.88173
5.52847
4.09395
6.13252
2.32014
1.74001
1.17969
8.62747
3.34173
8.11745
3.61448
6.41987
12.4623
3.22158
7.55811
-3.09453
6.57032
-0.765466
4.92464
7.29745
-1.25587
1.17902
0.890073
4.96184
-3.44899
5.47198
0.759597
0.340055
0.60251
0.433777
0.561506
0.736443
0.657682
0.686864
0.651451
0.187498
-0.75567
-0.198809
-0.177002
-0.124133
-0.0916274
0.177975
-0.254984
1.91246
-1.83754
0.175275
0.696387
2.174
1.66692
0.760781
0.241224
0.134849
0.237649
0.207446
-0.312648
0.448992
0.605624
0.201613
0.354691
0.668102
0.890545
0.703952
0.422557
0.78621
0.770215
0.550797
0.740121
0.664549
0.393709
0.657361
0.805724
0.740636
0.425023
0.659473
0.618337
0.744429
0.636884
0.511552
0.157491
0.783077
0.628763
0.643042
0.645434
0.839411
-0.040809
0.419672
0.00516305
0.979239
0.267666
0.25632
0.404803
19.0088
20.2303
4.86174
7.88506
18.7037
17.2273
9.3983
7.46583
22.3038
24.2721
14.7894
10.0392
25.0859
25.6614
12.207
20.0573
-5.36329
-0.98226
-11.9957
-10.6331
-9.20961
-7.79486
-11.2443
-10.5011
-3.12171
-3.86317
-4.8094
-3.68496
-4.40678
-4.59547
-6.35582
-4.59694
21.2597
3.79135
6.5548
8.69278
9.12517
4.7805
7.94572
7.38243
21.3755
6.42634
8.08501
5.36286
9.29634
7.28434
9.48647
6.7762
1.50894
3.88549
2.73331
-5.97409
-6.92095
0.0663398
-8.6934
-3.26849
-0.498717
-5.56822
1.89703
4.92355
-3.81766
-7.52076
-1.07074
-6.53319
-2.60315
4.32041
2.41585
2.38168
-1.84681
1.20097
0.132598
1.99794
11.4849
16.3781
3.43001
7.19512
9.90455
12.6986
8.14761
8.3946
-1.17328
-5.20259
-9.92026
-8.53506
-7.11749
-3.26966
-6.95441
-8.6088
-0.679845
-3.08395
-5.87941
-3.1693
-1.27763
-0.373308
-4.74355
-6.0893
4.30467
-1.93526
1.67848
5.09779
3.64409
2.83656
4.97282
2.69148
7.13078
5.71401
3.86068
2.85062
3.83213
6.32364
4.30345
1.04746
-3.40327
-1.66801
3.26736
-2.41595
-3.45876
-2.1867
-2.48897
-1.81104
-3.9273
-2.88043
1.8135
0.466651
-2.50259
-0.600258
2.09411
-6.07034
0.195554
0.32188
0.611027
0.461846
0.575528
0.426969
0.549521
0.526886
0.239609
0.10122
0.183516
0.10072
0.544639
0.447392
0.429883
0.290767
0.191801
-0.137188
0.0547217
-0.272043
0.0166596
-0.167936
0.0203167
0.18204
0.129271
0.198518
0.155121
-0.246961
0.195699
0.226078
0.201324
0.328744
0.320087
0.788906
0.549645
0.23199
0.44804
0.524539
0.56246
0.598817
0.316374
0.343206
0.271015
0.491098
0.456295
0.357237
0.413454
0.303397
0.475723
0.545723
0.22263
0.217444
0.453165
0.453761
0.373248
0.443651
0.264168
0.0138244
0.139365
-0.109028
-0.0479683
0.140493
0.0251349
-0.114705
-12.847
-8.88517
-2.9071
7.8819
-1.68408
-4.44418
5.87989
5.9434
-3.48966
-2.13613
-9.25178
-2.11695
-2.77028
-3.41911
-1.91815
-2.20029
86.6564
3.4253
365.995
61.8565
90.7863
108.325
121.635
180.969
-0.617103
0.147577
-18.7436
-29.3906
9.6566
-4.05824
-4.03382
4.06423
-0.209547
-17.6947
15.3823
-0.883784
0.644852
-3.61677
0.666263
6.86957
-1.87546
-0.582005
-1.2592
-19.103
-0.371824
-2.33824
12.8548
4.20214
15.9828
32.1816
-0.517915
21.5887
-18.5357
16.763
7.84382
1.10652
44.5935
31.6619
0.962001
-10.1942
16.7217
9.32154
-7.57085
-11.4416
456.886
123.165
132.141
9.28422
172.06
192.513
79.9634
129.342
21.4768
-12.6577
-6.23254
-8.20029
-3.25995
1.35506
-7.57945
-7.75025
25.6634
13.3625
12.3988
-4.38822
19.1906
25.3982
4.9675
13.3626
-7.30026
-2.98279
-2.49073
-2.30726
-2.59218
-1.79374
-3.02371
-2.21744
47.8148
61.4904
1.98177
-2.09879
21.6677
1.32706
-1.10287
-4.93076
43.3581
-5.65024
10.7035
65.4196
31.9207
-1.3591
36.2743
12.642
40.2156
0.183768
-0.859479
-3.98593
-1.22612
0.0128511
-3.46253
-2.54805
49.4758
-4.46527
0.0871793
6.68145
-2.77021
-4.72217
1.8074
0.624604
6.61082
-1.45092
-0.671977
-2.06341
-6.74657
-7.98267
-3.21108
-3.73589
1.3928
3.57251
2.14825
3.95331
3.17381
1.21427
3.31763
4.08323
-1.54996
1.56776
0.0333963
1.77895
0.415466
-0.00376761
1.52872
0.00177133
3.23501
9.7878
2.62529
13.5838
6.07149
6.30531
8.55429
8.39364
-0.55271
-3.31142
-0.546264
2.50972
2.45079
4.13303
5.48578
2.4493
-1.51145
3.63037
2.83709
-2.19195
0.182656
2.875
0.0888964
2.60012
-2.4369
0.421872
5.52102
3.46518
-1.70986
0.729008
-0.0744589
0.80689
-2.42548
3.72856
5.59833
3.98733
1.36173
1.51315
4.98995
6.99354
56.4855
21.9229
53.7354
31.1617
46.0585
42.8417
43.7899
41.4154
7.99573
-0.548624
1.65101
-1.19537
3.73652
3.30411
2.12281
0.962711
48.4165
23.3755
46.0175
31.5167
30.9024
28.4247
37.4789
32.4116
6.5859
-4.79467
2.90531
-2.93941
-3.46865
-0.763288
-1.56146
-0.797102
15.7238
37.8367
19.0118
1.13403
17.7908
21.2224
5.98229
17.0009
18.0325
0.974693
9.43056
31.5021
17.1235
4.77729
27.0954
15.6734
29.3348
18.7332
0.499966
11.3136
24.1883
14.2496
14.0911
-0.0626494
32.9717
4.1772
-1.27985
7.58496
15.2912
8.54701
11.8298
1.49883
0.313113
0.762992
0.562846
1.41487
0.505542
0.079635
0.552474
0.712047
0.413823
-0.417102
4.2699
-0.374698
-0.00830956
0.359733
-0.291714
0.623283
0.450738
3.80166
-3.06955
0.748529
1.94827
-1.90561
0.286294
-2.45856
1.12346
-0.661749
2.75973
1.43291
0.861266
0.735554
-0.61795
1.90387
0.540687
0.716723
1.59138
0.471025
0.597024
0.446308
0.300075
1.03304
0.457162
0.330682
-0.700962
-1.01462
0.595924
0.202216
1.33946
0.779992
0.397047
1.72899
0.463765
-0.55023
0.634526
0.892948
-0.222183
0.35572
0.723344
1.90988
0.748262
0.720867
-0.193302
0.0770602
-0.0230044
2.22704
-1.73174
0.132777
-1.4664
-0.35644
1.20587
1.41342
-1.08846
-0.825368
0.5161
-0.587458
1.69308
3.62463
3.75379
2.52228
3.82091
3.60305
-2.31003
-0.680535
2.01622
-0.19917
-0.828752
-1.16792
0.808689
1.46659
4.01556
7.49045
3.59058
9.02684
7.67579
6.38661
5.05504
5.16399
1.82344
0.243837
2.23146
6.5735
0.296305
0.588209
2.93081
2.59956
1.90558
5.37768
0.9117
0.505742
0.292037
1.80295
0.623744
0.690436
-2.6892
-1.13323
4.0295
0.363227
-0.497914
-0.258826
-0.57286
-0.400256
-1.75594
-0.490144
3.51262
-1.09748
-0.999231
-0.482366
-1.33422
2.74647
0.533353
0.366316
0.370338
0.065387
0.633124
0.511586
0.389109
0.270712
0.684262
0.786421
0.804957
0.378024
0.948676
0.839349
0.776557
0.738629
0.960907
1.04633
0.834946
1.28619
1.38815
1.47583
1.19249
1.00436
-0.124516
-0.32379
0.770783
7.48261
-0.491228
-0.378084
-0.24266
-0.268624
0.40034
0.514718
0.285173
0.233175
0.366026
0.227705
0.429538
0.362006
0.494535
0.356902
0.630408
0.665214
0.459301
0.731124
0.40065
0.56599
0.524258
0.381899
0.10008
0.666979
0.505148
0.361546
0.317429
-0.0766119
0.76216
0.741206
0.164876
0.682037
0.784552
0.575501
0.53668
0.385517
14.7602
17.8935
15.36
15.364
16.6102
16.3254
16.8789
17.0241
20.208
22.5785
20.4331
21.7697
21.1504
21.2996
21.8584
21.8801
15.0155
17.7675
14.566
16.7261
16.1835
16.6072
16.8995
16.7121
16.979
20.7083
18.3286
18.0172
18.789
18.1745
19.6721
19.5466
18.7993
16.633
17.3221
19.7609
19.8658
18.7307
18.7926
17.6456
18.4717
19.94
19.7533
17.1247
19.8209
21.1251
18.31
19.6308
15.9751
17.5039
21.3888
18.9515
15.5856
18.088
17.6644
19.693
16.9912
18.6992
21.1518
19.9294
17.5819
17.4992
19.3089
18.8375
13.2047
13.7992
12.8964
13.8689
14.7931
12.8328
15.8073
13.9832
13.014
12.8946
11.0856
14.9522
13.9824
12.2548
14.6991
13.2434
10.7506
9.95128
7.09215
12.1569
9.92382
8.74037
10.2127
8.23918
15.2658
16.0766
15.3046
15.901
15.8138
14.3126
17.0261
14.8906
14.6406
12.524
14.8561
15.6305
14.7977
14.3699
13.8289
12.8768
12.9187
13.769
10.4416
11.1594
13.6005
14.3156
11.8694
12.0146
13.815
17.0179
15.5753
14.31
13.2458
14.3103
13.4817
15.4134
11.6239
12.2153
14.3885
10.9085
12.3082
12.1035
12.6564
13.3259
26.7421
34.3985
37.5826
27.3493
32.5881
36.7919
35.6529
33.7778
27.8348
28.883
34.5292
23.5651
34.8119
32.2511
29.2835
34.1823
41.5953
37.9219
31.0394
33.491
40.0345
42.2769
34.0756
45.0926
8.35006
6.77443
8.41944
5.94719
8.31388
3.7681
9.76029
6.26113
36.0532
38.2162
24.3502
31.9639
27.204
29.3562
23.1579
24.6578
31.0422
25.8255
38.2021
40.7649
36.5607
32.0006
39.0919
38.8822
33.7569
20.5463
20.391
21.8852
31.5239
25.6534
26.8202
23.1695
39.207
20.0937
28.8211
40.2122
31.2473
24.5109
28.2525
22.754
29.4849
19.5825
25.8313
21.7729
27.0959
24.1921
25.4031
23.4951
8.8048
-3.51205
6.7754
10.0882
6.38401
2.56793
5.34775
3.52105
25.7103
13.9384
26.4981
23.4195
21.9593
19.0813
23.5035
21.69
9.46942
10.8931
13.18
5.02413
6.37894
8.35163
5.92597
9.65423
17.99
22.944
17.9103
12.726
14.6342
17.5368
17.5093
17.5071
15.8087
10.6718
10.9984
21.1336
12.5284
9.04012
16.5083
13.6441
23.9892
18.0153
8.34478
12.8817
20.2631
19.0683
17.6521
13.178
22.52
17.7209
9.42629
13.3899
20.3944
18.5559
14.8792
12.0548
0.190272
0.35963
0.390805
-0.113518
0.34114
0.343429
0.282912
0.419629
0.900096
0.671845
1.23628
0.779743
1.52375
1.50689
1.25429
1.15565
0.606108
0.765071
1.5991
0.978263
0.743323
0.818747
0.72468
0.989713
-0.298944
0.53346
1.79986
0.713062
0.582817
0.671048
0.52159
1.61638
0.959388
0.543185
1.05421
1.04606
0.68931
0.609956
0.17891
0.794409
0.93662
1.20317
0.724376
0.546645
0.558297
0.632797
0.278928
0.432955
0.712386
0.805913
0.631
0.78486
0.853513
0.874336
0.802909
0.715572
0.679399
0.825632
1.06797
0.945736
0.516419
0.704153
0.66849
0.926028
11.9293
12.77
15.5683
13.2133
13.6439
13.5946
14.2498
14.9118
12.5056
13.2833
15.5817
15.962
14.72
14.0746
14.789
14.7667
18.1848
17.9341
18.6775
18.967
18.0288
18.627
18.4956
19.102
13.5193
16.8841
18.3286
15.3332
15.0058
17.6081
17.2745
17.2946
14.4744
15.9983
14.9759
15.2937
13.6865
14.6799
14.8804
15.5113
13.5963
16.5742
16.3577
16.4092
15.2404
15.7769
16.0085
16.5907
16.5213
15.9504
16.261
18.0813
17.438
16.3351
17.8234
16.7277
17.5547
18.217
15.9148
17.4542
16.8593
18.0321
15.9978
17.3212
10.5886
9.24785
11.795
12.0366
11.1688
10.3154
12.6031
11.4021
7.45488
4.12586
6.74066
9.3307
7.391
5.32632
8.96704
7.13792
11.9651
9.02139
11.83
14.917
12.4049
10.3731
13.9547
12.0876
12.7646
12.4208
16.2931
14.3161
13.3923
13.0804
14.6194
13.7541
9.3858
11.8654
12.627
10.7799
10.4999
11.7897
11.0025
11.696
8.10414
9.79811
8.81324
10.3248
9.61918
10.1464
9.32217
10.6861
13.3638
14.1004
11.4608
14.2232
13.6278
12.7738
13.2737
12.4788
11.6151
13.3699
11.4538
10.7089
12.8316
11.9989
12.0418
12.4507
42.7578
51.1832
55.5775
30.4213
48.7048
56.9231
45.2365
51.8315
53.3887
39.4311
59.8114
30.7445
45.3911
57.6683
42.951
51.4397
60.3005
66.7249
62.8561
41.1456
69.1524
76.4211
58.7059
73.3345
8.631
5.32161
10.576
0.648474
0.441919
5.39201
0.0149126
3.56522
45.048
59.1695
33.7094
37.0412
42.1418
53.7642
48.7869
33.2418
55.9499
48.9933
68.1961
62.5083
49.9979
49.16
63.4198
57.4325
52.3076
29.1016
28.5152
25.0866
44.2256
37.345
35.5653
27.2015
62.4013
36.3521
40.2514
62.8153
61.2939
48.7223
50.8365
50.1788
34.7864
18.6964
46.6612
30.4819
38.6513
26.5082
42.5242
38.5427
8.26342
-6.6333
11.6893
6.49831
9.27909
-0.95893
6.33427
5.94292
47.3374
20.4763
30.7912
20.4379
29.4626
28.5965
34.0455
29.2313
11.2428
3.51796
1.68279
-0.370929
1.41422
9.20188
-22.3962
-2.55217
28.3427
32.1221
19.8276
10.7942
23.9675
28.505
21.8262
17.3386
16.7751
12.4861
15.7103
31.0319
24.3889
12.5549
23.8774
19.6952
30.1993
20.8374
6.32115
12.8322
44.7624
22.6115
18.6081
8.77101
32.6437
19.1818
6.92246
17.5795
17.0882
24.7536
17.9647
8.71249
-1.92605
-1.06419
0.603037
-1.43741
-2.25719
-1.40324
-0.575679
-0.688356
-2.79193
-1.62374
0.495126
0.319726
-1.28087
-0.252937
1.8585
1.85043
5.14381
4.87928
12.2592
12.1438
3.50226
3.58681
9.82403
9.153
5.47799
4.50743
13.1868
13.9723
2.21341
3.70108
8.81052
6.97076
-4.10968
-0.637349
-1.40853
-0.221168
0.269947
0.71137
-1.79652
0.0767421
-3.19189
1.47959
-0.66446
-0.53989
-0.0340896
1.10188
0.349477
-1.53193
4.7372
1.89105
5.14233
9.96035
7.08523
0.789134
0.371475
3.90553
4.21149
9.12402
3.92809
3.40151
4.64869
0.471336
4.17488
4.49094
-0.695093
0.802195
-1.00622
0.666086
2.9876
2.28329
1.742
-1.48353
5.81183
13.5539
12.9899
12.0561
10.0249
11.3259
10.3991
11.77
2.06653
7.71803
3.04039
9.1347
3.897
4.80112
3.13145
4.85399
5.76399
12.394
9.07695
10.7455
5.65863
9.45813
5.08981
7.90646
3.25601
3.80254
0.959079
9.27922
2.47977
-2.21324
6.21786
3.10981
3.55773
10.4606
9.58975
5.52158
3.0566
8.52394
2.08968
8.58615
3.6864
1.50182
8.63164
5.66413
1.39249
2.77787
8.25095
6.71814
2.38932
8.76003
10.4462
8.3318
2.68231
8.21807
7.15506
11.8122
41.7815
5.7632
15.2922
-0.141379
8.34359
8.91603
9.12112
4.95001
-13.1978
-12.0262
-7.48678
-10.8861
-12.3556
-12.0584
-11.6542
-12.3226
21.8249
9.41399
25.6006
5.91885
17.9061
19.4509
20.6476
23.647
-0.781967
-3.93922
-2.62797
-1.88507
-2.05857
-3.12894
-1.86784
-2.74873
-3.01892
5.70073
-2.91946
-4.42204
-3.23907
-1.17747
-2.42221
-3.72705
-5.3979
-9.30779
-1.50779
5.65829
-2.64518
-7.84391
0.668535
-5.02557
3.74333
-0.544619
-5.32822
-2.02191
-0.134527
-3.06396
-2.48448
-3.02653
10.7588
-2.16745
-6.9745
3.80794
2.32425
-2.22802
-3.20495
-8.48528
-6.41531
-2.04144
2.22803
0.404368
-1.68473
-1.58072
0.333478
1.36783
-2.05819
-9.52567
-0.0569337
-7.73288
-7.49251
-5.16201
-5.66701
-3.69443
-0.216693
3.64714
1.40398
1.08147
4.12308
4.15433
2.24855
2.40564
-2.53994
-4.38939
-0.260403
-2.91125
-4.42007
-3.82861
-2.79382
-2.13929
-2.61734
2.91656
-1.9142
-8.31113
-1.14548
-0.686426
-4.06479
-0.400536
-0.0478067
-5.83339
0.355832
0.472758
-0.141359
-2.25073
-3.81437
0.0682495
0.0320345
-1.19857
-4.04564
0.490019
2.30321
0.402411
1.24311
-3.12311
2.37448
1.04123
-4.74492
-0.619911
2.17598
1.56471
-0.0352068
-2.19759
50.0331
59.0981
63.1645
23.705
45.5965
57.2705
42.4101
52.6404
63.0488
63.2584
69.2927
37.3965
59.946
65.1449
58.225
68.1525
72.8227
76.3886
79.8511
43.2577
76.0586
78.834
74.8802
78.3736
7.15392
13.9284
4.0634
1.68679
6.0923
9.43654
5.53978
10.2417
49.1505
56.6464
16.7899
27.6756
45.9733
47.2989
33.3313
29.2935
60.8259
37.6119
71.9987
64.9263
61.3164
60.1475
64.3978
69.8701
56.482
15.3169
25.5916
32.8972
35.6373
27.0031
33.2632
25.421
64.5866
40.0293
35.1834
73.0631
62.1287
36.505
68.7095
37.9095
-20.1587
1.23301
-1.02299
-1.33815
-3.63682
0.194706
-3.08375
-1.72051
1.1486
0.222604
0.0829523
0.59354
0.521665
0.673682
0.0377872
0.661146
-0.229689
0.541835
0.583573
0.631505
-0.396052
2.02593
-1.3802
0.255616
2.20963
0.0917024
1.10632
0.310782
2.29958
0.40919
2.91474
1.11911
1.10822
-1.42379
1.66618
0.816705
0.545434
-2.2509
1.29917
0.868624
0.72744
0.731741
0.363744
0.0368653
1.13594
0.0526108
0.32505
0.0975776
-1.95122
1.59616
0.594479
0.772786
0.574453
1.29145
1.00406
0.380846
0.0237658
1.0506
0.81284
0.798451
-1.03741
1.44747
-0.280213
0.434725
0.283708
-0.17195
0.29387
0.414043
0.210022
-0.130034
0.398269
0.195869
0.120866
-0.0652794
-0.0121396
0.76319
0.129223
0.0320716
0.231136
-0.116762
-0.100691
0.122637
0.427146
0.625182
-0.0411936
0.0908739
0.734332
0.551648
0.0486462
1.40602
0.947031
-0.0500887
1.00168
1.8936
1.31178
2.14038
-0.106467
0.648707
-0.172027
0.448617
0.228984
0.293113
0.0308632
0.199033
0.193956
0.801321
-0.0255157
0.157025
0.16612
0.194179
0.0144647
-0.135884
0.718019
0.278431
1.12071
1.09778
-0.179686
0.445844
0.678837
0.928023
0.368163
1.11511
0.765952
0.181974
0.680145
0.738366
0.595188
0.946501
44.8558
62.2865
40.8047
23.3615
45.379
59.1866
35.7154
47.4498
70.6962
88.3226
77.9613
35.0753
76.4314
84.3367
68.8274
82.8042
44.3083
70.0498
59.6294
22.9568
39.2462
55.4381
37.2043
57.1842
4.20974
2.15936
8.65105
0.763926
4.91252
5.91544
1.18754
2.92031
57.7738
39.8288
12.4624
28.0565
48.9074
47.2948
32.027
21.3655
69.2022
31.9487
70.8928
52.0639
60.7594
62.0173
58.7002
62.7878
35.9959
4.65232
27.6195
6.80598
13.904
17.0832
12.8125
22.4838
49.5442
14.6632
33.0135
73.1468
50.2367
21.7198
61.4792
33.3746
34.6078
19.8389
7.59905
15.1534
20.2499
19.7125
21.6143
7.31885
4.09297
-1.95233
-2.95959
0.801687
2.50307
0.406579
0.577821
-0.65947
3.77208
-0.494348
0.590215
-0.23329
0.282719
-0.564616
-0.724096
-1.01795
2.65747
1.31153
-0.291919
-1.16873
2.01455
0.980372
0.768988
1.47796
4.77319
4.08584
5.25385
2.30679
2.39115
-2.98891
1.35404
7.58636
4.36124
1.18016
-0.881305
8.81207
7.1554
0.0406966
4.06607
-0.399135
1.71299
3.77437
1.65929
0.160391
-3.32397
5.5556
0.671368
1.20104
2.25632
0.415741
0.628575
1.04603
0.287894
0.301922
0.227821
-0.164963
39.723
34.6287
62.7136
14.2478
31.8837
45.9399
30.198
38.1708
27.2464
38.486
44.773
7.15595
26.4755
37.487
20.205
34.8336
67.709
66.6503
71.6752
37.9018
47.8894
67.0472
47.1521
60.5438
-12.0713
-13.8315
-6.91947
-17.6862
-10.873
-10.1358
-12.9467
-10.7026
21.0339
39.3797
10.8812
2.52646
19.8049
22.219
9.24747
18.4628
30.8628
8.97362
55.1024
52.4776
24.6571
11.4386
46.0799
33.565
38.0793
9.78728
-1.57206
5.37164
30.4469
13.2732
14.463
-2.7641
46.5862
20.0528
5.13039
44.991
33.0035
26.0392
28.2704
15.7169
-8.29572
0.517038
2.45396
-2.22123
-5.13341
-0.332337
-2.68508
0.229981
0.163358
0.343577
1.29156
-0.250613
-0.262526
-0.674321
0.539389
0.848966
-0.79957
2.05182
1.02041
1.71464
-1.80309
0.446955
-0.0186126
-1.25061
-3.77418
1.25937
-1.93424
-8.41052
-4.56424
-3.40628
-5.74535
-5.43051
-1.20809
1.52161
-1.51274
-1.22018
0.0617669
1.43536
-1.25902
-3.04918
-0.950261
-1.04977
-0.595851
-0.661088
1.45148
1.96513
-0.045219
-0.469427
-0.316798
1.51138
0.163055
-1.41397
-2.48916
0.191756
-4.8915
1.21312
1.53178
-8.20519
1.41711
-1.31999
4.22839
-1.60987
4.6702
5.07484
0.0279319
0.297564
-0.0565628
0.0215838
0.0856778
0.0536039
0.204653
0.172426
-0.0417081
1.00043
0.525272
1.59531
0.772582
0.586671
0.972322
1.10932
0.155329
1.35461
-0.998901
0.58076
-0.0282618
0.0178706
0.519611
0.104722
-0.874624
-0.00664258
-0.633642
0.139113
-0.696592
-0.785751
-0.170562
-0.160698
0.604337
-0.11173
0.216416
0.717225
0.832606
0.327337
0.448994
0.219009
0.481277
0.838394
0.607062
-0.122424
0.748037
0.633089
-0.340965
1.04393
0.150115
-0.00137609
-1.89888
0.79693
-0.109195
-0.191914
0.451965
-1.34945
0.158668
0.528602
-2.45209
1.33795
0.379057
-0.151139
1.66087
-3.79597
-0.646252
0.486777
-0.0130656
1.16284
0.277408
0.215439
0.332638
0.268539
0.286405
1.43762
0.520667
0.602834
0.590556
0.948434
0.635151
1.03104
0.0877031
0.255585
0.127562
0.350853
0.369305
0.216163
0.375966
0.257563
1.37068
-0.290076
0.523214
3.78632
-1.59954
0.214208
-2.79926
0.0884528
0.547065
0.15992
1.45057
0.589828
0.520134
0.40816
0.606291
0.974604
0.370142
0.493361
0.339996
0.187065
0.354294
0.276221
0.249895
0.432598
0.202953
1.41132
0.500264
0.939365
0.701004
1.07223
0.932149
0.587186
0.140963
0.412208
0.551365
0.312866
0.194752
0.387404
0.40872
0.512509
274.092
237.581
278.848
150.878
216.15
240.885
190.702
222.982
83.3806
-4.79408
72.0195
60.7155
18.6983
8.63775
40.9284
45.0792
203.285
126.461
71.548
40.5461
174.636
163.084
121.921
76.5178
79.1887
41.7562
46.6676
8.67968
36.0813
39.1501
-21.0379
-8.15886
166.285
214.979
97.4618
59.5671
156.351
205.604
109.282
117.806
159.107
61.0006
101.343
240.207
152.661
120.854
198.71
124.843
162.819
100.53
50.3181
46.0722
165.931
127.685
104.749
82.7166
151.374
43.4338
74.8678
96.8448
141.926
100.875
109.389
100.339
70.7118
63.6846
69.7036
36.3303
70.8465
51.4595
69.5077
64.4454
50.6363
44.1816
67.2385
11.1835
40.5993
53.4413
22.223
53.4478
67.5428
69.8126
70.234
29.7101
59.3879
52.5049
72.6983
69.4953
-16.1328
-8.70732
-16.6661
-19.5239
-15.4431
-11.8703
-14.6886
-12.9567
54.7434
58.725
16.3516
1.19352
45.6566
38.8154
8.65578
12.029
32.5927
5.85058
16.1
59.2655
59.0917
15.7925
62.3183
41.255
45.7617
7.19328
-4.74277
-19.148
22.006
3.28678
-3.72104
-12.8595
50.8365
-0.740014
4.28268
57.7904
42.0155
18.8133
58.4727
23.9764
-2.89607
0.514138
0.815427
0.0725997
-2.25894
2.02396
2.39787
1.80346
1.06943
0.197254
1.63145
0.321988
1.79044
1.1106
1.72572
1.31677
1.69971
-0.331861
0.176643
-0.83936
2.61263
0.602015
2.6203
1.98585
1.40246
-0.469342
0.983174
-5.4116
-0.238738
-0.498638
1.14677
-1.01067
2.83296
2.16122
5.15884
5.50151
1.79556
1.75873
4.7871
8.22634
1.56389
2.14446
0.619746
0.122919
2.50466
1.99606
1.30209
1.76264
3.32864
3.21613
7.64904
3.71708
5.07619
10.0506
7.79676
9.81494
2.95587
3.54626
3.92897
-0.354866
1.64179
1.05937
-0.48336
2.97962
47.4603
21.1406
28.2628
28.7362
24.2163
17.7338
24.2863
30.5109
10.5664
4.07506
2.74464
4.84733
6.61942
4.73602
5.29104
5.07225
17.4532
2.29703
9.39988
5.27207
9.11535
6.06051
6.97247
14.4315
13.2963
2.54594
5.82064
6.12573
5.05434
6.21296
5.83372
8.90634
10.1606
18.2225
11.9688
4.69276
15.3083
11.5356
12.706
14.4101
12.8152
5.48013
6.81036
15.2352
22.8662
6.06327
14.2907
3.25062
15.7144
14.3489
4.44156
7.39326
16.9271
17.736
7.88814
4.63009
19.2704
9.94493
4.9257
8.60306
5.24207
5.47608
5.1556
2.34895
17.2004
9.09929
21.5213
17.2466
16.6913
14.7966
19.0524
17.8422
1.94261
1.70248
7.93149
3.41329
0.0781983
-0.296631
1.97268
0.619727
27.0691
23.686
35.801
26.5235
26.5944
25.4726
29.2397
30.2911
17.0031
10.8491
19.8668
15.5115
15.0999
11.8118
17.2438
15.3107
7.45394
19.0969
16.0382
7.51712
10.3851
13.9539
7.09366
12.8232
3.7135
4.48875
11.5206
20.1288
4.64408
0.964022
12.738
14.2785
22.3443
18.5314
9.38122
22.8916
21.2249
16.152
20.2323
10.7634
22.9361
22.2155
5.76583
14.3774
19.8314
20.191
18.3448
15.4755
43.7233
37.2631
41.6915
29.0166
36.7708
42.7769
43.46
42.5723
28.9218
20.9846
31.9087
15.4883
24.7843
25.2705
21.2698
25.4334
38.1536
42.6465
46.5672
36.1909
40.3764
47.8762
48.0331
48.4614
8.54544
6.65016
17.624
-1.02896
6.81324
10.1101
-2.86067
9.14093
32.0061
40.5143
24.6869
18.6171
31.489
36.5046
21.5354
25.6324
34.6941
19.9557
36.963
43.0953
34.1871
27.5829
38.1837
35.1272
44.1577
21.5599
12.888
21.2156
29.5505
23.9771
23.8735
16.6343
44.4771
27.6584
18.9225
34.7413
37.3086
28.8477
31.2385
25.1343
14.1561
9.73777
11.2195
12.359
12.6334
10.8209
11.6186
7.53288
3.20605
-2.66389
-5.19026
4.38526
2.86236
-1.90768
3.62135
-1.08654
3.66387
-6.00095
-10.1419
1.72725
-1.01652
-4.28856
-0.252176
-6.17443
8.42967
4.38583
3.75505
3.24087
6.60637
3.49204
2.02813
4.24469
7.59895
6.51874
11.0897
8.05352
7.05253
6.27164
6.20082
7.35247
6.27813
6.59929
-4.69597
3.61363
4.44667
3.2963
2.47337
0.246797
8.48642
6.18756
4.65253
3.78438
8.1774
6.84453
5.54035
4.06151
3.89999
4.15097
4.75591
-3.37581
3.126
5.28276
2.03542
5.65722
18.7594
10.5107
26.7643
-1.50356
17.1816
18.1818
18.1847
23.6513
8.33723
3.69802
10.117
4.82357
5.38115
7.85667
6.28348
6.32841
34.1583
22.6748
48.4985
19.9116
34.1476
32.0404
40.2312
41.6965
3.46422
5.85256
7.10256
1.06227
3.42692
6.0147
5.40567
7.77413
10.623
24.2266
5.84662
6.13018
11.5347
14.7943
2.68975
6.18315
13.8347
7.73747
15.7428
26.7176
13.4716
10.0814
15.2264
15.725
28.7919
9.80439
5.64819
15.9496
16.0473
12.8135
13.1257
10.1304
31.876
18.0138
8.76242
21.7069
25.6641
16.2507
24.3931
10.0842
51.3995
55.3357
29.8351
26.5429
49.3566
46.96
19.9348
33.5636
49.8888
42.5216
29.8128
26.2177
44.9843
42.7936
27.5408
30.01
18.1899
20.4649
10.3336
6.75287
18.9753
17.3338
8.79376
13.2061
14.566
10.5517
4.2301
3.0095
9.81487
9.66512
4.70167
3.48342
51.5822
30.3247
36.4198
30.6057
24.7532
23.9788
29.3677
27.0637
45.0038
25.7287
27.5514
28.1582
26.5802
25.0319
28.4675
30.2094
16.9535
10.402
8.90184
3.29437
16.8431
9.69775
18.0106
8.92526
18.1134
4.39945
12.2784
20.9544
14.3039
13.2674
16.7003
15.1694
25.5731
17.7479
21.0935
19.1602
23.2267
19.5943
21.6509
22.2153
8.91012
-0.617392
4.30728
3.74268
5.98494
2.57814
5.19352
5.41572
17.9996
11.3709
13.7667
7.80044
16.8808
12.9816
14.4338
16.834
5.22505
1.81713
2.06889
-11.1528
-2.9738
0.282951
-7.25408
-1.54499
14.838
18.7213
10.5945
5.75061
11.8438
15.903
9.64
11.4594
12.3243
5.2429
6.90687
16.971
12.9369
8.52904
14.1978
11.5736
17.1444
4.68015
3.85842
4.39373
10.3933
8.82536
6.57627
6.02711
18.4314
5.97258
5.73337
11.7084
11.919
5.62065
9.60189
5.78655
513.989
474.984
351.668
131.746
442.912
476.716
316.952
371.174
370.326
265.024
286.448
150.039
313.39
345.55
217.011
249.519
213.021
254.392
60.6564
102.855
242.346
260.365
110.459
141.006
23.9735
50.4356
-22.9641
-48.0483
26.5776
42.9735
-55.299
-37.8382
329.006
230.596
81.1916
28.8928
265.656
248.788
39.2406
112.674
328.243
68.2994
267.768
226.464
278.064
177.346
321.893
220.542
220.241
114.841
118.862
60.582
164.617
96.4666
198.384
62.8689
224.011
90.5142
142.885
196.929
232.788
236.959
173.42
153.828
1.20633
1.60815
3.59225
2.2481
1.22008
1.12515
1.33918
0.932458
0.00229069
-2.94034
-3.84822
-2.28692
-1.63516
-1.92198
-1.74468
-2.40758
-0.5894
-8.14163
-5.59824
0.219054
-5.46691
-9.17583
-13.8274
-11.8159
0.883349
-0.596808
-32.5657
4.15075
-0.394181
-2.80818
-2.5341
-3.58048
1.26963
-0.770234
1.12272
-0.788593
1.37707
0.658804
-0.516693
-0.549635
0.973683
-1.45828
-4.9989
-2.78676
-0.269503
-1.39009
-1.88247
-3.6178
-1.84911
0.454975
0.172838
-5.98905
0.15284
-1.89519
-8.96419
-2.87426
-3.60122
-1.3438
-0.843353
-4.3907
-0.709334
-4.94225
-3.16695
-2.07997
45.7539
17.006
19.5252
25.1348
30.2388
24.667
22.1632
16.1593
4.39309
2.51959
2.60399
-0.352331
4.24689
3.23501
2.29414
1.09255
20.259
7.7387
4.36827
6.47142
14.9513
8.65806
5.42011
0.671593
9.62376
0.702367
3.11436
10.7919
6.18759
3.58208
1.50148
-0.11172
11.1177
5.46024
14.0381
3.24819
3.18596
-8.49589
2.23187
0.53923
9.12817
0.897241
5.63459
17.117
7.36674
3.37271
14.2714
12.0134
10.9632
1.43464
1.26927
4.6655
9.05519
0.801033
6.69082
2.33767
22.625
0.935927
0.17763
3.98929
14.7993
5.61784
7.41436
3.49421
-6.66668
-5.60583
0.115542
-3.98253
-6.30646
-2.65629
2.57491
-2.76687
0.970119
2.3589
-0.40066
0.683868
1.58727
1.98708
1.34962
3.2383
0.747363
0.764108
-0.692455
0.41626
0.646717
-0.458897
0.352981
0.653734
-1.80229
-0.328628
1.04812
-1.306
-2.10164
1.46176
2.13568
0.917529
-3.028
0.150564
-4.81784
-0.40934
-1.38034
-0.945918
-0.917979
-0.912359
-1.59929
-0.25706
0.0361912
1.47188
-0.326519
0.493271
0.0205409
1.05076
1.28998
0.074214
-0.774947
0.563431
0.297709
-0.354301
-0.0172619
-0.10637
2.03852
-0.0639576
0.0363417
1.99119
1.5067
-0.00456104
1.06282
0.541466
18.8151
20.076
21.12
16.4294
18.4188
20.0528
18.4216
19.9151
20.6923
20.2892
21.1607
20.2651
21.3943
20.1896
22.618
22.0486
22.0289
21.8342
23.163
21.8968
22.2931
21.9309
23.074
23.0427
15.383
18.3461
18.3131
14.8206
16.2311
17.2928
16.534
17.85
19.7196
20.6496
17.2994
19.1298
20.2526
20.6
18.1856
17.8709
20.9319
20.5798
21.5764
21.3484
21.2637
22.0534
21.8265
21.9762
21.3848
18.0003
19.4489
19.6011
19.3965
18.7995
19.7229
19.7879
21.8983
21.165
20.6188
22.8928
23.267
21.5281
23.277
21.5199
427.451
149.093
422.402
225.633
330.364
352.772
366.206
361.533
159.854
75.4025
212.832
47.6517
135.699
172.021
131.865
155.171
426.393
142.196
191.939
71.5833
203.046
239.287
120.965
151.422
61.7394
7.79238
29.2376
12.9628
3.00634
6.83314
19.0098
18.4886
224.39
361.715
183.844
41.3253
238.734
331.639
-50.5193
218.389
273.468
54.2229
222.033
397.109
353.564
106.303
300.631
151.909
281.081
114.651
37.148
45.6406
171.059
124.764
66.1833
11.2384
263.652
52.5839
24.7993
131.973
84.2984
58.5432
115.353
120.396
-12.0755
3.08481
-38.9296
-5.36406
-18.8467
11.9667
47.3409
70.803
-32.9425
-108.976
-19.6246
-19.5517
-15.7513
-6.76063
28.6165
107.295
-20.9297
-18.8753
8.82901
26.4884
-28.1787
-6.67696
53.699
20.2988
1.07879
-8.5027
24.9172
3.52878
3.47714
-5.67607
6.11392
31.7313
-12.0877
11.0336
-3.4659
-6.33811
22.8991
30.0175
3.35591
5.51157
-9.49981
-12.4925
-27.1876
-18.4881
55.2692
48.1354
-52.9678
0.983523
31.2113
0.0475226
-7.3188
19.6029
-1.93978
12.2017
-9.27256
-2.9121
104.641
54.4352
13.4747
103.105
60.0608
28.4036
78.0272
28.5367
38.5753
27.3745
27.424
22.6778
29.0388
30.2843
26.4808
26.4624
20.9893
16.6133
14.465
7.93382
17.8885
17.8936
14.5727
14.0494
16.4859
13.0138
12.3828
12.4642
11.5341
16.1993
8.86193
13.3086
5.55368
2.70635
1.68245
2.01615
2.48349
1.28319
3.43848
1.67899
23.0476
20.4198
13.4722
8.15829
19.8642
18.878
10.4164
14.4429
22.138
10.2888
16.6449
21.6063
16.7294
13.0826
18.0336
15.583
17.2329
12.3891
5.60911
4.75622
10.7381
10.0472
7.10979
4.62275
16.1343
7.35195
6.3408
12.131
7.66758
8.9909
9.97187
6.51436
14.8418
20.9746
17.7688
16.7276
32.8512
22.8628
30.232
28.5603
17.517
16.291
18.5984
11.6358
21.9512
19.3631
16.9997
17.4138
29.239
26.7348
18.1468
17.9064
30.9877
30.1664
27.3058
19.5764
2.44009
3.12623
8.27166
-3.12483
2.55945
4.79689
-0.222011
5.46449
25.0709
32.6345
8.97265
11.8136
19.103
23.3483
10.8563
11.0331
20.7919
12.7596
23.1602
25.7085
22.0775
19.1182
23.9881
24.0512
26.452
4.76237
10.0164
4.03132
18.1289
12.3788
14.2299
12.2928
24.9448
19.3358
13.6567
19.0481
22.681
15.5187
18.1615
10.5558
-0.155292
0.366738
4.27252
3.08418
3.22186
1.34284
5.18219
4.19811
1.82696
0.953219
5.62125
7.46897
4.2546
2.87573
5.18461
6.05997
9.28211
10.511
13.0514
9.11589
11.2611
11.0281
9.16272
13.0807
0.0531991
6.22631
5.31133
-2.57343
1.33036
0.142161
2.91383
2.93867
3.74959
7.55941
5.99977
6.04194
5.52258
5.89299
4.83326
4.21208
2.31769
6.29379
6.31426
5.82497
5.25665
7.12488
5.80642
8.11518
7.91402