/*--------------------------------*- C++ -*----------------------------------*\
| =========                 |                                                 |
| \\      /  F ield         | OpenFOAM: The Open Source CFD Toolbox           |
|  \\    /   O peration     | Version:  2506                                  |
|   \\  /    A nd           | Website:  www.openfoam.com                      |
|    \\/     M anipulation  |                                                 |
\*---------------------------------------------------------------------------*/
FoamFile
{
    version     2.0;
    format      ascii;
    arch        "LSB;label=32;scalar=64";
    class       volScalarField;
    location    "1200";
    object      p;
}
// * * * * * * * * * * * * * * * * * * * * * * * * * * * * * * * * * * * * * //

dimensions      [0 2 -2 0 0 0 0];

internalField   nonuniform List<scalar> 
45440
(
0.357278
0.3634
0.437381
0.379573
0.363201
0.382016
0.400506
0.409285
0.371681
0.421789
0.459573
0.382724
0.394371
0.418073
0.417689
0.427179
0.481479
0.480002
0.495874
0.472833
0.47921
0.492164
0.487597
0.487411
0.402661
0.390331
0.458192
0.435945
0.412622
0.426905
0.43277
0.441097
0.380117
0.442279
0.38959
0.378779
0.400555
0.413577
0.371649
0.403804
0.398228
0.401622
0.467137
0.456283
0.409347
0.420115
0.433529
0.440975
0.459479
0.413944
0.404634
0.453271
0.45318
0.421139
0.449803
0.432519
0.466271
0.463071
0.406792
0.459344
0.465749
0.457975
0.457898
0.438216
0.0684064
0.186036
0.182219
0.165139
0.18169
0.175025
0.181435
0.217038
0.292083
0.379983
0.331556
0.356564
0.326328
0.362264
0.350185
0.363203
0.265329
0.316271
0.287423
0.333043
0.320249
0.310139
0.321607
0.348086
0.27378
0.360413
0.354253
0.386365
0.339426
0.361229
0.380975
0.39638
0.250614
0.249834
0.248806
0.313227
0.280503
0.239391
0.283221
0.271423
0.265407
0.352269
0.328841
0.252337
0.286292
0.316583
0.26888
0.309711
0.264842
0.298444
0.35208
0.345614
0.256658
0.293044
0.327686
0.316648
0.287254
0.37191
0.364425
0.348682
0.310108
0.338302
0.351466
0.342803
0.495945
0.485223
0.482468
0.471701
0.486035
0.479072
0.479576
0.469871
0.476664
0.448083
0.399964
0.4041
0.448717
0.448174
0.425056
0.404451
0.466953
0.387501
0.446123
0.419893
0.436249
0.425433
0.435528
0.410623
0.445332
0.387878
0.40848
0.401553
0.424404
0.414937
0.408977
0.38743
0.465793
0.46622
0.461509
0.426343
0.453962
0.455881
0.442916
0.451411
0.459488
0.41398
0.408341
0.453688
0.441831
0.422885
0.444627
0.414006
0.467883
0.456107
0.398006
0.416237
0.456902
0.441681
0.426984
0.426367
0.449785
0.393613
0.387286
0.383487
0.431741
0.418715
0.398242
0.380069
0.0844312
0.199519
0.180945
0.180851
0.128185
0.156413
0.174079
0.198866
0.30777
0.40629
0.366822
0.391846
0.33918
0.343322
0.352511
0.356349
0.294864
0.381629
0.419705
0.379387
0.3329
0.353377
0.360965
0.370408
0.287317
0.390228
0.367819
0.369666
0.321644
0.332369
0.345119
0.357774
0.238467
0.24354
0.232168
0.33578
0.252595
0.239165
0.27883
0.254465
0.244164
0.34279
0.334199
0.257704
0.26816
0.315455
0.287133
0.32655
0.27546
0.262345
0.342777
0.346183
0.274265
0.284624
0.323827
0.330141
0.281059
0.36192
0.359753
0.34766
0.325334
0.34678
0.338146
0.361214
0.601841
0.575453
0.544895
0.647992
0.619564
0.599062
0.634344
0.605801
0.534567
0.492677
0.471983
0.542329
0.543818
0.525063
0.538005
0.485406
0.480129
0.442169
0.399667
0.45461
0.443868
0.425735
0.426472
0.401681
0.684834
0.61505
0.562644
0.701604
0.65905
0.628627
0.633281
0.582941
0.593451
0.537559
0.661606
0.598472
0.594334
0.601933
0.609362
0.642059
0.572765
0.576489
0.460984
0.507744
0.562065
0.553971
0.508193
0.502061
0.524076
0.648445
0.594547
0.512038
0.567481
0.612828
0.526701
0.606951
0.492189
0.478035
0.538583
0.443527
0.488349
0.490668
0.483294
0.514424
0.358388
0.405062
0.313006
0.405313
0.356828
0.372431
0.374166
0.365282
0.430565
0.466579
0.364841
0.500958
0.452369
0.445057
0.477888
0.43953
0.23803
0.251928
0.121429
0.284448
0.234357
0.206147
0.211465
0.193728
0.50207
0.578842
0.456139
0.615709
0.518325
0.505869
0.542908
0.576986
0.412913
0.306872
0.418772
0.493456
0.42755
0.390179
0.487215
0.433882
0.402281
0.500381
0.336272
0.29946
0.387114
0.426835
0.346184
0.344608
0.302831
0.450939
0.534162
0.348229
0.364115
0.452116
0.376053
0.46696
0.303941
0.375588
0.498295
0.325802
0.309247
0.3348
0.347412
0.419992
0.507871
0.496363
0.494331
0.495981
0.488281
0.488652
0.499259
0.494654
0.468128
0.40817
0.444957
0.404882
0.417984
0.435287
0.416761
0.4428
0.505108
0.473287
0.489042
0.49184
0.496717
0.487687
0.501699
0.494092
0.482391
0.436073
0.476583
0.444461
0.466055
0.450718
0.473539
0.458933
0.465278
0.501057
0.484655
0.419285
0.472887
0.48265
0.462871
0.473971
0.469834
0.414391
0.470159
0.498255
0.471214
0.438316
0.477772
0.463308
0.500806
0.495846
0.429096
0.493341
0.497989
0.483095
0.483644
0.465675
0.499192
0.485972
0.431078
0.468848
0.491569
0.482587
0.46108
0.452559
0.106942
0.165829
0.0866036
0.169733
0.132224
0.134765
0.135019
0.119766
0.218028
0.263479
0.266766
0.313592
0.271473
0.269141
0.2789
0.283729
0.0848186
0.205814
0.0740919
0.183098
0.134848
0.140416
0.124484
0.131635
0.278903
0.333784
0.284884
0.381407
0.300388
0.313252
0.327492
0.318962
0.208345
0.125703
0.212977
0.279573
0.213668
0.167458
0.239429
0.225303
0.203646
0.288038
0.20658
0.112674
0.209132
0.238763
0.172689
0.223457
0.113984
0.232221
0.291406
0.223965
0.184529
0.222135
0.222341
0.256589
0.109811
0.220031
0.29527
0.215383
0.14869
0.226451
0.213213
0.267078
0.48836
0.465659
0.488547
0.468197
0.482524
0.483028
0.48809
0.484418
0.404476
0.366187
0.444378
0.396219
0.415905
0.404932
0.425797
0.419833
0.492531
0.484154
0.498411
0.497916
0.495323
0.489679
0.500971
0.49283
0.462257
0.423316
0.505123
0.468314
0.457257
0.447286
0.492231
0.479939
0.453673
0.484439
0.456727
0.425572
0.470379
0.4818
0.425153
0.452548
0.449562
0.420542
0.462572
0.48358
0.466394
0.441616
0.470928
0.467437
0.489275
0.478092
0.442919
0.498575
0.482369
0.470202
0.471357
0.458783
0.487166
0.484348
0.432472
0.466403
0.472651
0.463389
0.47894
0.467374
0.0446764
0.0296428
0.151801
0.176839
0.0666527
0.0649525
0.128364
0.125364
0.0300783
0.0304943
0.156273
0.172643
0.0870867
0.0831944
0.180351
0.166888
0.226633
0.254924
0.300354
0.35427
0.248732
0.246734
0.309986
0.302849
0.270704
0.268625
0.372662
0.406122
0.300506
0.298045
0.356584
0.356164
0.0729875
0.161262
0.188396
0.201056
0.163305
0.158189
0.150821
0.193058
0.0753198
0.196784
0.173177
0.168658
0.142806
0.158787
0.133934
0.166872
0.218514
0.246139
0.267062
0.336069
0.269185
0.245981
0.276818
0.268224
0.219275
0.333732
0.263593
0.244607
0.243504
0.282816
0.255306
0.261665
0.0987949
0.236015
0.218798
0.212514
0.211301
0.244306
0.182295
0.227639
0.335282
0.427143
0.40377
0.391312
0.391957
0.423258
0.397085
0.410711
0.290448
0.384831
0.355787
0.364285
0.344591
0.375179
0.340079
0.368806
0.286782
0.372614
0.36778
0.365292
0.338071
0.359629
0.343202
0.366225
0.28124
0.288178
0.280225
0.349859
0.299676
0.266748
0.303839
0.302528
0.3334
0.38792
0.399686
0.329059
0.321971
0.356232
0.326023
0.350174
0.288667
0.260166
0.362435
0.347434
0.307386
0.283672
0.33398
0.33317
0.320817
0.36578
0.383441
0.396229
0.342251
0.354105
0.380846
0.365999
0.380874
0.417758
0.457791
0.385039
0.386862
0.421399
0.406428
0.427399
0.436355
0.466643
0.527437
0.412193
0.444251
0.49813
0.460821
0.494136
0.518267
0.560488
0.583978
0.49635
0.529583
0.581836
0.534022
0.572856
0.385858
0.392085
0.436091
0.396206
0.38143
0.413053
0.405189
0.422639
0.409125
0.453167
0.390593
0.390268
0.440767
0.43642
0.400478
0.413595
0.454887
0.440065
0.55307
0.500367
0.456133
0.459731
0.478888
0.498292
0.468445
0.407653
0.41319
0.459754
0.449937
0.426305
0.442036
0.426327
0.500306
0.484965
0.450932
0.544876
0.49659
0.480449
0.504835
0.463204
0.482027
0.521794
0.516131
0.463551
0.484427
0.499825
0.478336
0.49606
0.559207
0.557373
0.613363
0.489284
0.550554
0.56171
0.539765
0.567037
0.565972
0.631956
0.620522
0.539622
0.576382
0.606944
0.568168
0.60365
0.435593
0.427601
0.456958
0.386973
0.426267
0.4327
0.42027
0.432383
0.521844
0.522333
0.458679
0.476907
0.513735
0.501689
0.484423
0.473886
0.535543
0.489702
0.600776
0.54488
0.535294
0.531016
0.574273
0.577495
0.517388
0.452428
0.468926
0.489383
0.498705
0.469455
0.495176
0.464835
0.538914
0.509684
0.488307
0.601402
0.548937
0.515002
0.570716
0.526774
0.0509116
0.046164
0.180612
0.164614
0.093688
0.0881018
0.161017
0.163868
0.0416546
0.0353798
0.23706
0.183861
0.104519
0.115534
0.186895
0.218213
0.31551
0.359379
0.463193
0.402264
0.354667
0.377
0.419393
0.448904
0.247568
0.269816
0.350224
0.324941
0.273147
0.285322
0.327109
0.339376
0.0977795
0.218336
0.191803
0.202185
0.168543
0.182202
0.185506
0.199824
0.09777
0.203466
0.265221
0.222237
0.187211
0.206026
0.202909
0.245212
0.280272
0.255536
0.271526
0.362126
0.265861
0.252979
0.301602
0.277896
0.295937
0.387046
0.283213
0.347297
0.316958
0.324462
0.306534
0.30442
0.488769
0.486382
0.476071
0.476483
0.479199
0.481396
0.470822
0.476478
0.496405
0.527458
0.484855
0.536625
0.507815
0.508992
0.505607
0.506894
0.425856
0.442712
0.376094
0.405781
0.422231
0.42258
0.416528
0.415098
0.481122
0.524113
0.433477
0.478666
0.489076
0.483258
0.477665
0.472252
0.48793
0.451469
0.465334
0.508113
0.474294
0.463082
0.495692
0.468097
0.487288
0.50692
0.468645
0.457506
0.476976
0.48374
0.470126
0.470714
0.448547
0.461686
0.49431
0.431946
0.440096
0.462159
0.442879
0.468837
0.453776
0.431049
0.495992
0.457533
0.438863
0.443319
0.454732
0.474053
0.0528237
0.160163
0.0492773
0.194041
0.106358
0.112249
0.0998914
0.109422
0.232685
0.306834
0.24393
0.352866
0.272391
0.269166
0.292969
0.295194
0.0500829
0.167396
0.0673961
0.189669
0.12677
0.123659
0.126685
0.134172
0.276708
0.381331
0.298416
0.41304
0.335097
0.336572
0.344653
0.348048
0.196128
0.116004
0.22482
0.310052
0.198753
0.166194
0.274726
0.224695
0.194742
0.307196
0.207612
0.115651
0.198988
0.255496
0.153912
0.209569
0.122769
0.220631
0.321192
0.243513
0.156211
0.222356
0.229716
0.272507
0.129126
0.245306
0.328038
0.217468
0.183345
0.221223
0.215294
0.274095
0.464737
0.445006
0.492669
0.443574
0.459488
0.455353
0.459308
0.463773
0.407406
0.360776
0.383107
0.353918
0.384574
0.381148
0.37826
0.366482
0.511266
0.43347
0.502983
0.441636
0.472976
0.469838
0.472227
0.465466
0.412531
0.361252
0.391038
0.371319
0.393869
0.383408
0.381404
0.379893
0.426183
0.476978
0.429789
0.387006
0.424002
0.445654
0.405813
0.422268
0.418788
0.380068
0.415178
0.464746
0.416702
0.392872
0.447121
0.41483
0.474155
0.428408
0.380259
0.416299
0.450949
0.432397
0.425532
0.408644
0.472894
0.419813
0.372794
0.403112
0.44732
0.415595
0.414403
0.377225
0.0920643
0.197674
0.183966
0.180083
0.125564
0.15314
0.15992
0.179785
0.327473
0.462875
0.393149
0.415494
0.378679
0.40092
0.392354
0.408546
0.245398
0.340806
0.313547
0.323052
0.295241
0.329298
0.310867
0.318219
0.264743
0.36227
0.328287
0.34079
0.305786
0.332816
0.31648
0.332742
0.244297
0.224099
0.224342
0.332315
0.258315
0.239777
0.282813
0.250248
0.26452
0.364419
0.359032
0.232553
0.286281
0.351102
0.274516
0.335376
0.231307
0.243201
0.344315
0.315006
0.255026
0.262491
0.299061
0.309828
0.244828
0.326118
0.361183
0.356624
0.304649
0.32375
0.341068
0.350504
0.019574
0.0269607
0.0194941
0.139261
0.0371686
-0.00285525
0.0640551
0.0365865
0.0317873
0.0376733
0.0323173
0.187359
0.0676358
0.0117395
0.108847
0.0603847
0.0242994
0.0291851
0.0106614
0.127032
0.0406124
0.0123899
0.0808917
0.0591522
0.24505
0.30103
0.243358
0.385027
0.281176
0.247361
0.315365
0.295905
0.0503858
0.0487842
0.141911
0.168724
0.0852166
0.123478
0.16777
0.105797
0.000131758
0.128431
0.0162061
0.0138709
0.0382229
0.149012
0.0295956
0.0587248
0.0626961
0.173997
0.215306
0.193267
0.122049
0.142117
0.157351
0.237087
0.027813
0.168894
0.176044
0.0611702
0.127148
0.134916
0.100016
0.165482
0.490295
0.489967
0.48685
0.47647
0.487293
0.490475
0.482016
0.484483
0.495414
0.486703
0.487766
0.488744
0.483646
0.488803
0.489041
0.491106
0.494132
0.498116
0.517383
0.524764
0.505445
0.508208
0.51533
0.518255
0.473862
0.495728
0.524431
0.482959
0.482301
0.498609
0.507441
0.518575
0.492089
0.487982
0.477595
0.480337
0.48532
0.483128
0.491321
0.486513
0.495067
0.492033
0.494507
0.491752
0.490432
0.481784
0.490549
0.490327
0.486557
0.494421
0.495734
0.50281
0.505608
0.497186
0.506315
0.486223
0.490235
0.516276
0.503355
0.499743
0.500446
0.515421
0.495687
0.500275
0.655843
0.55755
0.673034
0.683191
0.642151
0.608479
0.681646
0.627786
0.46699
0.376376
0.424405
0.421524
0.437986
0.419928
0.44096
0.410248
0.6383
0.488994
0.554218
0.601436
0.591149
0.554581
0.608545
0.544887
0.695262
0.514387
0.634071
0.666484
0.652237
0.619764
0.690697
0.585488
0.526765
0.63728
0.653791
0.527587
0.562607
0.613387
0.551595
0.618032
0.503605
0.490039
0.476363
0.598815
0.50862
0.48456
0.546011
0.505997
0.677724
0.701921
0.532038
0.666002
0.678581
0.622512
0.62785
0.61195
0.602055
0.581183
0.489406
0.477348
0.57695
0.585528
0.527001
0.509306
0.156535
0.289908
0.214468
0.295304
0.246486
0.249014
0.24321
0.266935
0.408607
0.506527
0.437626
0.540691
0.469689
0.478953
0.50504
0.513477
0.303916
0.385487
0.347399
0.405815
0.359743
0.353599
0.361735
0.371196
0.468869
0.579738
0.493736
0.630305
0.559383
0.535951
0.568384
0.570363
0.358206
0.319431
0.414431
0.509138
0.391028
0.346403
0.438401
0.403326
0.377094
0.514684
0.409907
0.31655
0.406802
0.474657
0.340558
0.412163
0.325309
0.409402
0.540129
0.439968
0.35513
0.411356
0.434206
0.499109
0.334093
0.452779
0.543639
0.432284
0.397921
0.423614
0.421802
0.478305
0.610591
0.621972
0.562883
0.617268
0.620403
0.604203
0.610728
0.59993
0.637544
0.654467
0.594674
0.658335
0.651742
0.623017
0.636455
0.611328
0.522794
0.537257
0.494005
0.544017
0.523145
0.5119
0.512903
0.504092
0.602116
0.637863
0.58499
0.576167
0.613409
0.604465
0.58895
0.58294
0.631897
0.567177
0.630272
0.650284
0.620777
0.60505
0.636199
0.609317
0.610662
0.629965
0.558621
0.549487
0.602857
0.606405
0.577328
0.578106
0.557363
0.619129
0.62707
0.556885
0.579964
0.600353
0.581274
0.599676
0.539792
0.549011
0.614976
0.548107
0.543973
0.566575
0.561859
0.60526
0.0300565
0.0385855
0.0309807
0.15172
0.0481066
0.0314044
0.0901282
0.0654078
0.0334696
0.0609844
0.0471229
0.223785
0.0688235
0.0346173
0.123105
0.0930584
0.033668
0.035653
0.0340001
0.178515
0.0597818
0.028388
0.0984352
0.0581059
0.297314
0.352061
0.320397
0.452469
0.336701
0.324122
0.367302
0.346717
0.0498379
0.0531514
0.189063
0.227253
0.101966
0.097833
0.176331
0.166839
0.0296912
0.196312
0.0303031
0.0256927
0.066131
0.11553
0.035957
0.0645575
0.0986262
0.221028
0.25795
0.233529
0.16824
0.203786
0.204141
0.24883
0.0633184
0.205571
0.237367
0.0683108
0.107017
0.177662
0.110519
0.192132
0.480431
0.46491
0.457469
0.478777
0.478082
0.47082
0.477282
0.465736
0.427207
0.372591
0.376434
0.394555
0.40999
0.394236
0.398931
0.385439
0.422582
0.372046
0.37387
0.385083
0.395069
0.383503
0.391017
0.380582
0.461356
0.410104
0.397979
0.414235
0.433726
0.418834
0.426252
0.410753
0.44867
0.438715
0.465825
0.423503
0.443973
0.450677
0.448758
0.453042
0.435308
0.404647
0.385207
0.430244
0.431559
0.40722
0.424434
0.397403
0.436458
0.460721
0.415635
0.408216
0.440114
0.44755
0.415179
0.42257
0.425744
0.394513
0.400825
0.38049
0.401166
0.402371
0.394711
0.387893
0.0896461
0.193553
0.201972
0.2124
0.145829
0.170042
0.184899
0.203982
0.277422
0.345172
0.343991
0.357673
0.323833
0.328998
0.3393
0.340583
0.279008
0.338365
0.347491
0.379364
0.307021
0.33091
0.349169
0.358157
0.303454
0.369663
0.390792
0.397114
0.343337
0.360114
0.369541
0.377992
0.247195
0.24158
0.251311
0.332572
0.270472
0.244569
0.28746
0.272229
0.258985
0.348314
0.333289
0.264433
0.279448
0.31742
0.279237
0.320795
0.279156
0.282151
0.358483
0.36554
0.288049
0.295411
0.327179
0.340689
0.292006
0.37253
0.365137
0.347739
0.325076
0.346767
0.346263
0.354631
0.0710024
0.0514589
0.226098
0.225866
0.119838
0.116793
0.190217
0.191469
0.0655828
0.0609648
0.187855
0.246479
0.115245
0.112847
0.207306
0.184094
0.305333
0.29029
0.359106
0.397557
0.319731
0.298165
0.343818
0.3346
0.383745
0.397647
0.501827
0.592769
0.423278
0.413263
0.515816
0.515838
0.131066
0.24781
0.303107
0.283727
0.205741
0.241008
0.254657
0.281904
0.109155
0.266373
0.209225
0.218412
0.191771
0.239077
0.168961
0.230892
0.280462
0.349193
0.342175
0.413554
0.346372
0.345001
0.388036
0.371848
0.272731
0.380104
0.348817
0.269522
0.297233
0.348079
0.280726
0.344018
0.615319
0.551419
0.636996
0.669487
0.607769
0.591801
0.654875
0.618055
0.47575
0.40385
0.469376
0.444648
0.445013
0.437275
0.466176
0.451218
0.651646
0.553992
0.651322
0.682475
0.636382
0.609648
0.668957
0.637802
0.707545
0.551894
0.695056
0.677227
0.63847
0.623179
0.709377
0.658266
0.525128
0.627702
0.63795
0.52131
0.559971
0.615643
0.565297
0.620941
0.513496
0.508152
0.517387
0.605093
0.535904
0.512711
0.552998
0.531241
0.667992
0.702972
0.560755
0.693993
0.692156
0.655478
0.650367
0.627889
0.634583
0.659711
0.53011
0.538569
0.624775
0.627945
0.558351
0.558361
0.595795
0.549631
0.556873
0.631466
0.57605
0.548014
0.596673
0.554134
0.480164
0.371505
0.415922
0.441669
0.449078
0.418213
0.449381
0.404775
0.506424
0.430426
0.431334
0.505237
0.479868
0.448432
0.47834
0.438671
0.663064
0.538309
0.588208
0.677996
0.647261
0.596752
0.66726
0.604351
0.528458
0.537101
0.616818
0.543701
0.537341
0.56554
0.559992
0.571785
0.4919
0.497194
0.446278
0.504164
0.492009
0.499679
0.503956
0.481213
0.544069
0.638503
0.545576
0.565141
0.578034
0.577944
0.557966
0.573394
0.50524
0.51575
0.494233
0.435337
0.499166
0.512184
0.477492
0.486236
0.0612998
0.23244
0.236183
0.287548
0.220686
0.246374
0.289993
0.29907
0.323297
0.389408
0.405553
0.473064
0.395591
0.400819
0.435478
0.423277
0.317911
0.393993
0.346681
0.408655
0.377171
0.367308
0.391897
0.396932
0.507193
0.553546
0.513621
0.656068
0.566639
0.531736
0.591887
0.571209
0.334181
0.304718
0.401367
0.462557
0.378889
0.338668
0.405106
0.398514
0.336507
0.464326
0.382413
0.306635
0.369045
0.404428
0.346173
0.398939
0.350996
0.452162
0.517393
0.475218
0.396334
0.436814
0.461898
0.474933
0.348802
0.466974
0.485608
0.424371
0.396904
0.439916
0.436569
0.461971
0.484709
0.511245
0.526522
0.486179
0.49651
0.504854
0.49415
0.519684
0.555804
0.59894
0.607918
0.564741
0.571541
0.594982
0.56962
0.602262
0.558138
0.58429
0.553551
0.484877
0.535921
0.570214
0.525056
0.559796
0.46099
0.494183
0.445999
0.417776
0.477944
0.474724
0.449036
0.444785
0.534545
0.523439
0.497657
0.537867
0.529245
0.521889
0.514494
0.503715
0.545984
0.544751
0.596471
0.545145
0.5507
0.560703
0.553747
0.569765
0.515839
0.477239
0.513815
0.476449
0.497578
0.494637
0.488724
0.499737
0.550937
0.483723
0.532004
0.587689
0.539735
0.513017
0.554789
0.538005
0.052963
0.176647
0.0607065
0.159598
0.13079
0.119133
0.126599
0.113182
0.306903
0.432253
0.328786
0.380779
0.390135
0.381052
0.384709
0.369266
0.0624061
0.195177
0.0682452
0.182101
0.134229
0.135859
0.135303
0.125658
0.267476
0.367755
0.28197
0.359046
0.341341
0.32418
0.342577
0.32552
0.251487
0.131358
0.239514
0.347125
0.248004
0.18438
0.274031
0.231271
0.247609
0.343362
0.264146
0.127897
0.241026
0.315581
0.195895
0.26875
0.130964
0.238059
0.351283
0.246281
0.182213
0.223595
0.248747
0.287393
0.120219
0.23358
0.333172
0.256782
0.185208
0.243202
0.270251
0.296706
0.497994
0.520017
0.483718
0.496541
0.507993
0.509241
0.48978
0.494678
0.549085
0.587969
0.544944
0.545267
0.557725
0.562041
0.528857
0.540798
0.463234
0.489309
0.391121
0.414917
0.466301
0.46698
0.421832
0.425862
0.48127
0.503781
0.437501
0.447713
0.475799
0.478756
0.448307
0.450554
0.528452
0.48169
0.499393
0.520504
0.512772
0.494362
0.520769
0.50237
0.533974
0.524338
0.518724
0.486985
0.519441
0.526091
0.491132
0.519888
0.464009
0.479942
0.495625
0.441288
0.46801
0.484695
0.467386
0.480581
0.469689
0.441887
0.502717
0.487676
0.471434
0.470714
0.475648
0.492394
0.0733296
0.171056
0.0855468
0.184906
0.129378
0.134032
0.135756
0.132983
0.250797
0.324745
0.306583
0.377627
0.304698
0.287044
0.324582
0.323968
0.0718992
0.253399
0.141449
0.242137
0.153034
0.127593
0.14887
0.157361
0.289582
0.384256
0.331192
0.3842
0.333524
0.33352
0.338296
0.342673
0.221671
0.150831
0.23798
0.32136
0.238377
0.188028
0.277294
0.241252
0.216613
0.320832
0.245
0.139999
0.242134
0.294222
0.17717
0.258515
0.13944
0.24021
0.344498
0.260121
0.204957
0.245005
0.246765
0.291131
0.137528
0.263801
0.341171
0.267543
0.202573
0.257645
0.249498
0.32838
0.491577
0.470766
0.534435
0.548614
0.502404
0.498687
0.536444
0.528642
0.431294
0.372437
0.480717
0.450979
0.429758
0.428093
0.489354
0.482953
0.551229
0.53959
0.590592
0.636425
0.5658
0.55385
0.600868
0.589471
0.615745
0.550373
0.677571
0.708789
0.62057
0.60757
0.683613
0.664997
0.484678
0.535379
0.550588
0.515207
0.518303
0.54048
0.495979
0.543083
0.483115
0.5065
0.489631
0.528806
0.51259
0.502761
0.487499
0.507308
0.564494
0.591746
0.55883
0.651361
0.594353
0.578702
0.595368
0.582536
0.554072
0.635081
0.548124
0.537158
0.563664
0.581114
0.558222
0.569337
0.0369757
0.0148125
0.171907
0.195362
0.0902927
0.0730695
0.186011
0.174317
0.0174499
0.0486862
0.228513
0.296154
0.116731
0.0984984
0.247074
0.227695
0.258856
0.30765
0.338169
0.403563
0.303048
0.29973
0.342641
0.332954
0.402318
0.497321
0.504263
0.641808
0.46035
0.444226
0.518764
0.49756
0.0977619
0.207373
0.249307
0.276385
0.221673
0.232062
0.21912
0.245486
0.0941992
0.269523
0.231252
0.210895
0.201677
0.253202
0.173052
0.23035
0.259915
0.335967
0.376989
0.409172
0.302303
0.322857
0.369332
0.402923
0.255176
0.397879
0.359305
0.294181
0.311308
0.356525
0.309576
0.391172
0.485799
0.466191
0.508521
0.469942
0.477858
0.480512
0.484113
0.488173
0.435724
0.392964
0.462984
0.401136
0.420335
0.419881
0.42044
0.424051
0.539654
0.515969
0.571827
0.500075
0.526263
0.535319
0.534549
0.543953
0.447561
0.401573
0.452245
0.422541
0.428687
0.428418
0.424684
0.425615
0.454849
0.499269
0.460739
0.424262
0.459501
0.480939
0.44181
0.461397
0.454929
0.424268
0.480385
0.505967
0.463619
0.448593
0.486753
0.476066
0.497464
0.462133
0.424832
0.470114
0.487056
0.464363
0.472443
0.445871
0.506081
0.473655
0.426461
0.484503
0.494152
0.475899
0.477355
0.457334
0.0778391
0.201952
0.0408187
0.203379
0.142485
0.142987
0.135766
0.14225
0.282425
0.334557
0.255821
0.343965
0.302329
0.285878
0.303487
0.295833
0.0267755
0.16803
0.042501
0.164205
0.13448
0.0993415
0.133634
0.10777
0.280112
0.349702
0.268808
0.369534
0.307392
0.299604
0.301414
0.315828
0.230347
0.130408
0.232708
0.305004
0.233856
0.174344
0.297318
0.230064
0.23687
0.292543
0.198474
0.125055
0.236326
0.266134
0.169483
0.225755
0.131688
0.204351
0.301678
0.228312
0.168223
0.240618
0.229228
0.262292
0.129107
0.225027
0.300187
0.206752
0.167262
0.212119
0.235918
0.25422
0.852213
0.705701
1.00533
0.887872
0.769506
0.821787
0.892524
0.878968
0.632836
0.557864
0.716291
0.620455
0.592383
0.607676
0.629092
0.627328
1.09894
0.914471
1.20989
1.12136
1.01208
1.01344
1.14498
1.09374
0.843741
0.696174
0.956041
0.89901
0.663056
0.70552
0.85201
0.865627
0.667905
0.916338
0.681095
0.624911
0.746431
0.793329
0.686586
0.767677
0.695115
0.659866
0.778915
0.9307
0.740057
0.672967
0.819074
0.770052
1.03273
0.914967
0.716867
0.980132
0.953495
0.870023
0.863169
0.750584
1.00765
0.974303
0.719724
0.816871
0.891645
0.880278
0.827332
0.790642
0.196211
0.322669
0.332432
0.376392
0.282857
0.256672
0.201995
0.275542
0.446001
0.489643
0.594535
0.56398
0.493459
0.504635
0.542239
0.535599
0.550313
0.653442
0.719622
0.766341
0.612976
0.645582
0.698749
0.661033
0.619628
0.615281
0.734251
0.747847
0.600387
0.5699
0.624459
0.602896
0.405527
0.412939
0.400792
0.526821
0.446712
0.366969
0.490047
0.478608
0.403521
0.543487
0.564562
0.475749
0.433424
0.499015
0.53333
0.54077
0.350693
0.475687
0.611938
0.65566
0.527402
0.434757
0.639866
0.571852
0.396766
0.600089
0.582779
0.591997
0.5509
0.594441
0.645413
0.6289
0.0318518
0.0337361
0.0120708
0.137282
0.116594
0.0490088
0.0867567
0.0844971
0.0368722
0.00747996
0.0331499
0.139754
0.0796581
0.0213378
0.118012
0.10142
0.0252998
0.0197715
0.00521284
0.164709
0.0891843
0.0385702
0.0982048
0.111665
0.234942
0.249577
0.245377
0.311139
0.277346
0.253306
0.287971
0.291481
0.103509
0.0921784
0.199395
0.204061
0.132274
0.105367
0.156795
0.146779
0.0425078
0.16456
0.0298502
0.0306348
0.0763893
0.12559
0.0411173
0.0689347
0.060509
0.201381
0.24787
0.218423
0.146463
0.192327
0.186318
0.225352
0.0787076
0.218519
0.227004
0.126523
0.117822
0.140929
0.144292
0.148584
0.597107
0.553887
0.606872
0.538953
0.572539
0.582825
0.579152
0.583973
0.518601
0.496821
0.520959
0.480678
0.507492
0.509402
0.500565
0.504009
0.623173
0.561807
0.623083
0.538352
0.589784
0.595313
0.590262
0.592834
0.477283
0.450588
0.469042
0.406856
0.449643
0.457782
0.435902
0.444843
0.532317
0.58209
0.509567
0.486113
0.534163
0.552137
0.496497
0.515301
0.538457
0.489631
0.543744
0.590593
0.538175
0.515435
0.557899
0.538705
0.587377
0.501702
0.474159
0.504221
0.537876
0.509382
0.512461
0.490441
0.591885
0.508295
0.479194
0.541584
0.559456
0.518334
0.537835
0.499025
0.471429
0.498636
0.446944
0.465753
0.478338
0.479804
0.464471
0.460671
0.519209
0.494938
0.428958
0.426815
0.499086
0.485273
0.467265
0.447119
0.402371
0.378264
0.350548
0.365062
0.390124
0.375443
0.370851
0.357601
0.433698
0.404876
0.383558
0.399328
0.440821
0.429229
0.416972
0.39924
0.492822
0.445574
0.468113
0.462779
0.473875
0.463531
0.463714
0.462037
0.49355
0.452464
0.419252
0.437847
0.466418
0.464013
0.444405
0.433498
0.426621
0.447116
0.431781
0.393639
0.417882
0.429889
0.413958
0.435475
0.413203
0.378555
0.414798
0.397031
0.409084
0.402471
0.411613
0.398012
0.323783
0.34091
0.257584
0.340127
0.338265
0.323341
0.306817
0.296499
0.389644
0.444556
0.316972
0.389335
0.412719
0.431596
0.389922
0.381441
0.190715
0.198233
0.0725952
0.183461
0.181607
0.173675
0.150651
0.128364
0.356174
0.379263
0.291529
0.372281
0.368733
0.372252
0.346141
0.342146
0.368616
0.266934
0.351961
0.395811
0.343538
0.316967
0.363496
0.344539
0.363234
0.395673
0.29453
0.244823
0.332545
0.348029
0.278349
0.295267
0.239233
0.327017
0.369043
0.255492
0.275987
0.315317
0.286203
0.331384
0.215989
0.242062
0.362902
0.250452
0.234061
0.27557
0.268945
0.28704
0.919608
0.897244
1.10459
1.01661
0.85864
0.830374
0.949365
0.952474
0.80383
0.771674
1.00047
0.682254
0.928181
0.841641
1.00518
0.951012
1.18168
1.1704
1.28134
1.4813
1.30933
1.1471
1.36624
1.26698
1.14006
0.707983
1.64769
0.808247
0.776342
1.03596
0.958356
0.882303
0.820668
1.17717
0.909306
0.86537
1.00815
1.11564
0.791546
0.885336
0.861504
1.09211
1.02014
1.03277
0.886457
1.04773
1.0352
1.08363
1.2651
0.94238
1.10201
1.53478
1.29506
0.934271
1.48719
1.39446
1.12245
1.33627
1.00635
1.1174
1.26222
1.14887
1.23238
1.13888
0.175688
0.424125
0.206145
0.236773
0.123564
0.22234
0.17371
0.149579
0.512772
0.734387
0.774142
0.747746
0.570592
0.675009
0.766683
0.80827
0.562118
0.774494
0.771546
0.80676
0.548808
0.629923
0.718101
0.720587
0.126154
0.487151
0.9541
0.801785
0.178533
0.314307
0.703446
0.872619
0.44091
0.262534
0.214592
0.489638
0.332133
0.310975
0.362235
0.269018
0.550867
0.680008
0.693804
0.368179
0.364564
0.531302
0.415385
0.549699
0.523795
0.333757
0.618464
0.75185
0.386227
0.314614
0.309001
0.319647
0.53352
0.791475
0.775871
0.851775
0.62417
0.415355
0.798825
0.544347
0.227752
0.379878
0.448732
0.54617
0.295568
0.444966
0.362032
0.388135
0.454053
0.513011
0.486794
0.492857
0.49378
0.516301
0.480821
0.497068
0.413961
0.467155
0.420498
0.37667
0.402233
0.415676
0.382216
0.398423
0.467128
0.4802
0.428654
0.440859
0.475496
0.435929
0.461851
0.415158
0.476202
0.41379
0.499043
0.474307
0.471309
0.447945
0.486825
0.443724
0.524401
0.480453
0.518725
0.46496
0.547441
0.469805
0.426067
0.492968
0.379319
0.420256
0.457865
0.376938
0.413765
0.376009
0.434793
0.43871
0.384603
0.39374
0.470703
0.494268
0.426638
0.409096
0.456139
0.434118
-0.0124743
0.18099
0.201921
0.162714
0.107627
0.16866
0.111986
0.179942
0.186388
0.215943
0.110687
0.195455
0.0530128
-0.0169553
0.0916316
0.0132263
0.265429
0.276059
0.327999
0.339876
0.261698
0.270321
0.296362
0.307173
0.237227
0.337953
0.377251
0.389432
0.281608
0.334935
0.31411
0.375846
0.0981548
0.187
0.190184
0.253422
0.149021
0.223759
0.217064
0.246952
0.163574
0.176248
0.174964
0.188923
0.224867
0.246282
0.268881
0.251516
0.223763
0.2272
0.286605
0.327985
0.26207
0.272752
0.296241
0.338046
0.234295
0.318128
0.235524
0.202013
0.264463
0.293119
0.281524
0.318621
0.744834
0.732874
0.644507
0.740809
0.74266
0.724214
0.726954
0.698025
0.798014
0.248047
0.394957
0.649691
0.543254
0.173997
0.594967
0.261781
0.506347
0.390536
0.384823
0.472339
0.473062
0.427643
0.44738
0.420674
0.718864
0.663853
0.548352
0.724954
0.718072
0.726239
0.683455
0.611635
0.737764
0.612162
0.732071
0.726303
0.680512
0.70849
0.621908
0.718337
0.694152
0.561664
0.383226
0.57376
0.607683
0.453651
0.569184
0.531549
0.577123
0.705073
0.625958
0.550561
0.604849
0.680346
0.580921
0.681782
0.543998
0.47977
0.501321
0.368105
0.524601
0.551845
0.485602
0.521009
0.12389
0.306637
0.577671
0.450538
0.277484
0.323274
0.34497
0.515154
0.334642
0.364546
0.335247
0.436064
0.341277
0.367362
0.396415
0.360729
0.57887
0.337511
0.725371
0.227468
0.329429
-0.12541
0.178689
0.123754
0.575022
0.535951
0.563942
0.666244
0.649601
0.55206
0.636494
0.660447
0.262827
0.294485
0.513055
0.48135
0.358075
0.497647
0.382581
0.485194
0.325425
0.441944
0.324784
0.24013
0.395618
0.394576
0.431367
0.335708
0.344452
0.474563
0.487697
0.489612
0.414386
0.576965
0.537762
0.515334
0.432501
0.409532
0.480614
0.294218
0.379649
0.387879
0.354099
0.407168
0.770945
0.841757
0.74144
0.73109
0.761833
0.795874
0.761396
0.736468
0.818579
0.814503
0.807236
0.715513
0.815669
0.878479
0.785744
0.767947
0.807204
0.954875
1.0252
0.986794
0.721928
0.921738
0.752537
0.808964
0.72323
0.684413
0.890982
0.688915
0.626383
0.684419
0.627776
0.70493
0.734463
0.745186
0.705391
0.712384
0.767488
0.761475
0.745878
0.72698
0.771546
0.753122
0.99159
0.879263
0.760056
0.770742
0.889462
0.787659
0.765703
0.698587
0.689805
0.875572
0.774284
0.752709
0.795068
0.746706
0.753903
0.881314
0.712479