/*--------------------------------*- C++ -*----------------------------------*\
| =========                 |                                                 |
| \\      /  F ield         | OpenFOAM: The Open Source CFD Toolbox           |
|  \\    /   O peration     | Version:  2506                                  |
|   \\  /    A nd           | Website:  www.openfoam.com                      |
|    \\/     M anipulation  |                                                 |
\*---------------------------------------------------------------------------*/
FoamFile
{
    version     2.0;
    format      ascii;
    arch        "LSB;label=32;scalar=64";
    class       volScalarField;
    location    "1000";
    object      p;
}
// * * * * * * * * * * * * * * * * * * * * * * * * * * * * * * * * * * * * * //

dimensions      [0 2 -2 0 0 0 0];

internalField   nonuniform List<scalar> 
41920
(
180.182
148.289
224.368
165.879
254.369
182.168
123.463
93.9156
-7.5015
3.27109
-7.37552
-1.97193
-3.65918
3.60484
-5.99122
0.0876252
119.215
32.2803
345.35
268.618
34.5688
105.559
155.436
67.1781
135.562
23.0948
188.523
120.664
225.055
70.804
133.749
59.5414
-8.71364
194.253
220.429
12.9069
-22.101
-5.59059
9.3391
135.514
9.41494
-24.8937
-32.88
219.728
2.33888
7.28573
5.55449
-18.8743
209.572
113.511
-40.0454
289.34
190.686
135.5
102.667
4.45338
158.219
121.875
-4.33412
-6.32166
11.3887
44.2849
0.896105
5.28571
0.604765
-3.85449
1.54076
-6.56204
0.353966
-0.107247
0.699541
0.210239
-20.6817
213.729
-86.0273
68.4647
24.265
38.7235
81.6221
88.2841
-7.186
10.0731
-3.34712
-3.36144
-9.78973
-10.6581
0.808248
-2.36641
-39.0743
109.455
15.2815
130.269
156.269
172.179
135.283
149.789
-16.7976
-1.93194
-23.48
71.7718
-19.1534
-13.5479
-33.6951
-25.0058
-18.3378
81.6057
-55.3761
-0.513355
-21.9482
-20.1269
-27.4402
-48.8742
1.30722
-6.04562
137.669
-4.45365
6.58096
15.9452
-43.2705
-43.1465
2.8023
29.7287
138.806
51.7091
5.5946
-26.6291
1.18047
-148.13
-3.69852
-1.22582
-2.01257
-1.35957
-3.28988
-1.07123
-5.76117
-4.42217
10.1186
-63.0948
-63.6795
-128.358
-23.4874
26.3632
-42.5065
-29.5443
-3.04894
-12.2445
-6.88592
10.9558
-6.59813
-9.82839
-6.57874
-10.8999
-0.604884
-19.5805
-15.2686
-1.5246
-5.27138
-8.98465
-0.0214634
-9.98462
-4.09663
-4.82019
-6.65141
-13.4104
-4.61362
-7.21826
-11.6049
-7.147
-3.5052
-17.2243
-5.53549
-5.40458
-6.10298
-4.48549
-5.08755
-7.47018
-1.81914
-6.04871
-20.2447
-7.25525
0.795733
-7.60224
-10.3632
-18.3321
-4.00235
-4.32031
-16.0002
-9.54665
-4.04921
-12.7714
-17.036
-35.4431
258.666
223.325
184.055
8.16232
236.956
146.253
161.949
142.646
267.668
466.929
323.576
-14.7518
153.611
317.304
34.4088
176.613
203.027
135.164
29.587
64.4889
90.9838
9.86997
21.5428
-125.511
4.52994
8.29133
1.01259
1.02279
-3.37799
3.64675
-3.07904
-3.18399
189.932
195.417
-34.6455
12.4601
157.833
105.396
-33.6727
10.5642
148.435
-13.5711
197.255
144.2
90.375
10.6905
170.989
80.5196
115.927
-19.503
-2.13567
-69.4702
-49.8865
-28.6536
-6.3037
-23.5339
77.5826
2.03978
3.8265
92.1928
59.0731
32.0385
103.269
61.3051
494.761
434.089
142.959
22.5602
333.398
220.308
102.025
53.5676
593.778
806.81
170.645
114.969
545.435
541.029
181.904
140.332
27.9878
52.1294
36.1934
15.201
51.065
64.9626
13.7534
34.2032
-31.2621
-0.868435
3.27779
-6.30873
-34.4894
-11.9994
-18.8255
-2.26665
357.504
12.1666
18.1266
33.6917
146.336
165.56
-25.3808
-22.4184
310.095
24.842
74.2266
34.8588
176.635
133.841
193.272
24.3033
-13.4476
-31.8946
-1.93346
-12.1623
-45.7919
-40.8843
-8.84833
-17.0572
-42.85
4.05472
10.2946
35.2841
24.0577
-0.158417
34.4064
15.2701
-4.82033
19.5357
-12.6646
-22.8413
5.82951
31.4177
-1.20686
30.0725
-266.828
331.222
40.0465
32.7912
86.667
78.459
52.9023
68.0581
4.33855
14.2479
-1.38532
-1.60852
-3.8984
2.17641
-7.81705
2.14788
-82.7042
104.433
7.7712
118.353
155.736
165.816
139.07
192.088
95.8308
-9.14336
59.157
168.627
35.7924
30.2563
-380.781
83.102
81.5784
146.813
34.1981
1.33501
213.234
5.4871
8.73345
36.4438
-9.80292
44.1108
183.27
7.70504
-8.0631
243.646
-1.18361
-23.933
2.47642
73.8859
211.883
42.7713
11.0499
41.9168
30.4185
12.2326
136.492
-24.6792
13.6526
133.183
143.021
79.4515
176.121
28.231
0.697231
-7.46687
-7.42205
0.0308302
6.79065
-3.18993
-34.1783
-11.9494
-1.44035
4.93162
1.65413
-7.4501
-12.3872
0.702934
-3.89034
4.03916
138.93
31.0028
30.32
96.3946
168.898
18.6635
96.8408
-27.7373
-31.4436
35.1329
133.315
74.8432
-9.82868
17.9027
40.264
77.5406
-86.0167
19.3771
-10.2265
-42.2549
-102.192
-17.8877
-14.1977
24.3602
72.6623
134.401
43.7121
60.328
12.8322
29.1293
41.6399
15.3551
42.572
-2.10967
30.1941
-4.52032
13.001
30.1479
9.72361
19.1676
-7.52341
7.17946
0.99147
-0.56249
0.100215
0.895766
1.67331
0.769864
6.07518
131.077
93.1914
43.0967
75.6648
94.1258
73.7375
221.549
36.0384
152.026
216.955
54.1953
56.5064
-7.02075
51.8544
17.8744
-11.099
-0.506444
17.5805
-12.2764
-4.81034
7.07426
-5.13273
5.28448
9.37965
10.4024
-1.97892
5.93152
17.3318
5.51103
4.78572
3.97757
14.2772
28.8243
26.9576
49.1476
25.182
26.8882
49.5604
38.3083
20.9131
1.53874
12.9038
28.6102
12.9867
6.11237
27.8489
11.6941
39.8259
69.5695
53.6346
156.81
54.0983
57.9963
60.7873
74.3521
-1527.98
-1287.59
-735.487
-696.29
-735.744
-969.653
-870.794
-1078.91
1063.41
9049.06
-1466.16
-1542.99
448.338
1489.35
-1400.1
-3407.56
-414.881
-346.157
-152.397
-328.628
-381.304
-295.129
-292.279
-222.208
-446.609
-1265.9
-481.182
-365.07
-545.483
-819.798
-84.477
-850.517
-1054.27
-784.47
-799.293
-1575.82
-1233.38
-864.779
-1236.15
-953.624
-1228.7
-1331.4
-814.587
-686.602
-991.478
-1166.56
-889.273
-1175.52
-623.363
-712.434
-1181.28
-423.985
-675.696
-732.927
-600.415
-894.476
-641.616
-441.06
-2010.84
-504.367
-507.355
-462.91
-595.036
-842.521
172.474
122.25
239.895
275.694
130.227
127.505
244.03
157.693
31.9678
3.44568
16.4952
21.9234
21.4441
5.08276
21.3483
29.0838
253.68
62.3696
113.888
188.899
229.256
239.993
211.785
179.86
248.682
110.384
194.77
260.608
200.399
189.844
231.177
176.399
75.7634
170.212
229.347
67.2121
86.6438
123.35
83.8378
210.101
100.345
32.0115
90.4396
72.806
68.9168
-18.5247
134.934
62.5064
331.696
241.7
80.1621
197.699
259.846
224.462
210.392
213.876
205.233
174.592
60.4134
62.7812
230.532
216.023
90.5311
99.0227
499.213
-278.887
-1530.77
-49.8152
-1038.11
-1676.88
-326.347
-1591.63
691.4
22341.4
16046.7
-1885.84
6113.12
14607.7
4377.73
10660.6
-2763.95
736.079
-409.166
-1156.34
-752.659
463.382
-1101.21
360.858
-634.501
-4052.93
-2491.48
3609.82
-368.049
-5959.3
-629.976
-4352.45
-779.378
-3327.85
-767.899
-1095.02
-482.614
-2309.88
-890.184
-1794.78
1440.91
-3554.91
3458.55
-1482.67
-695.135
-649.343
-1356.08
-960.086
-3024.05
-2371.07
-655.37
-2695.13
-1579.93
-1972.19
-2018.54
-3973.22
-1579.33
-1475.35
-1384.43
-1366.22
-2126.29
-1666.23
-2383.65
-1852.04
-4.84689
-41.1817
-28.8491
-21.4056
-24.6716
-31.4164
-33.0111
-50.2779
-219.676
-518.5
126.338
-481.067
-276.377
-299.32
-1071.59
117.36
80.7739
578.17
2211.93
2245.94
198.326
476.65
1195.5
1933.3
-48.8345
-306.21
319.711
135.473
-298.571
-283.207
-2509.37
-732.739
-44.7829
-64.5383
-35.3996
-283.402
-126.013
-103.061
-125.025
-36.7745
-105.995
-308.841
-47.2029
-35.7042
-230.383
-445.71
-129.552
-178.774
-159.998
-30.6704
-75.9722
-2610.21
-56.1029
6.81169
-192.44
-76.3354
-95.0019
-848.104
-54.1382
199.093
-84.682
-236.311
-109.785
-126.424
-34.3114
-90.6258
47.0448
36.3907
166.243
-35.7036
-166.374
81.7274
-29.7719
-8.77691
0.670155
-0.855387
-22.9236
-18.4753
-17.8047
-4.56401
-3.82988
-0.612
-24.5186
-27.9161
-11.6989
-9.47299
-18.5515
-11.5121
-239.489
-49.8367
-39.2028
-291.588
-247.575
-99.3862
-0.00161169
8.13719
-61.7663
15.437
-129.067
-15.8113
-17.6258
17.3693
-43.6659
-122.603
-59.6265
-14.5119
-10.4907
0.768366
-31.7742
-16.3088
4.51711
-10.0868
-42.9353
14.2556
-21.7343
-25.1323
-37.2584
-39.1418
-18.8057
-23.4087
-10.4901
-14.4653
-8.39559
-5.79716
-4.62726
-7.31582
-7.20138
-8.45025
499.815
623.777
500.253
29.7605
340.334
502.88
316.879
380.477
771.354
992.402
939.368
210.249
709.031
1040
550.452
796.388
731.414
918.667
938.967
155.708
699.554
893.189
549.849
793.479
-22.0459
51.2032
2.33969
-14.2445
-25.7989
17.3938
-35.6868
10.9594
518.39
506.091
18.7179
74.563
342.719
328.82
25.3295
1.2541
743.22
113.795
924.555
628.84
605.058
530.171
751.465
709.885
369.446
-18.5958
88.9442
45.2087
-1.00858
-22.6992
42.3083
56.1415
560.66
4.14598
79.1255
751.59
542.237
126.738
589.685
181.05
188.274
195.67
100.185
150.888
155.87
142.487
135.3
109.206
190.199
179.903
123.034
126.619
196.437
161.334
145.112
116.348
32.5547
46.7068
-25.2808
18.4273
3.14415
13.2671
14.8742
46.3892
144.118
113.042
47.187
64.4112
149.147
108.216
94.116
42.7607
183.201
75.0862
162.391
162.718
146.414
115.88
180.725
140.026
150.637
127.333
80.6332
71.0009
128.16
132.428
97.8042
89.8087
65.7974
125.521
118.985
59.9456
84.0762
99.7994
71.5334
113.54
60.5721
53.7454
103.013
61.5414
33.5309
64.1126
69.5665
98.582
3.83822
-3.7322
-2.15244
26.6586
19.9688
-9.28728
13.6351
12.2871
-24.8731
249.737
109.217
314.073
227.598
171.759
244.073
201.682
-17.6046
54.4592
8.30834
24.2096
38.6547
40.1093
34.5794
40.3752
38.9871
368.52
178.476
545.849
61.8518
154.623
184.125
211.521
92.9006
36.3348
82.6478
186.963
60.7262
-7.6267
70.3786
56.7925
82.9695
244.522
113.539
52.626
53.4252
102.496
40.6305
99.9603
20.1936
54.3936
217.717
79.2871
-5.29163
63.6674
55.4886
60.8004
55.2451
71.5395
257.071
111.601
24.0151
81.6516
83.728
136.02
519.157
454.002
451.655
350
466.455
469.331
538.56
496.455
545.531
294.177
305.054
326.03
284.869
384.858
225.464
309.879
475.758
267.022
248.675
302.162
384.438
329.517
329.222
303.973
333.824
300.662
254.815
345.903
329.269
300.576
379.844
276.9
499.061
505.11
448.459
335.14
290.016
394.066
442.843
396.983
519.329
346.988
303.693
466.218
430.326
274.167
438.542
339.421
392
387.486
259.715
341.993
351.53
354.887
332.122
281.473
389.022
316.443
315.288
332.493
303.586
292.711
278.933
321.038
78.8949
63.4421
115.436
159.408
200.032
93.0398
197.405
130.646
11.3122
-4.21505
-16.7583
34.2127
11.5574
-13.5502
26.9128
-3.52006
37.2283
-3.99431
10.5958
35.495
34.0859
14.599
30.9577
20.8167
170.279
63.5183
72.8938
253.152
137.333
117.56
152.239
109.886
48.6652
98.0584
150.367
57.7587
42.273
74.3049
76.584
76.7396
29.1399
40.0524
-10.4616
26.8974
37.8935
47.2776
2.63727
21.8179
106.165
163.363
62.7913
76.9662
84.5875
92.5988
62.5904
85.4723
43.3493
45.6298
42.2697
-2.52115
19.927
34.8683
26.2201
31.2174
-121.06
44.2508
81.9466
-116.715
-233.022
-34.4752
45.9154
181.761
-18.3919
-0.620796
-28.2769
-43.9061
-24.5152
-11.1545
-34.2267
-22.9453
517.197
86.6209
3578.16
1467.91
237.787
-369.009
1701.62
1371.15
-167.023
-116.427
1183.57
226.246
680.25
-421.287
612.826
146.505
-14.5583
39.835
-171.764
-78.908
18.3738
-169.067
-36.3576
61.2019
1.30624
-85.4015
17.2315
21.0805
22.4941
-82.2067
-12.9978
-66.8866
-158.411
-317.142
-98.5207
260.202
40.5614
-171.77
392.89
-413.853
11.1088
302.367
-38.9331
-18.5256
-690.426
-164.526
112.408
-60.7474
-254.125
-186.515
-201.406
-186.201
-194.802
-205.633
-190.77
-231.944
-153.939
6.59912
-266.975
-84.403
-124.471
-110.93
-159.664
-160.48
-188.298
-440.399
52.9788
-299.585
-319.004
-382.098
-386.139
-309.705
-216.402
-140.943
-161.853
-93.6341
-235.163
-248.931
-221.79
-249.979
-184.708
-329.215
-200.911
-132.405
-194.762
-241.502
-153.548
-196.859
-200.778
-133.464
-329.277
-393.923
-201.368
-172.547
-376.399
-334.678
-308.23
-206.638
-139.452
-168.705
-252.324
-191.631
-493.654
-267.16
-401.688
-194.74
-180.5
-358.936
-379.966
-453.151
-389.792
-332.302
-122.382
122.48
11.3477
45.4355
16.7378
44.2656
15.1268
76.1481
806.676
2270.91
572.042
497.142
857.549
2618.95
739.615
1750.62
408.85
-91.2875
283.32
292.591
420.994
-1179.82
458.961
2208.61
55.8889
107.758
-2.87938
3.5335
97.9474
200.801
85.3738
173.429
356.422
193.019
-43.0934
223.573
351.375
217.92
296.064
260.462
574.84
594.243
2552.63
342.543
587.357
477.489
282.653
701.599
174.08
-89.8841
195.898
213.522
-80.34
328.998
169.871
170.302
338.382
529.587
570.192
1726.12
277.894
530.354
655.615
619.458
-1567.23
-513.957
-569.461
-1151.55
-1071.77
-544.838
-1357.51
-567.474
-383.935
-92.1648
-276.305
-368.49
-285.724
-188.274
-334.121
-215.148
-124.554
-404.464
-59.8158
-113.334
-229.318
-333.359
-81.8977
-191.357
-682.908
-389.453
-360.112
-177.586
-150.676
-269.465
-10.1181
-187.696
-522.118
-405.215
-466.355
-482.661
-480.056
-368.429
-574.057
-218.263
-504.149
-339.476
-363.229
-66.4518
-452.522
-421.139
-372.442
-371.569
-518.111
-758.171
-397.128
-314.934
-448.525
-273.597
-251.721
-257.827
-200.396
-248.409
-350.626
-343.463
-246.901
-248.37
-369.62
-400.77
27.923
69.964
42.3238
21.0789
33.7885
69.3899
32.0235
47.0375
217.475
342.124
397.203
105.763
276.2
327.311
162.688
355.068
142.798
397.755
417.713
208.326
131.331
352.095
115.652
358.57
3.63348
1.55879
-3.91676
4.3896
5.53905
-16.1638
-2.61073
-23.9014
134.191
18.0287
38.9359
104.851
94.5697
67.6605
86.4839
67.1044
177.191
99.3467
364.694
161.648
150.516
155.521
197.649
232.711
54.2169
13.7737
56.6982
32.9856
75.5558
46.6907
58.5615
32.1038
238.405
90.2786
122.571
338.033
198.344
142.826
153.183
144.992
-449.674
34.3584
0.445098
22.529
-5.24447
46.2289
19.3675
32.7423
1.42016
-7.46325
6.13495
-9.48946
-1.26909
-5.38799
-3.0962
5.99401
-2.92434
-0.32889
-2.00413
0.742407
1.86287
0.470851
2.27113
-1.13738
12.8952
-9.41182
6.44451
13.7573
6.1812
-5.91677
-1.47057
-3.56347
13.7737
14.626
19.5886
4.43701
14.106
20.5723
13.333
16.5185
6.40074
-4.52784
5.97198
11.9705
9.66488
1.53886
1.97625
4.47267
9.00313
20.5738
-3.29919
-6.11471
8.37452
15.9016
-1.75644
0.94572
2.48236
-7.17444
0.712446
-4.18869
5.71983
-0.369101
1.72722
8.45229
212.184
241.812
194.75
119.993
205.925
230.176
181.801
204.934
268.067
281.054
261.009
180.218
278.045
275.795
219.512
249.934
192.398
241.305
216.228
89.9902
171.831
245.01
95.1183
192.976
35.2865
55.4275
53.6404
-17.1431
21.7338
35.5885
-26.2247
37.825
241.105
184.261
105.701
127.336
196.038
186.573
162.302
131.846
264.977
157.004
239.158
222.58
220.007
196.93
234.642
235.22
144.959
69.9966
88.706
49.7932
107.77
107.171
76.1862
84.4826
188.507
86.595
133.61
242.153
135.321
82.7989
151.941
109.843
2770.56
1357.09
4289.07
398.542
523.838
1687.28
742.477
738.439
718.097
358.046
950.603
205.928
326.943
692.161
252.438
239.822
3494.71
1974.64
-3590.78
566.159
1079.54
-142.148
247.198
-354.527
38.9307
2.87019
87.1182
-52.0094
96.763
75.6879
-66.7747
-14.3297
559.044
1107.16
384.647
180.898
505.963
1143.05
372.461
606.522
857.512
349.132
850.91
1461.31
366.507
806.334
1193.26
825.564
781.986
285.112
78.7481
290.139
711.883
480.783
507.517
253.609
39.0216
387.931
204.408
164.441
1275.3
634.988
915.877
472.48
-14.9691
-231.64
338.257
-91.4625
-351.097
-177.33
-120.883
206.125
-344.787
-2041.3
731.191
-410.802
501.624
-1225.21
-239.16
-145.772
739.533
773.417
3490.01
321.913
453.919
851.403
588.953
1064.99
10.0163
-206.152
121.418
-81.3124
97.3422
-67.1773
-62.2163
2.66452
-756.082
376.828
-407.138
115.349
-483.031
100.052
-144.846
-193.845
-501.97
-208.202
412.491
482.293
-5.42116
16.6356
247.705
194.529
387.644
-196.336
-44.3597
187.551
226.061
121.721
119.208
47.0941
319.282
301.48
-26.4704
406.031
272.136
269.807
359.319
348.328
-2.61199
5.18044
-0.237221
-30.6708
3.9754
2.4735
5.21548
1.92972
-37.3047
-14.896
-25.9172
-77.5455
-77.8221
-46.0334
-72.1858
-77.5337
-3.45059
-5.00484
-7.69199
-57.3689
-7.90425
-6.1875
3.44086
-6.7609
-16.9242
60.8723
7.65119
797.717
-50.1729
-110.026
43.8069
219.03
-37.0688
-5.29384
-34.3625
-58.9904
-29.5331
-10.1368
-45.3483
-30.7952
-3.39538
-58.4389
-11.1424
-1.21264
-26.9501
-42.483
-11.0858
-27.2729
-6.84598
-25.9324
-63.9896
-189.946
-7.9207
-41.7968
-65.7886
-96.6431
-6.19911
-88.2509
-57.8104
-33.8731
-19.136
-38.1577
-32.4233
-24.7162
465.222
407.161
148.45
332.688
477.777
462.408
353.732
336.392
506.509
850.845
248.892
246.965
478.598
481.069
375.073
241.675
46.7016
96.0023
47.3808
114.177
48.8082
73.9097
89.6126
110.931
175.668
77.8301
96.208
181.611
228.153
211.831
250.491
175.272
384.287
135.368
179.199
304.028
299.538
186.529
281.426
212.926
395.921
309.445
137.259
109.604
278.881
294.804
120.613
131.464
117.256
201.803
263.878
106.929
137.461
219.902
104.327
204.576
85.9404
124.204
154.289
77.8515
73.9269
105.94
82.7629
26.4415
-3.44429
0.787315
6.02842
-0.623125
3.47015
1.41422
3.81824
1.93425
7.36932
216.19
214.208
44.596
5.49899
89.4664
3.21643
149.781
23.9359
120.674
-310.268
34.3265
3.71728
171.976
5.4594
247.148
-3.40978
7.87081
-1.26325
-0.661488
3.47706
-2.55
1.77336
-1.45848
6.67674
14.5504
-8.94621
10.0804
8.00088
7.39948
4.55903
-3.4313
16.2928
4.00569
177.497
14.0181
11.8598
26.9858
-0.192901
32.6031
15.371
-11.0319
6.36311
13.7667
8.31982
0.396724
14.3966
-2.12349
18.4329
46.584
17.0058
223.073
5.57037
44.4589
22.8085
-16.2262
207.776
-63.7299
-731.361
3.03384
676.996
72.9238
951.081
-292.373
-243.229
-177.683
-344.452
-291.023
-249.087
-230.182
-278.169
-262.711
-682.477
-1357.55
14512
-2482.32
-384.686
-1582.77
1324.31
-994.099
163.753
-463.328
-1585.87
-135.875
-90.6471
-42.0656
77.604
-140.743
-64.2009
952.634
-81.2035
-354.721
-184.262
-981.046
-411.876
-408.711
-239.765
-408.586
-528.233
272.193
-351.369
-302.634
-81.8364
-337.799
714.433
-93.6141
-297.204
-1067.87
-376.602
-174.752
-1351.88
38.9939
-505.558
-1159.73
-389.756
-668.535
-1066.24
-1035.86
-408.394
-712.562
-1894.39
744.481
59.6104
-807.941
-1047.29
794.979
127.86
-366.775
908.119
1881.99
1914.11
819.149
1083.24
-1592.31
1054.14
2888.49
193.768
3105.06
1211.59
609.572
-332.351
-4127.26
505.593
-4048.02
-413.979
38.448
4.57315
-113.045
-73.3173
106.384
-48.7615
22.4501
339.758
621.453
-113.422
593.479
403.834
262.785
403.411
198.448
730.087
629.538
-1244.21
503.932
664.62
855.25
919.226
1310.9
-654.115
-387.854
-180.75
-316.809
-290.916
471.378
-395.216
-15.7958
332.014
-242.669
-252.066
2898.02
85.7981
-240.875
915.571
409.286
1039.31
840.404
694.073
866.125
951.533
843.047
1012.2
896.955
693.999
511.012
610.972
457.741
565.064
513.618
581.741
529.702
556.163
630.459
287.114
138.513
638.08
602.084
461.405
448.81
368.758
185.682
97.7314
163.866
275.599
273.515
286.758
294.103
749.92
807.056
635.6
464.28
754.743
849.528
586.987
536.054
680.963
412.445
579.446
712.026
719.432
733.03
676.411
654.95
715.739
695.009
430.303
546.79
789.765
669.015
563.946
481.14
622.468
572.238
408.397
550.387
625.654
539.02
587.245
542.807
0.311698
-0.874542
-2.97416
-2.01326
-0.265959
-1.87755
-0.67921
-2.07155
-1.35186
-12.0675
13.4788
2.46761
-5.25077
-11.6177
2.64087
1.16014
18.2356
22.9758
165.1
57.3584
6.83428
23.8894
28.052
21.8794
-0.362182
-1.53529
18.5584
-4.9789
-1.04238
-0.784162
-2.06311
3.64045
0.0127933
-4.75296
0.174873
-1.10971
-5.08131
-4.90352
-1.82484
-1.76391
1.23033
1.02901
13.5239
-1.38832
-1.50923
1.90194
2.29258
2.76209
-0.517022
-3.87884
-0.641821
8.43821
-1.67753
-2.58261
-4.13714
-0.871039
4.92251
9.26986
0.887995
6.02185
7.98601
4.3251
4.71903
3.56865
94.9779
5.01012
49.2298
-303.748
328.628
-25.0108
263.527
-52.8161
0.680895
-12.7584
-0.591039
-10.7572
-14.1223
-5.30965
-26.1141
-9.99001
-20.169
0.933932
-4.23329
-20.2393
-3.37161
-1.95495
-2.03276
-3.75274
1161.12
37.4496
-59.6683
-240.096
657.377
167.865
742.032
49.8897
25.5251
6.66453
678.114
12.877
10.7731
-32.3126
-7.09622
72.9467
15.9922
7.62035
0.0286818
-16.1281
14.3916
-27.6788
-21.4691
-30.2224
0.826495
603.219
48.1545
-12.2463
-84.3436
20.4448
-40.3612
-13.0553
-13.3923
-26.8909
5.33935
0.330423
-37.4525
-28.5336
-30.2532
-15.1675
-12.6304
9.06518
1.62251
-2.98562
12.614
21.6007
0.496614
-0.804715
-2.3056
394.133
281.358
50.4563
82.2968
335.024
47.614
297.007
-12.2019
191.636
-43.1681
18.1511
23.6741
162.025
23.4012
102.729
-0.970451
-19.8084
-4.97139
-21.3076
-13.9042
-12.1103
-15.0639
-10.2808
11.2056
5.03597
6.41635
3.11286
-1.52219
-11.95
2.94982
-4.04613
-68.8003
75.0005
217.665
-2.00801
-4.82796
78.2386
-72.5062
23.1777
9.48788
6.42697
-24.4724
-4.53174
-1.92445
-3.79234
17.9744
6.70119
17.9044
13.3873
80.8826
173.209
-6.42699
-19.626
-27.5505
38.4937
261.901
218.259
253.782
275.251
275.589
249.305
295.122
264.937
216.652
185.507
191.084
216.253
207.712
191.64
224.726
199.139
243.911
205.669
231.584
231.246
223.466
206.247
236.948
213.251
268.52
230.361
260.969
250.598
245.334
234.847
249.421
226.376
238.543
264.718
260.052
249.441
241.365
274.053
247.409
241.637
226.793
225.629
199.499
239.171
219.008
237.975
208.504
222.909
279.522
282.51
266.886
244.374
244.201
251.049
238.051
269.073
253.772
226.255
247.942
219.065
247.997
214.066
242.092
242.025
490.033
386.905
583.926
449.926
469.929
483.369
514.965
595.122
284.241
117.218
309.778
320.997
195.719
234.693
260.108
286.443
687.497
511.463
635.252
551.93
542.326
575.811
527.365
578.413
308.72
285.051
342.875
249.676
286.078
280.481
273.544
268.347
301.578
512.808
402.548
401.177
449.218
530.607
449.488
511.071
405.353
383.465
431.501
572.594
422.506
352.616
462.819
346.319
529.498
378.647
326.401
392.666
544.334
393.771
538.266
401.662
663.088
444.083
421.696
397.198
546.272
543.448
416.336
459.173
710.154
989.253
774.907
590.027
859.552
878.814
692.397
932.717
1211.83
1368.57
1170.42
1020.81
1370.49
1388.4
1293.66
1433
665.503
845.714
597.542
559.869
552.361
668.402
610.935
637.228
349.991
445.013
265.413
265.984
406.506
336.075
322.838
316.566
1091.83
725.829
567.165
820.35
1058
807.892
729.34
573.326
1192.34
859.405
987.83
904.365
1214.28
1073.47
1013.03
909.095
651.786
487.296
766.611
408.868
567.628
637.21
575.046
602.576
879.729
721.394
841.15
945.512
709.656
619.748
891.498
708.559
-1.19615
-49.0972
-13.8459
-22.4079
-20.5353
-25.7087
-0.139525
12.8218
106.674
227.79
375.821
34.0699
42.5271
132.167
74.5995
205.422
-58.8815
259.356
278.668
112.466
-28.1012
485.165
32.0245
476.042
-13.4649
-5.16771
-2.63112
-14.2707
-7.9608
-12.4602
-6.29042
-7.44947
-6.78133
-25.3137
-15.3344
-14.796
-14.8675
-26.5587
-17.3546
-10.8326
-2.11652
41.8532
185.224
65.5508
-53.883
13.3089
-5.13943
-36.9703
-12.7193
-13.2529
4.48534
15.7568
-2.29364
-2.0203
6.53556
-5.88138
-36.6723
196.45
50.4832
-59.2213
7.70465
146.71
67.9759
44.0824
113.861
84.2768
133.029
158.226
120.133
113.531
135.515
134.721
63.7765
27.3122
53.0658
75.6782
62.8181
50.8902
59.4838
58.8349
153.605
103.213
177.145
187.377
146.695
126.317
173.566
159.612
189.318
157.05
206.028
197.453
189.318
176.573
197.336
190.623
88.7785
139.277
156.301
122.211
97.4598
138.825
127.63
147.49
88.2886
98.7732
79.9191
136.557
78.5574
81.3894
105.18
99.5897
151.604
175.888
143.797
198.1
172.367
168.846
170.355
165.907
141.924
174.74
131.062
97.4571
137.357
152.687
107.047
126.017
123.478
114.084
75.9496
147.061
107.578
92.0227
101.541
81.918
96.9856
73.2523
41.6517
109.044
97.2593
61.8189
98.16
59.3149
23.9861
13.4493
-7.16464
48.7468
29.8748
-0.814471
24.9972
-7.30534
150.775
130.385
104.225
144.35
123.824
127.102
115.694
121.125
101.497
67.2195
117.012
117.779
96.0366
89.4936
117.782
111.215
86.775
104.967
20.569
45.9031
83.734
83.6402
78.4736
73.1574
60.7215
108.66
113.755
80.0633
90.2414
106.362
82.4687
105.769
41.7454
57.6375
103.304
19.8641
72.9776
62.2632
70.4634
71.3509
279.089
245.098
203.609
86.5072
356.711
282.677
199.002
333.508
300.018
409.994
348.304
83.9974
367.063
405.206
264.294
346.053
209.744
319.302
300.731
32.3212
236.118
317.187
22.6661
183.173
-6.05574
-10.8692
5.92051
-4.46579
-0.0940531
-4.976
7.28293
-0.594487
346.861
307.45
-76.3071
-66.8216
241.317
331.74
-5.189
-73.4444
317.075
-33.1796
328.969
280.33
350.177
306.457
238.154
297.515
210.071
-77.1093
-136.693
42.0541
53.6894
-9.74761
8.04139
-81.104
245.155
20.1843
-10.5814
266.956
167.82
11.8036
176.462
-56.6978
-77.3285
-0.787891
-37.1334
-24.4842
28.7067
-79.1091
-50.722
-75.708
625.124
-834.276
-396.85
263.975
289.571
2667.19
360.838
-955.913
170.877
1069.65
272.988
73.7116
338.163
776.335
129.762
352.065
-27.3552
7.2402
-15.874
-5.09093
-18.7765
-16.0667
-10.0909
-55.0558
143.79
3.13241
-74.784
183.489
4.15873
-42.1958
-65.2361
-22.4488
838.385
239.844
1061.91
77.4838
-115.994
242.061
191.679
392.634
29.0447
-28.3021
146.108
-15.5113
-14.2908
-7.62284
37.017
-2.21752
106.969
12.8467
214.573
115.038
231.789
79.7038
406.975
297.291
547.317
731.913
535.571
70.9618
584.352
306.494
367.299
416.356
362.291
-951.26
430.997
543.805
1340.5
-272.594
1706.72
424.792
410.931
324.822
-12.9309
262.841
248.871
307.216
176.805
72.3586
-8.13426
-161.034
-11.88
-39.0261
-46.1434
-112.242
-25.2554
-33.6046
677.382
501.854
74.1101
414.619
623.89
275.553
195.702
139.967
337.137
694.326
773.56
96.6284
581.152
1201.92
418.981
994.066
566.434
3.92373
208.286
119.796
183.337
151.323
167.227
-49.6134
270.117
193.795
555.48
1066.1
360.192
266.406
1250.54
342.095
125.755
-6.16033
-10.8026
188.171
5.80061
-18.2671
17.6887
-19.6957
12.9182
2.14632
-1.00257
13.0624
2.44537
-3.13067
1.34628
3.16557
-2.14226
4.07616
-6.05623
13.6817
-1.82191
0.892216
2.10781
2.30027
22.675
10.4225
-4.59021
551.911
99.295
-6.33444
211.83
-16.6376
13.3733
-10.0929
78.9363
-57.5231
5.65621
-3.55107
19.4787
2.38328
6.87185
-3.05498
1.84742
7.41764
4.76384
6.07097
6.59959
7.2227
-9.36194
79.7582
-53.5437
7.9565
2.83417
7.73844
-0.81528
-41.3667
9.16733
9.97158
-8.47696
5.52346
9.4369
5.40859
9.41474
3.84838
209.536
194.032
209.843
155.543
204.727
213.959
198.937
214.339
194.135
194.979
211.738
158.499
190.186
165.228
174.625
204.375
179.72
235.801
193.03
170.676
204.771
227.466
184.812
200.709
119.951
148.73
140.129
88.5159
140.935
152.671
116.141
142.032
203.621
194.823
168.835
183.064
195.909
198.488
173.965
167.468
204.291
166.08
197.911
190.378
212.173
208.395
206.494
213.66
170.841
155.384
181.048
162.462
163.461
177.515
180.295
188.933
203.07
179.84
189.548
222.09
220.307
188.694
211.673
190.417
-3.07994
3.30236
14.8233
3.93681
-12.1668
5.30654
26.0755
24.7847
0.854071
127.58
67.6999
260.644
43.0086
52.0348
36.7381
159.544
11.0436
248.233
368.247
399.735
243.572
158.888
347.751
350.936
61.1997
109.292
309.125
-66.4708
278.891
78.4603
138.912
173.637
-12.9647
73.9545
-5.83361
36.6346
-14.8927
24.7371
17.2544
-20.6364
-18.107
-146.217
96.8512
39.4536
-3.08962
64.619
35.6058
11.8419
101.427
-24.1823
-113.38
254.742
91.0782
10.5752
141.181
170.586
57.6363
393.318
110.535
237.193
277.748
291.944
139.078
538.095
-13.5595
73.7586
22.1594
-17.8713
-1.39921
47.0942
3.58398
33.5046
232.768
1033.32
350.488
94.2215
343.283
1000.51
191.264
644.314
43.7941
106.131
-90.7604
9.49249
33.8387
109.316
25.2916
32.2345
-25.2529
-15.6996
1.97547
-2.7199
-4.22545
3.22781
-0.612448
3.93284
64.2471
38.3887
14.7963
22.215
66.5367
44.9407
34.3953
47.8084
129.214
55.9823
401.163
73.6154
78.3042
108.54
73.4761
64.2386
14.1302
-4.20997
0.878572
1.69572
23.9884
32.3146
15.0964
13.2028
34.3211
7.86777
9.53737
221.966
56.8619
44.8016
64.5489
46.2075
-10.2171
21.1862
32.1927
-2.43564
-5.58181
16.7681
-7.95226
3.06622
11.5205
183.047
151.294
8.97823
-2.52946
141.556
5.71687
146.306
-3.81885
138.202
160.841
-9.36801
-6.33756
137.615
-22.6008
132.697
-0.972626
-0.602986
-0.93537
-0.0607996
-1.41499
1.0962
-0.960498
3.67352
10.4605
4.16663
-2.54351
4.87132
0.872736
10.2718
2.53845
3.16766
-28.5093
6.56704
131.658
-22.2365
-27.7621
28.1587
-2.8509
1.0572
-5.91893
2.76821
4.78636
-7.05728
-1.76834
-1.55115
-6.22875
0.409421
-21.1759
-27.0888
2.50566
134.569
11.4235
-25.067
2.79306
0.0668065
-184.281
-393.778
-288.141
-158.015
-226.722
-266.329
-224.163
-264.351
-554.813
12923.5
-357.848
3601.03
1270.17
2131.05
699.428
1405.56
-414.611
-703.375
-1803.66
-1141.24
-826.584
-2271.99
49.5977
-705.752
232.56
651.754
-672.309
213.564
148.308
-244.286
-182.169
-538.742
-469.762
-406.509
43.5695
512.516
-578.562
-337.075
-125.494
8.78626
-530.611
258.909
-812.04
-481.607
-479.174
-1706.44
95.0179
-514.435
-359.335
-97.8085
184.749
-88.9954
-214.962
-40.5947
-241.769
-407.404
-425.753
-126.759
192.849
-255.246
-480.635
-226.941
-194.691
-1516.65
0.305138
0.949998
3.00084
3.08194
2.57372
1.4713
5.24442
3.92822
0.967327
7.33782
1.91778
35.2486
3.85992
3.18586
11.4746
8.60611
0.402624
3.64826
9.93174
14.2861
1.4286
-0.529717
5.4491
6.99567
100.667
70.6449
152.148
144.293
69.7195
72.8
86.8172
121.119
2.02169
-0.381158
30.6544
32.4312
4.72372
4.50037
13.6314
13.8139
0.628687
25.8043
1.32581
-3.99485
1.28339
3.82077
-2.52624
2.14011
6.38318
55.8619
42.5633
71.5131
63.38
46.4851
54.0479
56.5889
-1.16094
22.2706
35.7077
9.08308
0.464558
3.70143
4.15641
13.1927
148.825
108.261
185.14
151.491
139.169
133.059
156.236
154.99
65.1652
22.4897
83.3235
68.6594
57.375
59.7682
84.1587
81.746
199.185
139.668
193.637
201.885
200.421
175.007
199.354
184.168
153.133
102.871
191.751
157.854
137.068
127.847
160.72
156.79
107.923
176.973
143.904
97.8094
121.637
142.409
115.512
131.981
93.2346
91.3854
121.77
159.547
115.523
101.886
134.523
135.818
184.72
161.327
124.803
188.993
182.498
152.527
173.288
138.921
176.893
177.274
117.303
144.804
161.874
157.881
152.984
150.354
251.545
385.64
471.148
47.4222
70.6481
330.917
-107.587
181.13
641.661
893.289
805.592
209.251
397.009
833.702
257.118
626.631
675.995
944.895
1106.21
307.448
557.362
933.281
354.976
647.043
23.6905
10.0305
55.0702
0.193982
26.3554
18.2915
2.67404
20.4232
278.26
350.177
13.3782
52.7022
123.958
66.5788
64.5737
69.4265
539.212
160.069
714.221
589.552
348.251
271.384
616.494
514.923
236.572
-46.0632
-80.4866
-72.9394
196.969
29.5152
68.9011
-122.894
459.709
140.262
99.5202
561.587
392.816
185.191
430.961
290.675
-6768
302.675
-1351.55
-1892.28
-259.131
3040.01
-1802.58
-934.615
-1538.74
24694.7
24513.3
434.947
1793.6
23653.8
7178.13
23623.3
-3202.66
3542.72
-6991.58
-479.75
-2127.15
-3906.18
-3253.95
-5046.02
-1866.39
43.1574
372.533
-1106.95
-305.517
2174
-96.3506
362.375
-911.315
-289.459
-740.706
-1669.03
-744.993
722.104
-520.496
1507.51
3842.81
3374.98
11584.4
-1795.96
608.044
2920.23
-2026.47
2331.86
-1078.15
-681.84
-2537.89
-82.7582
-311.146
-777.091
52.3343
-86.85
-1261.01
-779.754
1845.75
6347.52
-1478.69
-1335.41
-598.388
280.41
218.031
115.358
290.58
107.296
207.782
190.787
195.351
264.119
97.3838
25.1371
102.745