/*--------------------------------*- C++ -*----------------------------------*\
| =========                 |                                                 |
| \\      /  F ield         | OpenFOAM: The Open Source CFD Toolbox           |
|  \\    /   O peration     | Version:  2506                                  |
|   \\  /    A nd           | Website:  www.openfoam.com                      |
|    \\/     M anipulation  |                                                 |
\*---------------------------------------------------------------------------*/
FoamFile
{
    version     2.0;
    format      ascii;
    arch        "LSB;label=32;scalar=64";
    class       volVectorField;
    location    "1000";
    object      U;
}
// * * * * * * * * * * * * * * * * * * * * * * * * * * * * * * * * * * * * * //

dimensions      [0 1 -1 0 0 0 0];

internalField   nonuniform List<vector> 
41920
(
(17.5171 29.854 2.08329)
(11.2759 24.6998 10.0268)
(17.6312 31.6778 -1.58458)
(24.3434 36.3785 2.65192)
(19.0112 33.8067 3.7251)
(20.1326 38.0719 5.79241)
(19.8955 32.8866 2.54291)
(22.5416 37.0083 6.27476)
(-5.82462 1.46028 -9.10735)
(-2.51223 0.157675 -2.81413)
(-1.52201 2.25311 -6.79114)
(-5.2437 -0.265378 -0.479418)
(-3.12524 0.399455 -4.45283)
(-1.75459 1.45337 -4.02947)
(-3.4583 0.609383 -4.21185)
(-2.0983 1.2597 -4.87968)
(14.7325 41.2967 -1.49442)
(0.279075 10.0572 1.60582)
(5.70209 38.6968 -0.0412138)
(26.7248 51.2527 -0.98353)
(19.2389 44.7862 -1.52189)
(9.49449 35.6884 -9.22335)
(21.6624 47.7572 -0.938571)
(13.4513 36.8691 -6.34625)
(30.9017 38.0904 2.7729)
(8.70158 13.6033 6.01645)
(28.8292 46.0814 0.54375)
(37.2383 37.0154 5.65852)
(32.0273 38.8892 3.00262)
(34.1556 44.5083 2.76557)
(32.6849 34.5424 3.37547)
(36.9188 45.6434 2.14176)
(4.3882 16.1029 -0.107711)
(20.8044 38.3089 0.734472)
(25.0502 36.6722 2.48043)
(5.71417 14.7987 -0.0614111)
(11.2826 24.7809 5.67417)
(23.6339 42.1347 8.35238)
(0.236264 11.307 -1.1546)
(25.5887 40.0384 3.96929)
(-6.65541 6.34219 -8.40463)
(-7.60133 -0.975414 -3.86065)
(-0.972291 0.435881 -6.43823)
(19.4219 43.8646 0.342416)
(0.230953 2.91221 -4.85438)
(0.0402208 -4.99333 -12.7688)
(9.64032 19.4467 5.04184)
(1.77043 1.77479 -4.58481)
(19.077 35.9761 2.32698)
(27.2248 37.7881 2.79075)
(10.3484 15.3691 1.60808)
(27.3075 39.644 1.81107)
(23.1186 39.9955 1.48274)
(28.3774 41.1464 4.61329)
(27.3256 44.0705 2.35311)
(30.0087 43.797 4.91368)
(20.1937 41.9255 -0.93826)
(28.153 48.3979 -1.83685)
(0.374453 -5.66614 -4.44737)
(-0.383063 0.0887288 -6.22697)
(23.013 45.4456 0.271257)
(27.4695 47.8341 -0.785467)
(10.3869 12.6988 1.21996)
(10.8094 4.53102 -0.182705)
(-1.70712 -0.199332 -7.28905)
(-2.03773 0.960193 -5.97246)
(-0.601386 0.348767 -8.54978)
(-2.48261 2.4556 -9.06063)
(-1.97596 0.955465 -5.60202)
(-2.34619 0.763388 -5.97762)
(-0.399023 0.983393 -8.83984)
(-0.60663 0.623898 -9.2045)
(3.6976 4.02631 0.384825)
(8.94678 37.7448 -1.42963)
(4.27356 22.8398 0.588022)
(16.0926 42.7446 0.249948)
(7.28858 22.316 -5.43461)
(8.17169 15.5075 -1.86199)
(7.24312 29.5193 -3.50398)
(8.17977 21.5628 -1.57515)
(-1.16468 1.10726 -2.99284)
(4.55749 11.9196 0.904477)
(1.89941 2.85974 -1.8907)
(8.89061 14.3714 3.8457)
(4.608 5.13455 -1.68019)
(1.03086 1.2352 0.30903)
(3.77053 6.90168 -4.84775)
(0.438608 3.51664 -0.998065)
(3.72221 23.0457 8.58054)
(21.2707 35.2335 -0.405474)
(16.376 31.0811 8.24424)
(17.9372 31.3842 3.28703)
(11.8847 31.0181 8.0061)
(13.9308 30.5586 9.6517)
(12.6927 26.524 2.81328)
(12.5359 25.7837 6.56135)
(-0.498944 1.64786 -6.3298)
(-0.585924 -0.650302 -7.93667)
(-5.90586 0.687036 -11.6628)
(12.2887 30.8657 0.202154)
(-3.26803 3.24824 -9.5062)
(-0.20014 -0.302986 -7.82772)
(-1.19272 7.35879 -2.91844)
(-5.82335 -2.35703 -10.2936)
(3.50663 2.46278 -2.85779)
(10.1383 24.7281 0.751612)
(-2.5372 -2.61285 -5.97748)
(0.123983 0.190409 -7.20441)
(1.74175 1.89595 -5.76632)
(2.65742 8.34399 -0.293433)
(4.52889 1.59759 -6.44367)
(-4.79349 1.26051 -1.24709)
(-2.55489 2.0222 -6.81536)
(2.4042 20.0249 5.73136)
(7.51027 29.8765 3.60472)
(13.9333 22.7318 6.02043)
(1.71031 6.98007 -5.37633)
(1.74426 9.11446 -2.35843)
(0.896107 14.1608 3.3927)
(4.07261 22.1305 9.42471)
(-1.82677 0.775276 -5.53208)
(7.97713 11.7068 3.48482)
(12.8503 26.4295 2.58802)
(4.97175 9.38251 1.14226)
(6.11781 8.03875 -4.1596)
(0.389005 10.0831 0.692878)
(4.03498 20.2974 1.26458)
(1.84657 25.3763 8.81452)
(-1.51049 -0.401129 -7.36754)
(-1.55342 1.68858 -3.6082)
(-0.521152 -0.251738 -4.78566)
(-0.440172 0.217397 -10.298)
(-1.10588 0.444945 -5.595)
(-0.0340565 0.487057 -4.25189)
(-0.00621505 0.56122 -0.895451)
(0.624138 0.719036 -4.66396)
(3.57935 2.54463 -7.76029)
(-0.0252043 13.8529 7.54408)
(9.49476 -1.38445 -7.51238)
(6.66388 6.21152 -8.43629)
(7.2575 3.38804 -1.21333)
(-1.34928 11.0379 -5.83242)
(11.8249 2.82458 -5.91159)
(6.30029 -0.455465 -5.69327)
(-0.315427 0.15707 -4.71967)
(2.10705 0.455249 -8.20227)
(-1.62043 -3.19444 0.796304)
(0.353971 -1.89534 -7.54768)
(-1.64103 0.0136071 -6.45551)
(-1.55138 1.15426 -5.57378)
(-0.917283 -0.577561 -7.1797)
(-3.94278 -1.87857 -0.186907)
(-0.322087 -0.883331 -3.31141)
(1.63154 1.20185 4.22143)
(-4.48953 -1.91747 1.93364)
(-0.641287 -0.353939 -4.06877)
(0.446954 -0.630313 -3.908)
(0.29237 1.87023 1.54974)
(-0.148721 0.695637 -6.61544)
(-2.50795 -1.769 4.01892)
(1.96796 1.01543 -4.91447)
(-0.189014 -0.564617 -4.31701)
(-0.880982 0.431833 -7.36661)
(3.08969 -0.77853 -6.33725)
(1.62721 2.14649 -5.27361)
(0.548898 -0.0781825 -4.03357)
(1.10981 -1.39174 -4.01475)
(-0.0339465 1.19142 -6.14211)
(3.15786 1.42981 -2.16549)
(1.68268 -3.464 -2.56485)
(2.34627 -1.18754 -7.20243)
(0.146001 -0.295885 -5.01704)
(0.453747 0.333554 -4.21923)
(1.92785 2.9613 -4.65893)
(0.351787 0.0366458 -4.29159)
(2.33173 1.32135 -3.78339)
(-0.140161 -0.422672 -3.71575)
(-0.683257 -0.19867 -2.18927)
(-0.448128 0.559593 -7.9432)
(-1.40307 -1.42527 1.35318)
(-0.97425 -0.643189 -4.13333)
(1.51493 1.85679 -5.97443)
(-0.272877 -2.6274 -1.96251)
(0.634561 0.305225 -4.89751)
(-0.595338 -0.120268 -4.74474)
(-3.08166 -3.61254 -1.34315)
(-0.87837 -7.72009 2.90194)
(1.21825 -4.05554 -3.14265)
(-0.440388 -0.645466 -4.47368)
(-0.709525 -3.90614 -4.15635)
(0.181952 3.30091 -5.51191)
(5.6219 -0.382594 -4.99445)
(-15.867 42.6654 3.33209)
(-22.4939 49.9877 2.80462)
(-13.1049 44.7026 1.11817)
(-5.66011 19.708 5.1535)
(-17.0698 44.6991 3.30665)
(-18.5643 47.3206 2.38983)
(-14.8088 41.6068 7.37234)
(-16.3502 46.8201 3.05)
(-31.254 56.7297 2.36578)
(-39.9517 62.402 0.654348)
(-26.1227 59.8114 -1.30872)
(-5.56158 5.91655 -1.88934)
(-32.1723 58.1106 1.64058)
(-34.574 60.4799 0.566078)
(-26.1618 53.9058 0.24451)
(-30.2583 57.0686 -1.86363)
(-8.57808 48.8977 1.24928)
(-15.1123 58.0795 -1.43779)
(-2.15828 64.5986 4.9965)
(-1.74987 11.7173 1.91829)
(-9.36714 51.7172 0.315398)
(-10.5091 55.7647 -0.998128)
(-10.4865 37.1561 5.35883)
(-4.89636 52.886 -1.0884)
(-0.978689 5.78175 1.89978)
(0.634186 -0.417351 -5.44796)
(-1.21947 1.71514 -4.94849)
(0.707521 -4.67236 -2.78228)
(1.29085 -3.4888 -7.67598)
(1.56731 0.0890627 -5.98013)
(-1.86895 0.833129 1.21982)
(-1.15213 1.4728 -3.14152)
(-23.5387 51.2719 2.45328)
(-14.1378 48.8059 2.30957)
(-4.0823 10.0208 2.19283)
(-1.43294 6.25789 -6.53994)
(-19.2496 47.8955 3.0494)
(-17.0943 48.3812 4.42421)
(0.668163 9.25199 -3.976)
(-1.8127 17.3792 0.112072)
(-25.9938 53.8309 2.14502)
(-9.3766 7.65407 -0.549027)
(-22.4887 58.4439 -0.484927)
(-15.0095 50.268 1.3597)
(-23.1637 51.0536 1.61485)
(-24.1728 53.3974 1.41652)
(-18.448 53.333 0.946306)
(-21.0812 55.9852 -0.201358)
(-15.1733 44.7299 4.3594)
(0.380701 7.51374 1.87313)
(6.89196 4.83837 -3.54757)
(-10.4729 -2.26012 2.36852)
(-10.8621 25.6351 4.28308)
(-1.83364 13.6129 -0.945204)
(-0.715333 1.74327 -3.55462)
(1.11876 -7.28667 -8.18112)
(-12.1497 50.6789 1.08754)
(3.61792 1.05925 -8.95237)
(3.03913 -2.45657 -8.58308)
(-18.4008 55.8436 -0.69515)
(-13.8368 51.5547 0.507954)
(-8.21365 20.8281 -3.63926)
(-15.761 52.2992 -0.637023)
(-7.47711 4.95554 -3.94939)
(-64.9812 39.0737 4.90267)
(-44.0472 28.4859 16.1309)
(-34.4329 20.7285 8.50694)
(-14.0612 6.13629 -5.69669)
(-53.7359 29.5792 8.9534)
(-44.2143 24.1409 13.1614)
(-22.1287 8.56005 5.86927)
(-26.2144 14.8595 7.22737)
(-32.0377 21.7403 18.5976)
(-19.0747 14.4262 33.5738)
(-8.27371 11.8692 16.4479)
(-7.6586 10.1321 15.5601)
(-30.5498 21.8565 22.7914)
(-27.0052 16.094 20.7999)
(-17.2143 10.7074 24.4174)
(-8.92672 7.75159 18.7828)
(-5.67803 8.98056 5.51714)
(3.34328 5.48971 5.15637)
(-4.91376 2.72008 -9.10495)
(2.60348 5.89352 3.0062)
(-1.55264 10.0872 4.1926)
(-0.781925 3.15354 -7.63951)
(1.22994 5.79937 1.48089)
(-1.16796 0.666029 -3.80045)
(-3.93107 2.08286 -10.3453)
(4.12477 4.23656 1.29479)
(2.97398 7.97749 -1.17935)
(1.6556 4.63547 -5.34998)
(2.1993 7.63937 -5.81662)
(3.81435 6.959 -1.803)
(2.27943 7.00752 -5.45752)
(3.12571 8.332 -2.11474)
(-39.6715 24.922 13.1164)
(-28.3559 15.8099 9.60313)
(-9.77655 1.1237 -6.72269)
(-3.96638 9.24441 5.62705)
(-24.6132 13.5453 12.6318)
(-27.2894 14.5304 9.71224)
(-11.9541 9.4633 5.01226)
(-13.5463 9.76173 5.86116)
(-37.773 21.8751 18.7682)
(-4.0961 9.51323 5.32336)
(-14.748 12.2357 14.5311)
(-24.0563 15.861 12.283)
(-18.2209 15.7327 14.8975)
(-18.4117 14.3434 11.8026)
(-20.4529 15.1365 12.7385)
(-16.2113 11.3071 15.2638)
(-7.07575 4.14902 3.83824)
(-6.3547 4.13521 -4.44569)
(2.18148 6.26176 5.60391)
(3.55314 8.89881 2.14262)
(-3.62998 4.29752 -0.750397)
(-2.96147 0.679696 -1.3928)
(-1.09787 7.48733 2.65427)
(0.301385 3.40211 0.00277692)
(-5.41524 8.53293 4.93771)
(4.13373 8.23985 2.66593)
(0.143239 9.02249 3.87829)
(2.4648 8.43118 6.14352)
(-2.96462 10.8792 4.02819)
(-0.59558 10.4339 3.51308)
(-2.66413 8.70779 5.40153)
(-1.13344 9.8786 6.08466)
(1.48218 1.76505 -2.01457)
(2.58443 5.52608 3.88133)
(-6.8269 -1.53561 -5.39337)
(6.75073 9.55064 2.45778)
(3.38646 5.31958 1.05986)
(3.70713 5.63295 4.98978)
(3.52184 3.15051 -1.71062)
(-0.429133 -3.82121 1.05602)
(1.32489 22.7615 -0.589169)
(-1.7169 22.6591 5.94411)
(-0.473094 8.08195 3.22368)
(11.635 37.012 0.411161)
(6.21521 24.1293 0.957953)
(0.932152 12.4687 4.81311)
(1.42369 17.6775 2.83068)
(0.380246 13.002 4.17194)
(-0.916699 0.216347 -5.22654)
(-2.01468 2.2125 2.19313)
(-2.56312 0.223462 2.50755)
(-0.132952 3.939 2.00407)
(-4.70194 0.0169474 -0.253214)
(-3.46601 1.10808 2.44231)
(-1.39224 0.4839 -1.72692)
(-2.16365 1.31493 2.44591)
(13.4144 23.819 5.40502)
(17.1342 31.2433 1.71037)
(6.28224 17.5203 4.8904)
(15.0872 27.7491 5.5705)
(12.0113 24.5439 6.96905)
(10.5189 24.1322 4.10331)
(12.1113 23.131 7.89385)
(11.3527 22.8371 3.77066)
(3.11101 14.2676 3.4193)
(-6.14559 -1.41814 -4.94741)
(6.36843 15.4367 2.81425)
(10.1558 27.0531 4.11178)
(7.28617 7.08057 -3.474)
(-2.8082 -5.56827 -1.78405)
(7.24529 27.4893 0.892194)
(4.89678 23.0586 -1.36566)
(0.145052 19.4169 -4.06198)
(4.25197 22.8617 1.46626)
(-0.735672 5.52687 2.71638)
(-6.36031 -0.40058 -1.49611)
(4.9553 -0.361838 -2.82247)
(-2.38186 5.79628 -0.512275)
(-5.70702 3.07361 1.12021)
(-2.99478 7.19132 0.558777)
(2.72554 -1.14648 -7.83067)
(10.0248 11.1924 1.27178)
(8.73189 22.9688 7.00588)
(1.44418 9.47868 3.68918)
(-7.62147 -1.28937 -3.11134)
(10.4258 3.33105 -0.0163976)
(-0.21202 12.5649 3.12355)
(3.64802 17.3605 6.23096)
(-2.49235 0.889329 -2.89562)
(2.78516 4.72428 2.23477)
(6.13125 18.8852 -0.366139)
(0.41213 4.01042 2.93167)
(-4.34313 -1.72171 1.26653)
(-0.919086 10.0712 1.77322)
(-3.28424 3.79942 0.00047527)
(0.109989 14.415 1.48591)
(17.9849 31.9314 3.46739)
(3.92894 10.6014 5.7312)
(0.36597 19.0714 -6.67985)
(23.9691 34.6352 2.48818)
(18.8816 31.7211 3.77538)
(-0.464547 11.214 1.7757)
(20.5125 31.9142 3.79223)
(4.02637 17.6017 -5.1121)
(7.58228 6.60636 -0.614193)
(0.914942 -1.10002 1.31735)
(-0.303582 1.2223 -8.90121)
(-5.04305 2.3669 -5.10557)
(1.6299 3.2105 0.034886)
(0.0433529 1.75127 1.16022)
(-6.45932 -3.86042 -2.98765)
(-3.44604 2.51065 -4.95719)
(-3.2292 0.797849 -8.78956)
(-0.848054 0.158444 -18.9124)
(-0.59331 -0.25561 -3.42852)
(-5.08481 -1.38829 -1.20332)
(-1.09047 1.11734 -17.0577)
(1.72528 0.55928 -13.7005)
(-2.54928 0.173394 -0.440578)
(-0.82676 -0.111502 -1.17437)
(29.619 37.1721 2.75184)
(3.74379 8.64508 -1.43068)
(3.02515 8.77983 -3.46611)
(35.4946 36.1213 5.68267)
(28.5714 34.8835 3.55995)
(9.74659 11.9538 0.186885)
(30.581 35.484 4.07709)
(8.10746 11.3373 -3.32634)
(0.904855 11.7753 5.49719)
(-1.73563 2.96798 -9.17662)
(23.9051 33.5998 4.62283)
(-3.19672 4.29699 -6.40508)
(-3.39855 10.2721 0.90907)
(4.1739 14.4471 3.75068)
(2.16491 8.76283 -2.31951)
(7.56097 13.3705 4.17468)
(9.30542 7.82103 0.438804)
(-4.6141 3.83711 1.29323)
(-2.71433 1.27547 -7.93338)
(-4.50573 -3.2736 -11.9778)
(-8.07142 5.34822 -3.1245)
(-5.83858 4.81497 0.0196066)
(-5.53071 8.13249 -1.71062)
(-2.5508 -0.174094 -5.42833)
(3.76468 21.2277 -4.12158)
(25.8796 33.739 4.58434)
(1.13321 9.41551 -0.0307142)
(3.26202 9.17493 -3.41179)
(1.8639 3.82874 -6.47558)
(3.81893 8.57699 -2.92854)
(1.3519 13.0162 -3.18965)
(2.84361 12.4801 -3.33068)
(-3.82009 4.84906 -2.33526)
(-4.48503 -2.87139 -6.29198)
(0.784359 4.40937 2.07324)
(0.216986 1.23757 -15.861)
(-1.57547 -1.63141 -14.7238)
(-2.20381 -0.916674 -8.7781)
(-0.220916 3.29745 -14.4229)
(-0.782233 0.313575 -12.1633)
(-0.899353 -4.24593 -3.67742)
(-0.245663 0.671615 -0.339182)
(-2.13031 2.34784 -3.7683)
(1.19279 -1.23361 -5.32367)
(-1.0862 -3.68304 -2.71632)
(0.506757 -1.27803 -1.4999)
(-1.50197 -0.397084 0.942447)
(0.218392 3.38684 -1.32801)
(-7.49795 5.81486 -1.96171)
(-40.9368 64.3038 -0.820324)
(-28.8238 62.0332 -3.41571)
(-8.27639 7.86988 -8.66765)
(-5.97009 5.05721 -2.27643)
(-32.3504 58.4 -2.63003)
(-8.03958 8.32995 -6.54644)
(-31.959 60.3025 -3.37134)
(3.60634 -2.14402 -7.95251)
(-15.4664 58.7086 -1.95653)
(-0.419446 54.0445 2.55735)
(2.13312 7.93848 -4.16966)
(1.90142 1.95609 -7.75077)
(-13.1878 42.6739 0.395444)
(4.16994 10.1929 -5.91406)
(-4.68888 57.4302 0.647345)
(-0.738943 -0.903737 -14.9614)
(0.28988 -4.13358 -9.68605)
(0.20297 -0.253207 -11.2401)
(0.320542 0.136918 -10.8308)
(-0.410736 -1.96847 -10.807)
(0.325124 -1.94096 -11.6693)
(0.0357529 -0.0408296 -15.3915)
(-0.0307116 -0.858575 -15.3075)
(-3.67766 0.203741 -3.05762)
(-2.56235 1.55284 -9.96126)
(-0.342818 -1.14868 -6.35835)
(-1.28955 -3.00776 -5.8696)
(-0.563794 -0.623665 -2.13755)
(0.45 0.187389 -6.46362)
(-0.698995 -1.95888 -7.71547)
(-1.48046 -0.740528 -8.60838)
(-2.43044 -0.639096 -0.834061)
(-5.14039 -2.42324 -4.58787)
(-20.3688 57.0365 -1.68376)
(-2.26758 5.98852 -9.11169)
(-3.19506 3.66217 3.88583)
(1.72233 3.12965 1.7567)
(-4.91789 6.11219 -8.04922)
(-7.88295 7.49093 -6.71451)
(-0.982139 0.316827 -12.4118)
(-0.678292 -0.590815 -11.5841)
(-2.33465 -2.22732 -8.31402)
(0.792056 -0.188666 -8.03147)
(-1.33507 0.0110324 -13.7867)
(-0.699884 -0.523861 -11.2234)
(-1.07166 -2.54039 -6.38458)
(-1.2984 -0.916303 -9.9992)
(0.198008 0.30297 -8.69101)
(-0.495562 2.2466 -9.50718)
(-1.99466 4.68441 -7.98706)
(-18.6492 59.4436 -2.30419)
(-3.22358 2.60947 -1.87398)
(-0.71282 0.368189 -4.12958)
(-2.10204 8.9146 -5.81726)
(-3.513 7.52516 -8.7236)
(-20.473 5.05523 44.2849)
(-23.9259 -7.10879 -18.9528)
(-17.9 -3.34022 -9.10587)
(-20.5138 8.40483 47.8729)
(-22.7544 7.07625 50.0587)
(-19.4044 9.00976 28.7291)
(-23.4487 15.1675 48.9642)
(-22.8228 7.41641 20.5614)
(18.9771 -13.0169 -58.8415)
(119.993 -36.9724 -69.01)
(-31.2517 -27.7474 -47.6758)
(37.2991 -30.8851 -53.0128)
(37.0751 -64.8533 -54.3311)
(60.7407 -96.3686 -46.0245)
(57.1624 -58.9765 -33.8135)
(6.14624 -52.7971 -37.4008)
(-7.92575 0.825234 -25.5672)
(-9.45474 -2.9515 -31.2748)
(-4.93897 2.48982 -24.5488)
(-6.29917 -1.0119 -17.0282)
(-7.94995 -5.42729 -28.7501)
(-7.48279 -2.60624 -27.719)
(-3.83526 1.46207 -19.1823)
(-6.096 1.05637 -24.7063)
(-21.5894 5.83118 37.5996)
(-15.1111 11.5774 -20.7705)
(-9.68544 -5.03537 12.7492)
(-21.4189 -1.88093 35.0014)
(-23.6667 1.47826 22.841)
(-3.44616 -11.9505 2.07878)
(-10.358 -5.16894 33.2975)
(-17.7871 -17.7998 9.08572)
(-14.0224 -9.38935 -34.3438)
(-7.07079 -11.1647 -26.378)
(-28.0373 12.4889 38.5896)
(-26.6239 7.32574 -45.3379)
(-13.1306 19.3961 -14.9262)
(-9.03059 0.220281 -7.45735)
(-12.8452 15.5304 -20.7593)
(-14.6286 17.4206 26.6509)
(-11.2744 -17.1516 -37.8636)
(6.17459 2.42109 -38.5576)
(-19.3623 -0.73574 -32.6914)
(-19.6076 -3.54049 -26.2318)
(-0.214867 12.1235 -36.0782)
(-11.2843 -17.6864 -51.3645)
(-18.8204 -6.54267 -37.3212)
(-20.0266 -15.9532 -39.8178)
(-14.7015 -5.42513 0.591879)
(-22.5489 7.14584 40.7381)
(7.75129 -31.0647 -25.1052)
(-11.2648 -14.7764 -3.80318)
(-11.502 -13.3681 -13.1487)
(-7.02091 -0.959866 -14.3364)
(-12.6931 -6.60013 -1.03152)
(-9.56261 8.32252 -7.11937)
(-20.0064 -4.12173 -21.5543)
(-11.245 -5.02755 -20.4758)
(-18.2534 -31.0468 -11.2894)
(-18.8955 2.18798 -27.3665)
(-16.1243 -3.59348 -26.1878)
(-14.464 1.53626 -20.5372)
(-24.0624 -21.1991 -39.517)
(-27.1049 -26.1923 -25.2624)
(6.67777 5.04463 25.9461)
(4.1 5.24203 19.4165)
(2.80176 12.0501 21.6789)
(11.5721 12.3224 17.0733)
(5.76298 8.92534 24.2214)
(6.78917 7.47439 24.6967)
(7.77351 12.025 19.4797)
(7.94584 9.11898 21.9838)
(0.257495 3.49224 12.0957)
(-0.647765 1.91829 9.9761)
(5.14225 2.60338 5.79336)
(0.971302 -4.52138 -4.91114)
(0.184867 0.921188 7.51367)
(1.89782 0.0757804 9.90586)
(1.96741 1.30347 7.42824)
(1.68607 1.34738 -0.227312)
(1.94526 16.2955 21.3212)
(5.74335 9.45887 15.6912)
(7.33575 14.808 16.7622)
(12.7641 14.3776 13.569)
(6.88729 11.0177 17.6642)
(5.51683 14.1321 18.6933)
(7.88212 14.9491 16.582)
(6.94381 13.5517 16.2371)
(13.454 14.4595 10.0162)
(14.6264 9.55255 6.36642)
(15.4039 14.8793 10.5848)
(15.3347 14.712 5.30974)
(15.1324 12.9967 9.62776)
(15.2769 13.1469 9.26937)
(15.4968 15.4849 9.87265)
(14.5544 13.294 8.89097)
(3.08118 7.36385 15.1536)
(7.56179 10.4974 20.0297)
(11.1839 12.3924 16.2338)
(1.45954 2.07787 4.55343)
(7.87479 8.20943 16.3168)
(13.2731 10.5801 18.958)
(3.62789 3.78756 10.6739)
(10.9717 12.5008 15.388)
(3.48054 8.43499 14.4373)
(-0.599662 0.26673 2.35682)
(3.07888 6.70239 11.569)
(9.19056 7.29288 23.6644)
(3.97016 6.30223 12.2097)
(-2.353 5.86584 2.48988)
(9.14035 10.8899 21.2565)
(2.95549 5.10297 12.481)
(5.13635 16.8996 15.8723)
(12.084 13.2683 13.3009)
(9.96766 9.05609 8.87034)
(13.7622 14.6086 13.3885)
(11.0928 13.1059 13.9672)
(11.4811 12.4023 13.8914)
(12.3148 12.4173 13.8853)
(12.2819 13.2347 13.3428)
(6.55654 10.7859 18.8442)
(11.7491 13.4916 11.9151)
(7.19843 6.28959 6.88323)
(5.02825 5.5769 11.6341)
(10.7711 10.3853 16.8082)
(11.0042 13.0637 12.9548)
(6.35254 7.95268 14.9877)
(8.85671 7.58427 8.14616)
(-9.48177 33.3868 82.754)
(20.5717 -11.6657 -48.7186)
(49.2918 0.844239 -10.7732)
(-12.4611 58.7606 56.9589)
(-17.2357 58.6955 58.6112)
(23.7876 9.5391 -11.8066)
(-11.9594 58.9021 50.2961)
(63.035 43.8297 -8.94078)
(-49.2251 -54.8368 -84.8006)
(83.8245 -93.077 -109.689)
(-70.7276 -144.929 -128.882)
(8.96956 -1.2279 -231.921)
(11.6156 -52.4935 -145.986)
(-0.624312 -36.365 -94.4552)
(-1.74998 -1.10319 -166.904)
(8.15616 -26.284 -132.098)
(-56.4454 -56.6148 8.16989)
(-104.141 -72.8655 -2.33956)
(-75.5025 -72.1816 13.5726)
(28.9964 -8.6357 -27.2158)
(-52.9298 -76.7361 20.5531)
(-114.023 -95.2038 5.90419)
(62.1994 27.4852 -23.7317)
(-58.4175 -13.6313 1.02583)
(-24.9408 68.6603 49.8461)
(-9.03931 1.18344 -226.462)
(16.1574 52.9529 -0.89725)
(3.03511 -12.7803 79.0728)
(1.42507 60.3935 51.5167)
(31.5927 45.7849 88.9019)
(-38.7411 66.805 9.26305)
(19.0634 81.6253 1.77096)
(13.8551 4.86122 -83.8847)
(54.6405 3.20612 3.986)
(-4.1233 48.674 66.6429)
(9.10184 -10.878 -219.336)
(-6.49291 1.90162 -84.5227)
(34.2778 40.0295 18.1711)
(-11.5841 3.10926 -136.356)
(18.1711 29.7384 56.0145)
(-19.4774 11.3641 -72.4834)
(27.8247 -16.9906 -157.996)
(-102.678 -130.948 -64.2148)
(-47.9485 -9.49127 -44.5727)
(-11.0308 -7.32327 -101.356)
(-1.36246 -22.3059 -133.55)
(-67.7646 20.6584 -66.5687)
(-33.0094 -2.72423 -75.1395)
(48.2564 1.86442 7.51059)
(-34.8404 74.913 60.8118)
(-14.1737 16.4722 -137.324)
(23.453 32.0877 -1.75735)
(57.5386 10.5659 -17.8749)
(38.9264 49.3153 1.56478)
(52.9549 7.58825 17.6382)
(7.3985 60.918 31.4176)
(17.614 -22.3648 -6.32785)
(32.3091 -11.0693 7.10375)
(7.60098 1.46639 -79.1702)
(-96.5358 -42.1141 -32.6659)
(29.4202 -21.869 0.606443)
(36.3025 -22.4374 5.69641)
(-65.8832 25.4687 -60.4739)
(2.08681 12.4391 14.2388)
(-0.894495 -4.97802 -10.4518)
(-6.66425 -1.21279 -14.5255)
(-2.85563 -6.15506 -6.53202)
(-3.88154 -1.75037 -16.2979)
(-2.3236 -2.04965 -8.63926)
(-3.28039 -8.30809 -10.4218)
(-4.05647 -0.977948 -7.60843)
(-5.52132 -6.90084 -9.34136)
(-16.1908 -1.34084 -30.4285)
(-10.9711 -7.85784 -153.331)
(5.16922 -6.66246 -87.5098)
(-18.1778 -5.30996 -23.8632)
(3.009 -10.7578 47.5875)
(-9.35552 -9.88761 -121.858)
(9.66277 -27.857 1.05901)
(2.68171 -13.207 -107.391)
(18.5676 1.58458 -34.669)
(18.2249 3.48222 -66.9118)
(25.9972 84.7791 -39.3932)
(42.1364 75.3505 3.49835)
(29.8499 7.9829 -44.7235)
(17.9497 6.7527 -56.4023)
(34.1512 12.7426 -25.6572)
(27.8025 32.5807 -30.0567)
(-3.67643 -12.2448 -18.8739)
(-5.59488 -9.83275 -25.9336)
(115.107 53.3118 -13.6796)
(93.8791 18.1041 -0.878572)
(-9.93056 7.04359 -24.7768)
(-6.07594 -8.77384 -36.0241)
(67.3126 16.7875 -13.8379)
(87.7261 26.4194 -18.2727)
(-3.60313 3.56079 -11.8909)
(1.47493 -8.48245 -6.69888)
(-4.79016 0.999536 -17.4166)
(-7.1156 -2.6072 -32.2129)
(-17.3969 -8.70379 -1.33583)
(0.313342 -9.76422 -8.95667)
(-9.38654 -8.5832 -17.9813)
(-0.978055 -6.50539 -3.04326)
(-7.95765 -10.7386 -31.1835)
(-3.99386 1.46073 -8.22073)
(9.71919 -2.41422 -81.5393)
(3.85855 -8.11207 -36.4762)
(-7.49108 -7.1042 -23.0043)
(-24.3789 -25.2765 -3.50568)
(1.83387 -7.38163 -37.9237)
(8.75914 -19.3499 -29.7295)
(10.7367 -15.3905 -5.71765)
(-3.60126 -1.09486 -17.5897)
(-1.06417 -7.87428 -37.0739)
(32.437 1.02897 -43.0245)
(0.244404 -16.4546 -8.26535)
(-0.215711 -0.176911 -7.45596)
(2.15499 -14.7249 -38.42)
(-5.76372 -2.21549 -30.4156)
(5.05986 -13.5342 -34.6894)
(61.2325 43.059 -55.7768)
(-0.635405 -9.57047 -7.37984)
(14.3189 -3.23785 -77.9602)
(19.7894 -16.4298 -33.6669)
(17.3513 -16.4629 -34.0974)
(16.2993 -18.5571 -44.8858)
(18.099 -10.0714 -14.8576)
(-0.338415 -12.0392 -170.41)
(1.12203 -1.53107 -33.5022)
(1.38265 -2.4238 -36.9541)
(7.33917 -26.0165 -48.2444)
(-1.00111 -8.27256 -13.1541)
(16.8552 5.70885 -0.523067)
(6.31128 -16.0417 -25.3778)
(0.183412 -1.57606 -31.2995)
(0.345522 -1.61941 -12.349)
(0.00387102 -2.85247 -2.43539)
(-0.366294 -0.475478 -15.5157)
(-2.16617 0.324823 -14.5034)
(-3.54697 -1.06598 -7.36993)
(-1.71698 -0.976516 -4.69388)
(-3.14608 -0.499708 -15.6174)
(-1.1056 -0.464615 -14.3808)
(0.0639423 -0.215329 -23.7227)
(-0.468117 -0.681683 -7.58451)
(-0.830549 1.33264 -2.44908)
(-0.43258 -0.950133 -4.15554)
(0.815944 -0.884656 -11.1969)
(-0.607255 -0.36128 -5.04381)
(0.04867 -2.17731 -1.91343)
(-0.779962 0.669566 -5.52808)
(-14.2852 -2.76747 -13.2721)
(-3.40684 4.2732 -0.865925)
(-8.3774 -3.74155 -9.09786)
(61.1411 28.404 17.6652)
(-17.5744 13.9495 -9.30785)
(-16.5587 -3.32109 -5.59081)
(-3.43675 20.1421 -13.0719)
(-6.94359 9.52405 0.579284)
(1.37254 -0.377606 -25.3488)
(2.20412 -1.00602 -23.2128)
(4.03458 -4.2142 -33.0913)
(-2.91483 -0.287545 -13.1975)
(-2.0447 2.4073 -23.9562)
(4.23081 -0.512413 -26.2983)
(-1.25013 5.19222 -27.274)
(-3.32842 -1.81396 -13.8366)
(-2.29876 0.344262 -13.6667)
(-1.27274 -1.48709 -12.009)
(-0.601175 -0.501595 -9.09345)
(0.469634 -0.198972 -20.2439)
(-1.58172 -0.0397056 -23.2162)
(-1.86508 1.0298 -13.1754)
(-0.545249 -0.252342 -24.1471)
(-0.482863 0.64421 -11.6167)
(-0.147268 -4.98744 -22.1586)
(-6.31013 -1.93656 -13.7485)
(-3.87448 -1.78022 -5.36486)
(-1.568 -2.26287 -8.87644)
(0.116549 -5.80926 -22.9002)
(-3.90471 0.0584303 -14.0909)
(-1.58871 -1.26319 -10.5003)
(-4.52434 -4.03856 -6.57019)
(-1.16097 -1.78388 -23.9765)
(-1.25141 -3.11786 -8.54427)
(-2.221 -0.289606 -7.36976)
(-1.15344 -1.32418 -6.20418)
(0.277692 -0.820962 -11.2777)
(-0.326037 -1.91555 -10.6104)
(-2.58905 -0.893461 -5.47104)
(-2.27775 -1.96493 -7.23186)
(-63.0446 39.4288 10.4176)
(-45.8624 28.8344 10.0821)
(-39.775 26.0069 13.3631)
(-10.2085 8.00238 -1.94829)
(-55.2654 35.5815 9.76529)
(-47.204 32.5206 11.696)
(-41.6048 22.3778 5.05234)
(-32.1755 20.0579 8.31534)
(-30.1562 25.3066 14.1224)
(-10.1006 28.2519 21.1018)
(-10.3136 26.3986 20.1959)
(-3.1841 15.171 20.1386)
(-20.4364 25.5986 15.1134)
(-17.7049 22.8311 25.0713)
(-3.06436 23.8254 22.8616)
(-4.15166 26.5895 23.1296)
(-24.0645 20.8951 19.7062)
(-11.0552 21.9307 26.6031)
(-15.7149 25.2167 32.3634)
(-9.49275 10.6354 27.278)
(-18.8893 18.7847 20.559)
(-8.83235 20.2131 23.224)
(-18.1769 13.6907 20.2452)
(-17.5501 22.3739 28.1692)
(-1.63444 2.9966 -7.69509)
(1.24627 5.03954 9.24584)
(2.25361 6.53463 5.21533)
(4.90422 3.62365 -4.17935)
(4.53976 7.06094 -4.16948)
(-0.52558 5.37754 9.6543)
(4.59872 7.60177 -4.54265)
(-0.162357 3.71 2.69338)
(-38.7301 28.4936 11.4592)
(-32.3176 28.0608 17.4791)
(-9.70949 5.94627 2.11645)
(-1.45123 9.09611 11.2264)
(-23.8409 23.5372 11.3256)
(-31.1704 21.8746 11.0076)
(-4.52865 11.8379 12.9831)
(-5.43159 3.47484 1.56355)
(-33.7516 24.4215 14.491)
(-6.52036 9.95473 12.3062)
(-16.7346 22.6664 23.3239)
(-28.7201 25.3934 16.3108)
(-12.3935 21.4243 18.6458)
(-17.612 21.9257 16.7385)
(-26.1638 23.4701 17.825)
(-21.9063 23.3341 17.802)
(-31.9126 21.5055 16.3544)
(-0.864037 -0.534383 -7.02504)
(-5.04648 3.88181 7.20985)
(-10.7836 5.63374 4.54551)
(-15.3995 17.1212 12.347)
(-6.75512 9.80694 7.50105)
(-13.2673 9.47477 9.48659)
(-6.52603 9.30875 7.47003)
(-26.3277 21.3238 15.9504)
(-2.10736 5.95572 10.2748)
(-2.29792 9.83018 8.64052)
(-11.5573 26.0545 26.9294)
(-22.1114 21.5004 19.3664)
(-11.901 14.6143 16.2964)
(-18.2766 18.8033 17.613)
(-10.5471 13.3016 20.3313)
(2.84288 22.5741 2.85971)
(4.7245 16.3344 8.022)
(1.26576 11.9405 6.3289)
(2.22952 14.1611 9.06212)
(3.02217 19.6482 4.63275)
(3.90541 18.188 9.14409)
(3.27646 16.2607 9.24738)
(3.84835 14.5739 10.8549)
(4.6636 9.90826 11.426)
(5.80676 3.59149 15.3957)
(3.41905 6.15811 17.3386)
(8.0289 4.99309 15.8953)
(4.78894 7.53968 12.8287)
(4.38087 5.51175 15.0299)
(4.09349 6.28038 14.628)
(5.43251 5.59083 17.9298)
(1.71575 3.2192 5.59142)
(2.23924 4.52655 15.2611)
(-3.94111 0.507731 -13.9608)
(1.57103 5.08011 12.5857)
(0.873828 4.02334 13.3703)
(-0.0497578 1.54624 12.217)
(2.07262 4.55403 7.96548)
(-2.77815 -1.67048 3.07926)
(3.94872 8.71307 13.0523)
(5.73084 3.64227 14.3401)
(3.32688 4.26739 15.9694)
(3.18332 4.05139 17.9267)
(3.9472 5.95769 13.0643)
(4.50445 5.28076 15.0118)
(4.24466 5.26535 16.1047)
(4.48952 4.30899 18.6961)
(4.05916 14.6662 9.17118)
(0.615184 10.8875 8.4584)
(3.16282 13.1118 9.8254)
(4.08453 6.0964 14.2121)
(2.2023 11.5768 13.7278)
(2.67946 15.0014 11.8124)
(4.39436 7.92997 12.2967)
(3.07411 10.1746 13.3709)
(2.25839 10.9042 14.7594)
(5.05924 5.92649 16.4297)
(2.43844 6.289 16.0131)
(1.87251 6.13215 11.0673)
(2.54478 8.83376 15.5653)
(1.13597 8.50701 15.987)
(2.54538 10.3888 14.8724)
(2.08021 9.64229 14.5567)
(1.68907 7.68168 9.39157)
(2.77 10.2159 13.4156)
(4.42173 6.12363 15.1376)
(2.54194 4.7958 13.9765)
(1.04311 6.31484 11.3697)
(4.03895 8.77115 14.859)
(2.12882 5.72289 14.1042)
(3.88675 7.42082 16.7588)
(1.03623 5.2241 11.3348)
(2.39873 3.90621 15.5043)
(5.10207 6.07772 16.0785)
(3.44827 4.16898 16.9574)
(2.44287 4.96056 14.6791)
(2.39855 5.29867 14.8131)
(2.75762 6.69988 16.1442)
(2.21685 5.844 16.1269)
(-4.70094 4.11466 9.90987)
(2.27002 5.18891 -1.04023)
(-0.228762 7.05804 3.15054)
(-0.914085 4.66233 7.09718)
(-3.0063 4.97088 9.90689)
(-4.15388 8.9565 10.0263)
(-4.24591 4.39359 8.46363)
(-2.40614 8.34932 8.14865)
(4.49971 -0.219504 9.28131)
(2.92777 15.9635 31.219)
(-3.64587 9.15311 26.0146)
(3.91018 12.1297 20.3907)
(1.31406 9.11272 24.8414)
(0.735828 6.78761 28.1437)
(2.22785 11.8358 21.1157)
(0.730961 10.5308 24.0574)
(3.53921 0.866567 -5.39635)
(-6.8317 8.55017 24.5333)
(-5.25772 5.1252 28.0346)
(2.23425 2.29941 7.43824)
(-7.28783 3.37735 14.1628)
(-5.22528 7.36917 24.2317)
(0.301997 -0.0627586 5.3995)
(-4.67928 7.13186 22.4406)
(7.05985 11.2179 6.75957)
(22.4868 17.0454 14.037)
(9.68165 11.7643 9.26445)
(44.2826 16.8868 9.33151)
(15.4303 15.5713 13.9372)
(15.6497 16.0554 13.2623)
(27.0651 14.4745 8.66108)
(21.9018 12.5918 10.5442)
(1.82844 7.68792 12.0665)
(-2.45811 6.17534 10.0899)
(0.859409 3.97523 6.67734)
(9.09819 13.974 14.3198)
(4.05717 9.2332 13.1179)
(-4.30245 8.78349 10.433)
(6.86521 12.1736 13.2459)
(1.85641 7.92771 12.1402)
(-0.882709 10.494 19.8262)
(3.64294 11.0677 22.2099)
(-3.39686 8.63436 24.5833)
(-3.60896 6.25339 17.4977)
(-3.27679 10.2436 24.2793)
(-0.298686 13.4593 22.3307)
(-6.12322 6.57773 21.2399)
(-0.881235 10.6264 23.7501)
(1.55466 8.27961 7.46549)
(2.90427 9.49931 6.65592)
(13.2714 14.8028 14.1221)
(5.41178 9.44056 10.5179)
(4.0758 8.72793 10.4082)
(2.50368 11.3558 10.5839)
(3.93387 11.6231 11.3102)
(3.1556 10.7384 12.2825)
(-3.58019 6.22255 17.4287)
(2.03584 11.0485 18.7714)
(3.65916 11.8006 22.2313)
(-3.9097 8.15505 25.0734)
(-2.13492 8.48995 18.3927)
(1.09975 9.7669 19.7078)
(0.188952 11.7139 23.8817)
(1.66316 12.8117 24.4697)
(5.83266 7.3019 17.3119)
(-1.96158 3.18894 11.5807)
(-1.69633 5.65238 10.7589)
(20.858 23.9228 13.521)
(4.70068 12.4157 15.6523)
(3.36797 7.90741 13.563)
(17.3377 18.0246 13.9746)
(6.63503 9.80211 14.5281)
(13.6044 11.5539 22.1473)
(6.20373 5.23588 24.7774)
(4.71198 14.1807 20.9386)
(12.8146 12.3571 17.9914)
(8.03418 14.5247 24.8275)
(6.49296 12.0816 24.7913)
(7.32699 12.7453 21.5235)
(7.1916 12.2346 22.2743)
(4.52998 18.1119 13.0875)
(2.38921 15.3405 16.3232)
(5.43317 17.3245 22.6336)
(15.319 19.4648 16.3163)
(7.59697 15.5935 16.8477)
(6.30221 16.9843 20.0346)
(6.96642 16.2911 17.4792)
(5.54735 18.0905 18.297)
(21.8201 20.3981 10.8751)
(16.062 14.8131 10.5402)
(18.946 20.281 15.4713)
(19.1381 15.8048 7.53923)
(22.4478 19.3444 14.735)
(19.9436 18.7936 13.4129)
(21.3819 18.7473 13.0858)
(21.0171 18.9808 14.2734)
(6.94859 7.09702 13.061)
(9.35624 10.9925 16.3643)
(24.1185 25.6751 19.0304)
(15.5703 17.2856 16.1107)
(5.71216 11.0052 21.0889)
(17.9714 23.9714 23.0549)
(19.7368 18.8603 17.1999)
(23.8861 25.507 18.0978)
(6.10517 12.8541 10.8723)
(14.0708 16.3422 17.425)
(-0.692701 16.6274 14.4415)
(0.891351 11.9218 15.5969)