/*--------------------------------*- C++ -*----------------------------------*\
| =========                 |                                                 |
| \\      /  F ield         | OpenFOAM: The Open Source CFD Toolbox           |
|  \\    /   O peration     | Version:  2506                                  |
|   \\  /    A nd           | Website:  www.openfoam.com                      |
|    \\/     M anipulation  |                                                 |
\*---------------------------------------------------------------------------*/
FoamFile
{
    version     2.0;
    format      ascii;
    arch        "LSB;label=32;scalar=64";
    class       surfaceScalarField;
    location    "300";
    object      phi;
}
// * * * * * * * * * * * * * * * * * * * * * * * * * * * * * * * * * * * * * //

dimensions      [0 3 -1 0 0 0 0];

oriented        oriented;

internalField   nonuniform List<scalar> 
105296
(
4.4782e-08
-1.44641e-06
2.33539e-08
1.37828e-06
-1.43192e-06
9.14367e-08
1.92606e-08
1.32122e-06
1.37393e-06
4.69389e-08
-1.4466e-06
2.57288e-08
1.63365e-08
6.4447e-08
-1.4409e-06
1.36011e-06
7.13212e-08
-1.3909e-06
1.36436e-06
-1.37939e-06
1.87867e-08
6.90902e-08
-1.44365e-06
6.3635e-08
1.45153e-07
-1.39542e-06
8.94726e-09
1.24132e-06
-1.34322e-06
2.08462e-07
-5.59678e-10
1.13531e-06
1.20443e-06
-1.39893e-06
1.85412e-07
9.09561e-09
1.62784e-09
-1.3745e-06
1.67177e-07
1.20569e-06
1.64906e-07
-1.21046e-06
1.1907e-06
-1.17882e-06
5.05424e-10
1.7566e-07
-1.38449e-06
2.01269e-07
5.33135e-08
1.36909e-06
-1.44652e-06
2.41161e-08
-1.4331e-06
1.28482e-06
1.29366e-07
1.89122e-08
1.35871e-06
-1.44463e-06
6.00742e-08
2.58455e-08
1.73809e-08
1.33422e-06
-1.43842e-06
8.6814e-08
9.017e-08
-1.3762e-06
1.33935e-06
-1.35434e-06
1.14126e-08
8.66248e-08
-1.44545e-06
9.09922e-08
8.56234e-08
3.40371e-09
-1.42854e-06
1.33951e-06
-1.39198e-06
-7.43684e-09
1.42483e-07
1.25693e-06
1.31852e-06
4.7328e-09
-1.4263e-06
1.03053e-07
-1.38444e-08
-1.40585e-06
1.11914e-07
1.30778e-06
9.18525e-08
-1.3081e-06
1.30187e-06
-1.29545e-06
-4.6775e-09
9.59565e-08
-1.4179e-06
1.19019e-07
-1.31658e-06
1.15462e-07
1.29256e-06
1.35274e-06
8.15302e-08
-1.38734e-06
8.83469e-08
-1.36022e-06
1.33632e-06
-1.13087e-07
1.24962e-07
-1.26682e-06
1.25494e-06
-1.42808e-06
-1.6723e-09
1.13166e-07
-1.16981e-08
-1.41524e-06
1.30048e-06
-1.33859e-06
-1.29083e-06
1.08788e-08
-7.18989e-09
-1.24235e-06
-1.37126e-07
-1.2653e-06
3.4933e-09
1.43318e-06
-1.36461e-06
1.29578e-08
1.30205e-07
-1.30787e-06
-1.26147e-06
1.01301e-07
2.40096e-08
-1.2973e-06
-1.78668e-08
7.4656e-08
-1.44413e-06
7.83986e-08
-1.43521e-06
-1.40722e-06
1.32969e-07
1.34725e-06
9.43967e-08
-1.43691e-06
1.35146e-06
7.2095e-08
-1.44142e-06
9.12655e-08
1.32064e-06
9.87057e-08
7.91351e-08
1.32058e-06
1.08033e-07
-1.26466e-06
1.55281e-07
-1.34611e-07
1.54126e-07
-7.77347e-09
1.42625e-06
1.41152e-06
-5.65608e-09
1.41201e-07
3.7031e-07
-7.15188e-07
-7.1602e-07
3.70955e-07
1.44519e-06
3.71417e-07
-7.15077e-07
-1.10014e-06
3.75085e-07
-7.15846e-07
-7.29758e-07
-3.43586e-07
-3.44245e-07
-7.28233e-07
-7.15491e-07
3.72715e-07
3.71271e-07
-7.1626e-07
-7.15639e-07
3.72546e-07
1.44488e-06
-7.15914e-07
3.72566e-07
-1.09977e-06
-7.1874e-07
3.80097e-07
-7.29776e-07
-3.44401e-07
-3.43882e-07
-7.26116e-07
-7.18058e-07
3.74883e-07
3.71852e-07
1.44497e-06
-7.15287e-07
-7.15484e-07
1.44516e-06
3.7186e-07
1.44498e-06
-7.15271e-07
3.71822e-07
-1.10067e-06
1.43636e-06
-7.15622e-07
3.7993e-07
-7.29237e-07
-3.4285e-07
1.44394e-06
-3.43188e-07
-7.27234e-07
-7.16287e-07
3.74559e-07
3.79458e-07
-1.09565e-06
-7.12354e-07
-7.15656e-07
-1.09564e-06
3.84989e-07
1.42223e-06
-1.09497e-06
-7.11557e-07
3.84297e-07
-1.08825e-06
-7.03717e-07
3.86115e-07
-7.10256e-07
-3.28189e-07
-3.30371e-07
-1.09554e-06
-7.07581e-07
-7.08857e-07
3.84277e-07
-3.43595e-07
-7.29577e-07
1.44454e-06
-7.29623e-07
-3.43496e-07
-7.22166e-07
-3.3796e-07
-3.77292e-07
-7.20689e-07
-3.3893e-07
-7.16687e-07
1.10017e-06
-7.27075e-07
1.10056e-06
-7.18547e-07
-3.40149e-07
-3.44304e-07
-1.10012e-06
-3.39309e-07
7.29533e-07
-3.43914e-07
7.15607e-07
-3.43697e-07
3.73875e-07
-1.44525e-06
-1.4443e-06
3.71886e-07
-3.42885e-07
1.09988e-06
-7.27627e-07
-7.15749e-07
-7.19565e-07
-7.14041e-07
-7.1719e-07
-7.17376e-07
3.36252e-07
-7.17615e-07
-7.13606e-07
1.43806e-06
3.77463e-07
-7.15641e-07
3.78343e-07
1.43439e-06
-7.20673e-07
3.73643e-07
3.38474e-07
3.80273e-07
-1.43888e-06
3.822e-07
7.26489e-07
3.74754e-07
1.10082e-06
7.16759e-07
7.18625e-07
1.10036e-06
3.80103e-07
3.59497e-07
-7.32472e-07
1.47464e-06
1.47493e-06
3.60311e-07
-7.33575e-07
-7.33784e-07
3.60773e-07
1.47467e-06
-1.09975e-06
3.63384e-07
-7.31309e-07
1.46767e-06
-7.41449e-07
1.83366e-06
-7.32713e-07
1.83514e-06
-7.39277e-07
1.47319e-06
3.62079e-07
3.60235e-07
1.47473e-06
-7.33301e-07
1.47364e-06
-7.33683e-07
3.61706e-07
-7.33603e-07
1.47413e-06
3.61132e-07
-1.10094e-06
1.46636e-06
-7.34167e-07
3.68742e-07
-7.40933e-07
1.83293e-06
-7.31762e-07
1.83436e-06
-7.3858e-07
1.47057e-06
3.62181e-07
3.60788e-07
-7.34524e-07
1.4754e-06
1.47481e-06
-7.34589e-07
3.61443e-07
-7.34593e-07
1.4754e-06
3.60852e-07
-1.10094e-06
-7.35783e-07
1.46976e-06
3.6696e-07
-7.40606e-07
1.83717e-06
-7.35778e-07
1.83586e-06
-7.38912e-07
1.47515e-06
3.62357e-07
3.6762e-07
-1.0956e-06
-7.26337e-07
1.45431e-06
1.45209e-06
-1.09597e-06
-7.29707e-07
3.73594e-07
-7.31487e-07
-1.09681e-06
1.4566e-06
3.71692e-07
-1.08921e-06
-7.18834e-07
1.43423e-06
3.73809e-07
-7.2358e-07
1.81658e-06
-7.25385e-07
1.8237e-06
-1.09519e-06
-7.20465e-07
1.44784e-06
3.71745e-07
1.83343e-06
-7.40937e-07
-7.32183e-07
-7.3426e-07
-7.40427e-07
1.83546e-06
-7.34792e-07
1.82907e-06
-7.30895e-07
-3.65478e-07
-7.31921e-07
1.82675e-06
-7.29356e-07
1.47222e-06
1.10058e-06
-7.39371e-07
1.10004e-06
1.46948e-06
-7.34378e-07
1.83473e-06
1.83545e-06
-1.09921e-06
1.83365e-06
7.40427e-07
1.83537e-06
-1.47493e-06
1.83616e-06
3.62006e-07
7.34076e-07
7.33364e-07
3.6081e-07
1.8346e-06
1.10083e-06
-7.39254e-07
1.47389e-06
-7.3247e-07
1.46594e-06
1.46236e-06
-7.31589e-07
-1.8325e-06
-7.29692e-07
1.46539e-06
-7.35908e-07
3.6584e-07
1.47089e-06
3.66349e-07
-7.3352e-07
-7.33143e-07
3.62386e-07
-1.83354e-06
3.68068e-07
7.34808e-07
3.67252e-07
7.3862e-07
3.62157e-07
1.09989e-06
-1.47328e-06
-1.46679e-06
1.09994e-06
3.67951e-07
-1.72745e-06
1.34575e-06
6.85374e-07
-3.03678e-07
1.35859e-06
-1.75229e-06
7.01216e-07
-3.07516e-07
6.71392e-07
-1.69504e-06
1.32396e-06
-3.0031e-07
-3.11877e-07
-1.74877e-06
1.36402e-06
6.96621e-07
-2.03943e-06
-3.73482e-07
6.85458e-07
-3.76984e-07
-3.0385e-07
-2.01896e-06
1.3336e-06
-1.72455e-06
-1.7768e-06
1.37507e-06
7.15428e-07
-3.137e-07
1.3882e-06
7.25646e-07
-1.79548e-06
-3.18364e-07
7.07207e-07
1.36781e-06
-1.7623e-06
-3.12714e-07
-3.22399e-07
1.39366e-06
7.27434e-07
-1.7987e-06
-2.09763e-06
-3.91014e-07
7.1184e-07
-3.94882e-07
-3.14546e-07
-2.09231e-06
1.3789e-06
-1.77999e-06
-1.66464e-06
6.51968e-07
1.30638e-06
-2.93712e-07
1.33185e-06
6.78217e-07
-1.70911e-06
-3.00957e-07
6.42357e-07
1.29395e-06
-1.64678e-06
-2.89529e-07
-3.06267e-07
6.79153e-07
1.34705e-06
-1.71993e-06
-1.9802e-06
-3.50226e-07
6.65785e-07
-3.51944e-07
-2.96403e-07
-1.96894e-06
1.31244e-06
-1.67852e-06
-1.77254e-06
-3.23135e-07
1.38677e-06
7.08901e-07
1.39766e-06
-3.27891e-07
7.27729e-07
-1.7975e-06
7.05837e-07
-3.231e-07
1.38313e-06
-1.76587e-06
-3.33686e-07
1.40627e-06
7.26236e-07
-1.79882e-06
-2.10514e-06
-3.78816e-07
7.11424e-07
-3.81103e-07
-3.2638e-07
-2.10074e-06
1.38824e-06
-1.77601e-06
-3.80597e-07
-2.07073e-06
6.99036e-07
6.80346e-07
-2.01277e-06
-3.62614e-07
-2.07227e-06
-3.7465e-07
6.9815e-07
1.7745e-06
-2.1016e-06
-3.84064e-07
7.11163e-07
1.35879e-06
3.19745e-07
-2.05913e-06
3.14586e-07
1.38018e-06
7.14059e-07
-3.77498e-07
-3.86834e-07
-3.08825e-07
-3.19687e-07
-3.88245e-07
2.05281e-06
-3.75992e-07
-3.0901e-07
-1.3464e-06
-3.63983e-07
-3.02395e-07
-1.75579e-06
-6.90174e-07
-6.96583e-07
-1.72963e-06
-3.06944e-07
-3.73398e-07
3.06365e-07
-1.99205e-06
1.32308e-06
-2.06037e-06
1.36259e-06
1.38395e-06
-2.0959e-06
3.65914e-07
-2.04573e-06
1.35672e-06
6.84153e-07
-1.72261e-06
1.34483e-06
-1.75372e-06
6.96149e-07
-2.05285e-06
-1.70407e-06
3.68734e-07
-1.73531e-06
-7.05706e-07
-1.77844e-06
2.03852e-06
-1.7363e-06
3.1245e-07
-1.35073e-06
-1.37167e-06
3.14388e-07
-1.76298e-06
-2.30137e-06
1.41923e-06
5.78767e-07
3.03367e-07
1.45243e-06
-2.37548e-06
5.99078e-07
3.23972e-07
3.10198e-07
-2.37336e-06
1.47297e-06
5.90191e-07
5.51018e-07
-2.37546e-06
1.49555e-06
3.28889e-07
-1.74251e-06
-8.70719e-07
3.11858e-07
-8.86829e-07
5.9675e-07
-1.78655e-06
1.46685e-06
-2.36319e-06
-2.44754e-06
1.48847e-06
6.16309e-07
3.42765e-07
1.52657e-06
-2.49854e-06
5.97728e-07
3.74241e-07
3.71055e-07
1.54875e-06
-2.50097e-06
5.81164e-07
5.61896e-07
1.52777e-06
-2.45762e-06
3.67957e-07
-1.87114e-06
-9.37158e-07
3.60756e-07
-9.63464e-07
6.1889e-07
-1.89333e-06
1.51807e-06
-2.48574e-06
-2.44565e-06
3.25296e-07
1.52946e-06
5.90891e-07
1.57048e-06
3.57178e-07
-2.504e-06
5.76337e-07
3.21352e-07
1.58564e-06
-2.49498e-06
5.87991e-07
5.56312e-07
3.35605e-07
1.55928e-06
-2.45119e-06
-1.87956e-06
-8.87077e-07
3.20989e-07
-9.00709e-07
5.91626e-07
-1.89839e-06
1.56762e-06
-2.47775e-06
-2.41994e-06
5.36724e-07
1.54148e-06
3.41733e-07
1.54822e-06
5.37199e-07
-2.4514e-06
3.65983e-07
3.4723e-07
5.35803e-07
1.56904e-06
-2.45207e-06
5.22062e-07
1.57274e-06
-2.45015e-06
3.55343e-07
-1.89391e-06
-8.76889e-07
3.5085e-07
-8.83338e-07
5.37647e-07
-1.92134e-06
1.56651e-06
-2.45745e-06
-9.02219e-07
-1.80949e-06
3.36226e-07
3.11547e-07
-1.81468e-06
-8.70235e-07
-1.83225e-06
-8.78359e-07
3.35149e-07
2.41516e-06
-1.87179e-06
-8.97717e-07
3.54345e-07
1.49392e-06
-5.59129e-07
-1.83701e-06
-5.5772e-07
1.5126e-06
3.43433e-07
-8.77369e-07
-9.33978e-07
6.12954e-07
5.66917e-07
-9.10938e-07
1.88438e-06
-9.42551e-07
6.06915e-07
-1.50773e-06
-9.09747e-07
6.02803e-07
-2.43009e-06
-3.40897e-07
-3.45107e-07
-2.45482e-06
6.06188e-07
-9.15543e-07
-5.50592e-07
-1.84022e-06
1.52057e-06
-1.86705e-06
1.52541e-06
1.5434e-06
-1.90392e-06
8.82971e-07
-1.90966e-06
1.56249e-06
3.27496e-07
-2.41006e-06
1.53197e-06
-2.41692e-06
3.35877e-07
-1.86297e-06
-2.42467e-06
8.79795e-07
-2.45385e-06
-3.55167e-07
-2.45969e-06
1.90221e-06
-2.48759e-06
-5.59285e-07
-1.5444e-06
-1.54246e-06
-5.57726e-07
-2.45535e-06
5.99542e-07
-2.66866e-07
-1.27783e-06
-2.80096e-07
6.15313e-07
-1.28082e-06
-1.2967e-06
6.16508e-07
-2.7716e-07
9.77405e-07
6.38837e-07
-2.93204e-07
-1.32304e-06
1.56498e-06
3.29203e-07
-1.29464e-06
3.28941e-07
1.59688e-06
-2.90276e-07
6.29127e-07
6.34077e-07
-2.98245e-07
-1.292e-06
-3.16758e-07
6.49288e-07
-1.31242e-06
-1.30999e-06
-3.06569e-07
6.43362e-07
9.90267e-07
-3.21095e-07
6.66632e-07
-1.3358e-06
1.61423e-06
3.32561e-07
-1.31271e-06
3.27645e-07
1.63887e-06
-3.16043e-07
6.56529e-07
6.26542e-07
-1.3038e-06
-2.82767e-07
-2.96268e-07
-1.31092e-06
6.37347e-07
-1.31239e-06
6.38105e-07
-2.90911e-07
9.81508e-07
-1.33652e-06
6.58598e-07
-3.03586e-07
1.5986e-06
3.42742e-07
-1.3148e-06
3.38927e-07
1.62188e-06
-2.97625e-07
6.48411e-07
6.6503e-07
9.96881e-07
-3.11973e-07
-1.34994e-06
-3.21464e-07
1.00231e-06
6.76129e-07
-1.35698e-06
-1.35824e-06
9.98888e-07
6.77504e-07
-3.18155e-07
1.01333e-06
6.92678e-07
-3.28815e-07
-1.37719e-06
1.66965e-06
3.53604e-07
-1.35822e-06
3.49888e-07
9.98293e-07
1.69029e-06
-3.23357e-07
6.81941e-07
3.2823e-07
1.58665e-06
-1.29956e-06
-1.30736e-06
1.58798e-06
3.35886e-07
1.62694e-06
3.43271e-07
-1.33138e-06
-6.53221e-07
1.64555e-06
3.44083e-07
-1.33641e-06
-3.02528e-07
-9.80309e-07
1.61107e-06
-9.80756e-07
-3.07465e-07
-1.32607e-06
3.38723e-07
3.28042e-07
9.84068e-07
3.40384e-07
-1.60242e-06
3.31913e-07
2.9182e-07
3.33817e-07
6.4138e-07
1.29773e-06
1.30941e-06
6.30176e-07
3.3716e-07
-9.79586e-07
1.60906e-06
-2.93586e-07
1.64573e-06
-3.05577e-07
-3.16552e-07
1.66295e-06
-3.48474e-07
1.65792e-06
-3.10556e-07
-1.33053e-06
6.4767e-07
-2.9673e-07
6.53925e-07
-1.33567e-06
1.63486e-06
6.3908e-07
-3.45147e-07
6.66544e-07
1.33594e-06
6.67392e-07
-1.6282e-06
6.49195e-07
-9.80834e-07
3.05117e-07
3.08882e-07
-9.85924e-07
6.58897e-07
-3.44509e-07
-1.93456e-06
1.50159e-06
7.77482e-07
7.64764e-07
-3.47974e-07
-1.94477e-06
1.52798e-06
-1.88447e-06
-3.51512e-07
1.46579e-06
7.70192e-07
1.46937e-06
-3.38384e-07
-1.91774e-06
7.86754e-07
1.1418e-06
4.38977e-07
-1.92528e-06
4.09567e-07
1.49699e-06
1.12673e-06
7.81614e-07
-3.48175e-07
-3.59244e-07
7.69938e-07
-1.95044e-06
1.53975e-06
7.83087e-07
-1.96094e-06
1.55445e-06
-3.76596e-07
-1.88309e-06
7.57939e-07
1.47448e-06
-3.49324e-07
1.47495e-06
7.75897e-07
-1.91491e-06
-3.35946e-07
1.13763e-06
4.32745e-07
-1.92962e-06
4.0597e-07
1.51474e-06
1.13213e-06
7.75569e-07
-3.44994e-07
-3.38632e-07
-1.84318e-06
1.41278e-06
7.69031e-07
7.56329e-07
-1.84008e-06
1.41804e-06
-3.34294e-07
-1.81945e-06
1.37813e-06
7.63763e-07
-3.22442e-07
1.40355e-06
-1.86266e-06
7.79026e-07
-3.19924e-07
1.07576e-06
4.42711e-07
-1.8571e-06
4.30899e-07
1.40119e-06
1.06563e-06
7.80638e-07
-3.22925e-07
-3.23983e-07
1.44865e-06
-1.92082e-06
7.96151e-07
7.91031e-07
1.44722e-06
-1.92195e-06
-3.16295e-07
-1.89749e-06
1.42035e-06
7.97814e-07
-3.2067e-07
1.43609e-06
-1.92841e-06
8.07952e-07
-3.15636e-07
1.11546e-06
4.8154e-07
-1.92099e-06
4.72051e-07
1.43444e-06
1.10722e-06
8.10407e-07
-3.18215e-07
4.31518e-07
1.14751e-06
-1.92701e-06
-1.87469e-06
1.09586e-06
4.27311e-07
1.11405e-06
4.64025e-07
-1.91646e-06
3.31059e-07
1.12342e-06
4.57301e-07
-1.91178e-06
7.76237e-07
-1.47221e-06
1.12749e-06
-1.44662e-06
7.76769e-07
-1.91792e-06
4.44192e-07
4.0914e-07
1.50831e-06
1.45559e-06
4.43723e-07
-1.10909e-06
4.12716e-07
1.45431e-06
-7.61899e-07
4.19958e-07
1.4378e-06
-3.43852e-07
1.88048e-06
1.88731e-06
-3.4373e-07
1.46231e-06
4.34486e-07
-1.43657e-06
1.08388e-06
7.80004e-07
1.11406e-06
7.98616e-07
7.8925e-07
1.11527e-06
-4.65315e-07
1.08838e-06
7.97278e-07
-1.88899e-06
-3.32534e-07
7.84954e-07
-3.30741e-07
-1.89295e-06
1.0951e-06
-3.39343e-07
-4.51161e-07
-3.2311e-07
1.88412e-06
-3.25128e-07
-1.09378e-06
-3.33584e-07
-1.42136e-06
-7.7508e-07
-7.77419e-07
-1.43437e-06
-3.27668e-07
5.91298e-07
9.44981e-07
-1.17044e-07
-1.25833e-07
6.2078e-07
9.78022e-07
-1.43902e-06
6.05043e-07
9.48572e-07
-1.14593e-07
9.77505e-07
6.40418e-07
-1.22376e-07
1.57e-06
4.88152e-07
4.81579e-07
9.6259e-07
1.5846e-06
-1.18942e-07
6.27164e-07
6.54813e-07
-1.35649e-07
1.01029e-06
-1.35248e-07
6.717e-07
1.04919e-06
-1.5423e-06
-1.34684e-07
6.63246e-07
1.01373e-06
1.01907e-06
-1.32524e-07
6.72727e-07
1.69106e-06
5.31372e-07
5.23469e-07
1.03235e-06
1.68871e-06
-1.3827e-07
6.69883e-07
6.22159e-07
-1.45922e-06
9.5489e-07
-1.17828e-07
-1.25873e-07
-1.51923e-06
6.52353e-07
9.92749e-07
-1.50025e-06
6.41938e-07
9.79803e-07
-1.2149e-07
9.9558e-07
-1.53364e-06
6.61647e-07
-1.23589e-07
1.6082e-06
5.18587e-07
-1.50462e-06
5.10921e-07
9.71408e-07
1.63748e-06
-1.23312e-07
6.48156e-07
6.66266e-07
1.00056e-06
-1.2535e-07
-1.26298e-07
1.01609e-06
6.79243e-07
-1.55817e-06
1.00841e-06
6.73699e-07
-1.23943e-07
1.01522e-06
6.78894e-07
-1.21374e-07
1.68369e-06
5.49078e-07
5.44031e-07
1.01336e-06
1.69119e-06
-1.26895e-07
6.77045e-07
5.10049e-07
1.6313e-06
-1.48975e-06
1.59342e-06
5.01379e-07
1.64389e-06
5.21944e-07
-6.60718e-07
1.68493e-06
5.38278e-07
-1.30009e-07
-1.00291e-06
1.64297e-06
-9.92599e-07
-1.3166e-07
5.19627e-07
5.02226e-07
9.93429e-07
1.01837e-06
5.34037e-07
-1.64923e-06
5.14823e-07
9.9973e-07
1.25061e-07
4.97987e-07
9.70376e-07
6.58877e-07
1.48632e-06
1.53898e-06
6.35054e-07
9.76327e-07
5.24796e-07
-9.78929e-07
1.60103e-06
-1.20713e-07
1.64655e-06
-1.2405e-07
-1.31017e-07
1.68538e-06
-5.34758e-07
1.66882e-06
-1.25653e-07
-1.50439e-06
6.45232e-07
-1.19776e-07
6.61795e-07
-1.54413e-06
1.65461e-06
6.398e-07
-5.29734e-07
6.64918e-07
1.5472e-06
6.72218e-07
-1.66349e-06
6.59087e-07
-9.95342e-07
1.30519e-07
1.2953e-07
-1.00818e-06
6.68547e-07
1.97098e-06
-1.44146e-06
-7.80412e-07
2.50889e-07
-7.72407e-07
1.95858e-06
-1.41585e-06
2.29681e-07
2.29083e-07
1.95938e-06
-1.41673e-06
-7.71728e-07
-1.42767e-06
1.96076e-06
-7.67018e-07
2.3393e-07
5.36152e-07
1.19512e-06
2.39704e-07
1.19187e-06
-1.42812e-06
5.37792e-07
-7.70342e-07
1.95874e-06
1.94915e-06
-7.67031e-07
-1.38714e-06
2.05021e-07
-7.69053e-07
-1.35328e-06
1.6139e-07
1.65566e-07
-7.76249e-07
-1.33976e-06
-1.34932e-06
-7.49052e-07
1.83469e-07
5.80563e-07
1.17904e-06
1.89549e-07
1.17623e-06
-1.36472e-06
5.87824e-07
-7.58109e-07
1.9468e-06
2.00819e-07
-1.38397e-06
-7.63652e-07
-7.74902e-07
1.7321e-07
-1.34308e-06
1.7624e-07
-1.34701e-06
-7.63792e-07
-1.35562e-06
1.79072e-07
-7.41186e-07
5.75349e-07
1.18148e-06
1.89979e-07
1.16709e-06
-1.36664e-06
5.81956e-07
-7.56102e-07
1.94734e-06
-1.41467e-06
-7.5137e-07
2.18703e-07
-7.39034e-07
-1.37842e-06
1.95504e-07
1.88541e-07
-1.37679e-06
-7.32571e-07
-1.39999e-06
-7.30854e-07
2.02431e-07
5.38516e-07
1.19979e-06
2.09027e-07
1.19292e-06
-1.39344e-06
5.39527e-07
-7.39723e-07
1.18809e-06
5.54255e-07
2.16236e-07
2.17943e-07
5.52236e-07
1.1892e-06
5.4016e-07
1.19776e-06
2.22835e-07
-1.94245e-06
5.5444e-07
1.18214e-06
2.05869e-07
-7.62169e-07
1.39535e-06
5.54906e-07
1.41451e-06
-7.61144e-07
2.1405e-07
1.19353e-06
1.18189e-06
-1.39466e-06
-1.37084e-06
1.17622e-06
-5.79564e-07
1.17055e-06
-1.36724e-06
7.65769e-07
1.18576e-06
-1.39929e-06
1.93781e-06
-2.0102e-07
-1.91133e-07
1.94889e-06
-1.38414e-06
1.17819e-06
1.39779e-06
5.53885e-07
-7.62479e-07
5.40396e-07
-7.57305e-07
-7.5223e-07
5.55942e-07
-1.18799e-06
5.56077e-07
-7.44884e-07
2.09133e-07
1.94405e-06
-7.55393e-07
1.94306e-06
2.02608e-07
5.53459e-07
1.94046e-06
-1.18131e-06
-1.79611e-07
-5.83247e-07
1.37518e-06
7.55254e-07
7.47332e-07
1.3502e-06
2.51097e-06
-1.77235e-06
-8.47336e-07
1.08711e-07
8.67106e-08
2.49768e-06
-1.75245e-06
-8.31938e-07
-8.40058e-07
2.50073e-06
-1.75607e-06
9.54039e-08
-1.75858e-06
2.49914e-06
-8.32504e-07
9.19329e-08
7.46104e-07
2.60196e-06
-8.37094e-07
2.59811e-06
-1.76529e-06
7.47612e-07
9.57636e-08
2.50566e-06
2.48957e-06
6.47232e-08
-1.73345e-06
-8.20846e-07
2.89608e-08
-1.72369e-06
-8.00253e-07
-8.22503e-07
5.01006e-08
-1.73159e-06
-1.69772e-06
3.73865e-08
-7.90866e-07
7.69353e-07
2.52349e-06
-8.03274e-07
2.52524e-06
-1.72692e-06
7.75016e-07
5.07601e-08
2.49106e-06
-8.44738e-07
-1.73298e-06
8.66639e-08
6.50052e-08
-8.44244e-07
-1.72173e-06
-8.61127e-07
-1.70918e-06
7.17775e-08
-1.69436e-06
-8.27319e-07
6.40556e-08
7.80625e-07
2.54884e-06
-8.38406e-07
2.56767e-06
-1.72204e-06
7.79196e-07
7.52847e-08
2.47915e-06
-1.74336e-06
-8.11646e-07
7.58505e-08
5.29332e-08
-1.71305e-06
-7.91963e-07
-8.06258e-07
-1.70871e-06
6.35571e-08
-1.72372e-06
-7.90919e-07
6.44813e-08
7.43667e-07
2.5304e-06
-7.94926e-07
2.5227e-06
-1.72611e-06
7.41009e-07
6.56723e-08
2.56184e-06
7.56864e-07
-8.21021e-07
-8.32464e-07
7.57596e-07
2.5756e-06
7.46917e-07
2.57186e-06
-8.19642e-07
-2.47791e-06
7.54484e-07
2.52219e-06
-7.98772e-07
7.33658e-08
1.7324e-06
7.56074e-07
1.74656e-06
6.91203e-08
-8.14638e-07
2.5626e-06
2.56721e-06
-1.74562e-06
-1.71566e-06
2.50753e-06
-7.76346e-07
2.55528e-06
-1.72883e-06
-7.65426e-08
2.57718e-06
-1.74304e-06
2.49044e-06
8.32846e-07
8.25534e-07
2.49322e-06
-1.73692e-06
2.54241e-06
1.73221e-06
7.59974e-07
8.34055e-08
7.4747e-07
8.10256e-08
5.66671e-08
7.52475e-07
-2.53323e-06
7.55544e-07
6.89789e-08
-8.24356e-07
2.47778e-06
7.87808e-08
2.48571e-06
-8.16267e-07
7.60816e-07
2.49241e-06
-2.53147e-06
8.06152e-07
-7.76553e-07
1.71921e-06
-6.52042e-08
-5.14476e-08
1.70065e-06
-8.16366e-07
2.42393e-06
7.1797e-08
-1.67935e-06
6.45117e-08
-8.11666e-07
2.42355e-06
-1.67639e-06
2.41216e-06
-8.14777e-07
1.02349e-07
-1.69973e-06
-1.66301e-06
-7.95164e-07
2.37562e-06
8.25595e-08
-2.48485e-06
-7.37312e-07
2.4058e-06
-7.3361e-07
-1.68673e-06
-2.48904e-06
8.87223e-08
-8.10485e-07
-8.03577e-07
5.37449e-08
2.41269e-06
-1.66285e-06
4.53829e-08
2.41135e-06
-1.65754e-06
-7.99183e-07
2.41159e-06
8.51599e-08
-1.69186e-06
-8.04881e-07
-1.65549e-06
5.80857e-08
2.36871e-06
-7.71302e-07
-2.45562e-06
-7.3844e-07
2.39049e-06
-7.38596e-07
-1.67164e-06
-2.46112e-06
6.71927e-08
-7.8812e-07
-8.20981e-07
2.42453e-06
1.24549e-07
-1.7281e-06
1.17848e-07
2.41703e-06
-1.71918e-06
-8.15711e-07
2.43274e-06
1.40867e-07
-1.74553e-06
-8.28072e-07
-1.73144e-06
2.42146e-06
1.26813e-07
-8.16833e-07
-2.54845e-06
-6.97032e-07
2.42451e-06
-6.95834e-07
-1.73477e-06
-2.55498e-06
1.26507e-07
-8.18071e-07
-7.80406e-07
-1.67819e-06
2.36804e-06
9.05537e-08
7.62566e-08
-1.67308e-06
2.36956e-06
-7.72737e-07
2.40483e-06
-1.71571e-06
1.12318e-07
-8.01444e-07
-1.69892e-06
2.38091e-06
9.48344e-08
-7.76818e-07
-2.46054e-06
-6.93782e-07
2.37391e-06
-6.95539e-07
-1.68874e-06
-2.49112e-06
9.8417e-08
-7.81828e-07
-7.41104e-07
-2.47325e-06
2.40269e-06
2.40617e-06
-2.51002e-06
-7.1092e-07
-2.45794e-06
-7.08573e-07
2.37135e-06
7.78246e-07
-2.44194e-06
-7.07444e-07
2.37114e-06
8.01296e-08
1.65749e-06
-2.47873e-06
1.67581e-06
6.9106e-08
2.36663e-06
-7.13024e-07
-7.36701e-07
-1.6828e-06
-1.6726e-06
-7.11253e-07
2.50559e-06
-7.11335e-07
-1.70909e-06
-9.41291e-08
-7.10457e-07
-1.70543e-06
-8.00261e-07
-2.41517e-06
-2.40567e-06
-8.0986e-07
-1.69943e-06
-7.09944e-07
1.70494e-06
-2.52623e-06
1.1037e-07
-2.48359e-06
9.68256e-08
8.27639e-08
-2.46328e-06
6.97635e-07
-2.5263e-06
1.12955e-07
2.40112e-06
-8.05567e-07
1.09384e-07
-7.95495e-07
2.40147e-06
-2.5094e-06
-8.12151e-07
6.97761e-07
-8.026e-07
-2.39434e-06
-7.80201e-07
2.50742e-06
-8.01722e-07
1.71306e-06
-1.00703e-07
-9.85848e-08
1.69677e-06
-7.96147e-07
-2.2674e-06
-2.16838e-07
1.67611e-06
8.08127e-07
-2.45951e-07
-2.29981e-06
1.71987e-06
8.25893e-07
8.03387e-07
-2.28992e-06
-2.26783e-07
1.71332e-06
1.69633e-06
-2.30937e-06
-2.17069e-07
8.30114e-07
-5.7438e-07
-2.50227e-06
8.09252e-07
-2.50443e-06
1.6841e-06
-5.88203e-07
-2.17743e-07
-2.28924e-06
-2.3418e-06
-2.62711e-07
1.76996e-06
8.34551e-07
-2.71262e-07
1.84072e-06
8.41893e-07
8.37254e-07
-2.6739e-07
1.84283e-06
1.76597e-06
-2.50068e-07
8.5282e-07
-5.66222e-07
-2.60321e-06
8.27637e-07
-2.64421e-06
1.80673e-06
-5.83529e-07
-2.53716e-07
-2.34234e-06
8.05896e-07
-2.32229e-07
1.76867e-06
-2.56733e-07
8.38122e-07
1.84217e-06
8.35544e-07
-2.43358e-07
1.83174e-06
1.76524e-06
8.2646e-07
-2.16083e-07
-5.77156e-07
-2.58453e-06
8.19344e-07
-2.64727e-06
1.81338e-06
-5.94082e-07
-2.25204e-07
-2.35043e-06
1.71867e-06
-2.14036e-07
8.45801e-07
-2.27616e-07
1.74108e-06
8.56097e-07
8.41093e-07
1.73947e-06
-2.12522e-07
1.7313e-06
-2.07721e-07
8.57324e-07
-6.24108e-07
-2.57266e-06
8.46336e-07
-2.58555e-06
1.73382e-06
-6.29456e-07
-2.11899e-07
-2.55375e-06
-5.6643e-07
8.20372e-07
8.15611e-07
-5.68846e-07
-2.53668e-06
-6.0211e-07
-2.5405e-06
8.33236e-07
2.33308e-06
-6.00049e-07
-2.57667e-06
8.43637e-07
-2.44359e-07
-1.72776e-06
-5.81634e-07
-1.71799e-06
-2.3419e-07
8.39509e-07
-2.55429e-06
-2.56653e-06
1.73739e-06
1.75589e-06
-2.60601e-06
5.70824e-07
-2.65331e-06
1.8151e-06
2.5081e-07
-2.56266e-06
1.74301e-06
-2.32738e-06
-8.20784e-07
-8.25199e-07
-2.33897e-06
1.76899e-06
-2.59334e-06
-1.7274e-06
-5.82158e-07
-2.27121e-07
-6.02977e-07
-2.18861e-07
-2.32748e-07
-6.02841e-07
2.56228e-06
-6.0259e-07
-2.20219e-07
8.24592e-07
-2.32941e-06
-2.22584e-07
-2.33268e-06
8.316e-07
-5.98732e-07
-2.33893e-06
2.59522e-06
-8.37707e-07
5.87502e-07
-1.7638e-06
2.44216e-07
2.32693e-07
-1.76162e-06
-3.79921e-07
6.142e-07
5.95553e-07
-3.66542e-07
-1.33236e-06
-3.67331e-07
6.04702e-07
1.11853e-06
-3.77988e-07
6.23486e-07
7.20723e-07
2.32957e-07
2.29228e-07
7.3241e-07
6.19073e-07
-3.70719e-07
-3.50348e-07
5.74417e-07
5.56523e-07
-3.34628e-07
-1.30782e-06
5.71651e-07
-3.41833e-07
1.10346e-06
6.00034e-07
-3.56445e-07
7.35704e-07
2.26393e-07
2.22049e-07
7.39672e-07
5.90178e-07
-3.46101e-07
-3.60092e-07
-1.33214e-06
6.02006e-07
5.85381e-07
-1.32219e-06
-3.44996e-07
-1.32981e-06
5.9363e-07
-3.43534e-07
1.09853e-06
-1.35585e-06
6.13703e-07
-3.56388e-07
7.35085e-07
2.48656e-07
-1.34383e-06
2.41756e-07
7.39601e-07
6.07586e-07
-3.48458e-07
-3.82293e-07
1.1324e-06
6.36662e-07
6.2841e-07
1.12806e-06
-3.73338e-07
-1.37949e-06
1.119e-06
6.31713e-07
-3.71231e-07
1.1425e-06
6.50941e-07
-3.87165e-07
7.49442e-07
2.56502e-07
2.55936e-07
1.12192e-06
7.52082e-07
6.46916e-07
-3.71468e-07
2.29457e-07
7.27077e-07
-1.3367e-06
7.28724e-07
2.40644e-07
7.38597e-07
2.46001e-07
3.6822e-07
7.4556e-07
2.42938e-07
6.03299e-07
-1.10638e-06
7.32544e-07
-1.10412e-06
6.06661e-07
2.41139e-07
2.25151e-07
1.10216e-06
2.4343e-07
-7.36066e-07
2.32367e-07
-5.88279e-07
2.34662e-07
-3.58661e-07
1.31636e-06
1.33368e-06
-3.58391e-07
2.39223e-07
-1.11099e-06
7.36027e-07
6.15605e-07
7.45383e-07
6.33021e-07
6.22517e-07
7.48478e-07
-2.54645e-07
7.46772e-07
6.26878e-07
-1.36122e-06
-3.70918e-07
6.21149e-07
-3.74697e-07
-1.36974e-06
7.44173e-07
-3.61451e-07
-2.50177e-07
-3.58896e-07
1.35503e-06
-3.63122e-07
-7.41041e-07
-3.4878e-07
-1.10224e-06
-6.03043e-07
-6.08245e-07
-1.10486e-06
-3.58074e-07
1.07932e-06
1.09154e-07
-1.18848e-06
7.17248e-08
1.16908e-06
-1.2408e-06
-9.88983e-07
1.03375e-06
-4.47603e-08
-1.82397e-08
6.39911e-07
-1.53037e-08
-6.06365e-07
9.50204e-07
1.16598e-06
-1.03686e-06
1.02193e-06
1.03307e-06
1.14669e-07
1.06602e-06
1.25407e-06
-1.49677e-08
-1.23909e-06
-5.13561e-08
-1.31031e-06
1.36168e-06
-1.13463e-06
-1.05572e-07
1.24021e-06
-1.02798e-08
-5.87286e-09
-6.58322e-07
6.74468e-07
1.15455e-06
1.20097e-06
-1.10144e-06
1.1032e-06
1.18099e-06
9.70894e-09
1.14955e-06
1.00663e-06
-9.08397e-07
-9.82302e-08
-1.09508e-07
-1.11388e-06
1.22341e-06
-1.07434e-06
-9.24561e-09
1.08359e-06
4.78086e-08
-7.11744e-07
-7.71223e-08
7.41073e-07
1.12067e-06
9.24066e-07
-1.03808e-06
1.01117e-06
1.10344e-06
-1.31556e-07
1.04026e-06
6.06149e-07
3.1065e-08
-4.60201e-08
-5.91196e-07
-5.67855e-08
2.31777e-08
-5.8888e-07
6.2248e-07
-5.85863e-07
4.58246e-08
-5.96015e-08
5.99635e-07
2.68497e-08
-3.95892e-08
-5.51167e-07
5.63904e-07
6.34134e-07
5.41503e-07
-5.69494e-07
5.60304e-07
1.70411e-08
6.22764e-07
-5.44146e-08
5.97205e-07
1.13987e-06
1.09422e-06
-1.06501e-06
-1.04727e-06
1.04197e-06
1.03907e-06
6.98169e-07
5.54572e-07
-6.12829e-07
-7.32832e-07
7.63674e-07
6.15051e-07
-6.45897e-07
-1.67771e-08
5.86167e-09
1.1508e-06
1.9745e-09
4.20914e-09
-7.31179e-07
7.04352e-07
1.07926e-06
-7.47507e-09
7.65275e-07
-1.17413e-06
1.06855e-06
1.06618e-07
9.35367e-07
1.18694e-06
1.04312e-06
1.18918e-06
1.14974e-06
1.16479e-06
-3.57997e-09
1.04469e-06
-2.03766e-09
6.64725e-07
-7.90881e-08
-4.71936e-08
6.85418e-07
-6.04015e-07
7.0518e-07
-5.53364e-08
-6.90545e-07
6.9613e-07
-9.1639e-09
6.78531e-07
-6.48378e-07
7.40491e-07
1.07166e-06
-7.15442e-07
7.08875e-07
7.55162e-07
6.9553e-07
-1.18431e-06
1.13899e-06
7.53806e-10
3.28257e-08
2.58014e-08
1.33002e-08
7.94258e-07
2.45457e-06
-1.66271e-06
-6.50997e-07
-1.3105e-07
2.44194e-06
-1.65519e-06
-6.55697e-07
-6.63577e-07
2.44425e-06
-1.65612e-06
-1.65787e-06
2.44187e-06
-6.57186e-07
7.91794e-07
2.31818e-06
-6.55398e-07
2.31963e-06
-1.65888e-06
7.86814e-07
2.44287e-06
2.42647e-06
-1.26013e-07
-1.64106e-06
-6.59395e-07
-1.28247e-07
2.40478e-06
-1.61887e-06
-6.57657e-07
-6.7042e-07
-1.14772e-07
2.40646e-06
-1.62126e-06
-1.62696e-06
-1.2086e-07
2.40347e-06
-6.55654e-07
7.91503e-07
2.29431e-06
-6.59341e-07
2.28607e-06
-1.62281e-06
7.88644e-07
-1.21295e-07
2.40429e-06
2.4263e-06
-6.84615e-07
-1.63934e-06
-9.88377e-08
-6.86588e-07
2.41001e-06
-1.62458e-06
-7.10533e-07
2.42128e-06
-1.63895e-06
-1.61798e-06
-6.92081e-07
2.39263e-06
7.95982e-07
2.31941e-06
-6.8909e-07
2.3219e-06
-1.62476e-06
7.90151e-07
2.40152e-06
2.42253e-06
-1.65035e-06
-6.59867e-07
-1.10625e-07
-1.63517e-06
2.40272e-06
-6.56922e-07
-6.70729e-07
-1.63245e-06
2.39373e-06
-1.64016e-06
2.39317e-06
-6.58174e-07
7.74598e-07
2.30837e-06
-6.6043e-07
2.30262e-06
-1.63865e-06
7.66622e-07
2.39851e-06
2.31034e-06
7.89664e-07
-6.58065e-07
-6.69687e-07
7.90418e-07
2.32352e-06
7.83449e-07
2.31753e-06
-6.59108e-07
-2.425e-06
7.82517e-07
2.30251e-06
-6.60027e-07
-1.2214e-07
1.64516e-06
7.87319e-07
1.65104e-06
-1.19599e-07
-6.6024e-07
2.31489e-06
2.30874e-06
-1.64508e-06
-1.63251e-06
2.29417e-06
-7.92326e-07
2.30119e-06
-1.62363e-06
1.14266e-07
2.32046e-06
-1.64431e-06
2.4255e-06
6.70558e-07
6.71691e-07
2.42747e-06
-1.64264e-06
2.30683e-06
1.64497e-06
7.88921e-07
7.8013e-07
-1.11039e-07
7.78373e-07
-2.31494e-06
7.79318e-07
-6.71778e-07
2.42613e-06
2.42324e-06
-6.73552e-07
7.84746e-07
2.42477e-06
-2.31077e-06
2.39801e-06
6.70207e-07
2.40233e-06
-7.88012e-07
2.40261e-06
1.63084e-06
1.0483e-07
1.04821e-07
1.62365e-06
2.39868e-06
5.26675e-07
1.65125e-06
2.09449e-07
5.52609e-07
1.64795e-06
-2.3592e-06
5.15217e-07
1.61176e-06
1.62532e-06
5.51224e-07
2.18119e-06
7.47003e-07
7.47628e-07
1.64302e-06
2.14712e-06
5.35541e-07
5.73557e-07
1.88958e-07
1.64394e-06
1.71135e-07
1.64299e-06
5.90647e-07
-2.37493e-06
1.85433e-07
1.61806e-06
5.7144e-07
1.63053e-06
1.82091e-07
5.90854e-07
2.22169e-06
7.56163e-07
7.54342e-07
1.63848e-06
2.2025e-06
1.84188e-07
5.8191e-07
5.17369e-07
-2.31806e-06
1.57391e-06
2.0408e-07
-2.33918e-06
1.58325e-06
5.51846e-07
-2.27991e-06
1.53496e-06
5.2811e-07
1.5508e-06
-2.31689e-06
5.49022e-07
2.1006e-06
7.42908e-07
-2.32614e-06
7.39002e-07
1.56568e-06
2.07597e-06
5.35058e-07
5.69875e-07
1.61133e-06
1.92154e-07
1.6213e-06
5.89261e-07
-2.35986e-06
1.57693e-06
5.68889e-07
1.59834e-06
5.87107e-07
2.19152e-06
7.76867e-07
7.74772e-07
1.6089e-06
2.16331e-06
5.78217e-07
7.53584e-07
2.20164e-06
-2.36343e-06
2.13306e-06
7.45583e-07
2.18549e-06
7.63744e-07
-5.74431e-07
2.20875e-06
7.68015e-07
2.02388e-07
-1.62586e-06
2.17706e-06
-1.6255e-06
1.98384e-07
7.58369e-07
7.53717e-07
1.63688e-06
1.62676e-06
7.64083e-07
-2.16748e-06
7.47721e-07
1.6052e-06
-2.08258e-07
7.41359e-07
1.59996e-06
5.62037e-07
2.36874e-06
2.37298e-06
5.4759e-07
1.61289e-06
7.53088e-07
-1.59181e-06
2.11027e-06
2.15486e-06
1.99567e-07
2.18975e-06
-7.62404e-07
2.12048e-06
-2.36003e-06
5.45642e-07
5.53193e-07
-2.36166e-06
2.1449e-06
5.33563e-07
-7.54406e-07
5.5799e-07
2.37354e-06
5.80291e-07
-2.15304e-06
5.61581e-07
-1.59081e-06
-2.01771e-07
-2.00315e-07
-1.60172e-06
5.71506e-07
1.77606e-06
-7.59547e-07
-6.95505e-07
-3.21009e-07
-7.57274e-07
1.76502e-06
-6.95751e-07
-3.11993e-07
-3.18314e-07
1.77396e-06
-7.59413e-07
-6.96238e-07
-7.0047e-07
1.76578e-06
-7.52481e-07
-3.12832e-07
1.07654e-06
1.01656e-06