/*--------------------------------*- C++ -*----------------------------------*\
| =========                 |                                                 |
| \\      /  F ield         | OpenFOAM: The Open Source CFD Toolbox           |
|  \\    /   O peration     | Version:  2506                                  |
|   \\  /    A nd           | Website:  www.openfoam.com                      |
|    \\/     M anipulation  |                                                 |
\*---------------------------------------------------------------------------*/
FoamFile
{
    version     2.0;
    format      ascii;
    arch        "LSB;label=32;scalar=64";
    class       surfaceScalarField;
    location    "1200";
    object      phi;
}
// * * * * * * * * * * * * * * * * * * * * * * * * * * * * * * * * * * * * * //

dimensions      [0 3 -1 0 0 0 0];

oriented        oriented;

internalField   nonuniform List<scalar> 
82592
(
-3.75829e-06
-8.2763e-05
4.78329e-05
3.86934e-05
1.91984e-05
-9.72247e-06
-3.42396e-05
2.47629e-05
-6.47874e-05
1.61694e-05
3.34947e-05
1.51232e-05
4.68156e-05
1.74505e-06
-4.04699e-05
-8.08915e-06
3.55809e-05
2.03238e-05
-5.96629e-05
2.63108e-05
2.84681e-05
5.60356e-05
1.11035e-05
1.75601e-05
-3.63655e-05
3.30635e-05
-4.46572e-05
4.7959e-05
1.83029e-05
-1.47032e-05
-4.02669e-05
3.66674e-05
-3.7742e-05
1.88667e-05
-8.76991e-06
2.76466e-05
3.88252e-05
6.95431e-06
-2.43738e-05
-2.1403e-05
1.11326e-05
-7.29658e-06
-4.02004e-05
-5.39882e-06
3.48346e-05
2.54166e-05
6.11285e-06
-1.77239e-05
2.65478e-05
-4.42294e-05
1.8278e-05
-5.93901e-07
1.93311e-06
-5.44576e-05
2.40909e-05
2.84355e-05
-4.14931e-05
1.80042e-05
1.98851e-05
3.60374e-06
1.20059e-05
-7.46399e-06
3.55695e-06
-8.09492e-06
5.69339e-05
1.5075e-05
-4.54612e-05
3.22119e-05
2.66551e-05
2.47031e-05
2.3776e-06
1.54225e-05
1.91445e-05
4.5604e-05
-2.42636e-05
-4.04849e-05
-1.63091e-05
2.77671e-05
8.7837e-06
-2.02393e-05
-3.27277e-05
1.73575e-05
3.02602e-05
-1.4889e-05
4.04251e-05
6.08656e-06
-3.40193e-05
-1.24939e-05
5.5732e-05
4.78012e-07
-3.7066e-05
4.47576e-06
3.49475e-05
5.64088e-05
-1.55054e-05
2.81573e-05
1.31554e-05
1.30228e-05
-3.59005e-05
-6.0179e-05
6.88963e-05
7.45345e-06
5.89027e-05
-1.64415e-05
-4.0715e-05
-1.58188e-05
2.90689e-05
7.92374e-06
-2.11728e-05
-3.25055e-06
-2.84352e-05
4.48437e-05
-4.58687e-05
-1.25527e-05
-3.17005e-05
4.82238e-07
5.75636e-06
4.03309e-05
2.22068e-05
1.38175e-05
-3.4795e-05
2.62066e-05
2.74558e-05
1.64898e-06
2.93287e-05
3.79185e-05
8.11276e-06
4.24872e-05
3.64326e-05
1.57479e-05
2.83884e-05
1.73862e-05
-1.83198e-05
3.46488e-05
-8.87361e-06
4.30411e-05
-1.3878e-05
-1.76843e-05
5.33761e-05
6.97025e-06
1.98274e-05
-9.43824e-06
-2.05099e-05
1.08964e-05
-8.70431e-06
2.30137e-05
-4.02769e-05
5.81444e-05
1.97489e-05
-6.69965e-06
1.9066e-05
3.79623e-05
2.92317e-05
-5.2822e-05
2.45733e-05
-3.41298e-05
8.4183e-06
1.73149e-05
-2.70176e-05
2.82606e-05
5.06745e-05
-9.04957e-05
0.000183497
-0.000143678
-0.000120191
7.84875e-05
-0.000107807
0.000149508
0.000167387
6.37038e-05
-8.96673e-05
-0.000141427
-0.000114499
7.35474e-05
0.000174045
-0.000133096
-4.2044e-05
-6.86546e-05
0.000161371
-6.18935e-05
-0.000100343
-3.72125e-05
-0.000145941
6.82795e-05
0.000116652
-0.000125603
-0.000129049
0.000137998
-0.000102308
-0.00014005
0.000105275
0.000137085
0.000136139
-0.000128882
-0.000131435
0.000124182
-0.000145618
-0.000112323
0.00012821
0.000129728
-2.09073e-05
1.31789e-05
0.00012438
1.53617e-05
-0.000138578
-1.76425e-05
-0.000114797
0.000133856
6.18606e-05
0.000142923
-9.27647e-05
-0.000112023
-0.00011425
0.000135483
-0.000109532
8.83032e-05
0.000117665
-9.42372e-05
-9.72133e-05
7.37849e-05
-7.68286e-05
0.000103811
-8.3577e-05
5.65932e-05
-2.57858e-05
-5.10964e-05
0.000138744
-3.1454e-05
-0.000108582
-1.66517e-05
-0.000111274
6.95587e-05
7.65269e-05
-0.000117799
0.00015156
-0.000110291
-9.11395e-05
-0.000107256
0.000107655
9.07431e-05
0.000124249
-8.31429e-05
-0.000104033
6.29255e-05
-0.00010808
0.000132675
-9.62891e-05
7.16954e-05
-2.43215e-05
-2.63909e-05
0.000127239
-2.41853e-05
-9.1277e-05
-2.7963e-05
-0.000106509
7.21005e-05
-3.41362e-05
-2.88683e-05
0.000141492
0.000156232
-3.00052e-05
-6.25236e-05
-2.89717e-05
-4.88927e-05
0.000151408
-9.48595e-05
-2.30053e-05
-6.34754e-06
0.000124212
-0.000124009
0.000120106
-3.02358e-05
0.000100501
-0.000108532
0.000133778
-3.70048e-05
-3.0206e-05
-0.00012427
-0.000135118
-2.09262e-07
2.67608e-05
-1.96702e-05
-0.000135965
0.000131596
-5.73804e-05
-0.000104221
0.000102363
-0.000162804
-0.000147551
9.21522e-05
-0.000123357
-2.86364e-05
0.000101637
-2.62816e-05
-0.000137881
-3.65627e-05
-0.00013013
-9.44817e-05
-1.91217e-05
3.48292e-05
-1.67693e-05
-0.000101203
0.00014087
6.71269e-05
-0.000106361
6.73018e-05
0.000118457
-1.65002e-05
5.92615e-05
2.77396e-05
5.93038e-05
-0.000115407
9.60782e-05
2.02411e-05
9.55739e-05
8.62546e-05
0.000111752
9.74949e-05
0.000103358
8.54471e-05
-7.96317e-06
-9.64536e-06
1.48062e-06
-1.72293e-06
-1.31576e-05
3.02908e-06
-6.93796e-06
-6.86652e-06
-1.98042e-06
1.83485e-05
-1.16144e-05
-9.40094e-06
2.66736e-06
8.67764e-06
-7.48978e-06
-9.14913e-06
-9.85953e-06
8.70009e-06
2.15899e-06
-8.09671e-06
3.83232e-06
2.62613e-06
-2.15979e-06
4.68138e-06
-7.22434e-06
-4.60413e-06
-7.90146e-08
-4.13413e-07
-7.58858e-06
-6.82505e-06
2.1821e-07
4.04025e-06
2.57011e-06
-2.05032e-06
1.0429e-05
-4.54467e-06
-5.36072e-06
6.40361e-07
2.96518e-06
-4.79812e-06
-7.6651e-06
-1.06936e-05
1.10142e-06
-1.95619e-07
-6.66251e-06
-9.93263e-06
-1.0095e-05
-8.00165e-06
1.63857e-06
1.95113e-05
-1.423e-05
-8.61033e-06
3.32969e-06
1.09002e-05
-7.10826e-06
-1.14563e-05
-7.06745e-06
9.14299e-06
3.26035e-06
-8.01935e-06
-1.58711e-05
2.17386e-05
-1.12297e-05
5.36236e-06
4.77046e-06
1.46444e-05
-1.07846e-05
-8.62979e-06
-1.16494e-05
1.97521e-05
-1.12945e-05
3.19225e-06
2.06768e-05
-9.37152e-06
-6.82516e-06
-4.48063e-06
8.01579e-06
-1.29056e-05
-1.09825e-05
-4.4546e-06
1.72412e-05
5.11423e-06
2.65742e-06
-1.09893e-05
-1.59442e-05
-2.75438e-06
5.54179e-06
-7.35065e-06
9.40494e-06
-8.91974e-06
7.9981e-06
-8.97743e-06
-1.06366e-05
1.58485e-05
-3.93002e-06
-7.65844e-06
-4.2586e-06
-5.33097e-07
-1.15687e-05
-3.84201e-06
-1.59812e-05
1.87445e-06
2.4041e-06
-6.10979e-06
8.76697e-06
-4.35235e-06
6.43479e-07
-5.93824e-06
-8.97164e-06
-5.3466e-07
-6.87338e-06
3.50563e-06
1.42121e-06
2.11868e-06
-2.16946e-06
-5.98869e-06
-1.81298e-05
8.90951e-06
3.00214e-07
7.93273e-06
4.82829e-06
4.93281e-06
2.05344e-06
6.49931e-06
8.34185e-06
4.91068e-06
-1.08267e-05
-9.91917e-06
2.615e-06
-9.00409e-06
-1.31699e-05
9.74998e-06
-8.6576e-06
4.73348e-06
-1.06218e-05
1.18009e-05
-9.10217e-06
-6.34097e-06
-9.29237e-06
-1.75894e-05
-2.5244e-06
-3.10534e-06
-1.48537e-05
-6.15887e-06
8.02905e-05
-0.000101132
2.08409e-05
-8.80002e-05
7.18847e-05
1.61151e-05
1.28249e-05
7.55096e-05
-8.83355e-05
-3.92571e-06
8.11318e-05
-7.63179e-05
-8.88164e-07
7.55228e-05
-1.12859e-05
1.60534e-05
-1.24775e-05
8.61019e-05
-0.000101313
8.64493e-05
6.65086e-05
-7.84359e-05
1.19273e-05
-7.56669e-05
6.68354e-05
8.83186e-06
6.92453e-06
-7.58269e-05
6.89025e-05
-9.55594e-07
-6.81071e-05
7.13073e-05
-2.24564e-06
6.49172e-05
-8.92436e-06
1.05158e-05
-1.075e-05
7.90724e-05
-8.89526e-05
7.52467e-05
6.92972e-05
8.2646e-06
-7.75638e-05
-7.21954e-05
5.13529e-06
6.7058e-05
5.20743e-06
-7.10291e-05
6.5821e-05
-3.07917e-06
-8.02874e-07
-5.9017e-05
6.28987e-05
6.61489e-05
-3.22247e-06
6.36953e-06
-6.047e-06
6.64457e-05
-7.27478e-05
6.56061e-05
6.28051e-05
-7.15438e-06
-4.68921e-05
-8.75949e-06
-4.027e-05
-6.14964e-06
5.92457e-05
-1.28275e-05
-1.32625e-05
-5.40422e-06
-4.13163e-05
5.99823e-05
-7.13334e-06
-3.76558e-05
5.93292e-05
-1.45396e-05
5.42133e-05
2.04328e-05
-1.18416e-05
2.00801e-05
-6.13715e-06
5.20923e-05
-3.87933e-05
5.89099e-05
-1.02544e-05
6.83584e-05
1.37807e-05
1.06363e-05
7.30796e-05
-8.20726e-06
7.65264e-05
9.12535e-06
-4.52126e-06
-7.92165e-05
7.58608e-05
6.82543e-06
-3.46949e-06
-9.38581e-05
2.05012e-06
8.15538e-05
3.22742e-06
-7.38917e-05
-3.27479e-06
5.8616e-06
-1.00774e-05
-4.07218e-07
8.16036e-06
-6.96265e-05
-6.20066e-06
8.12618e-05
-8.18345e-06
8.14065e-05
-9.93045e-06
-7.9534e-06
7.13312e-05
-6.24909e-06
2.86299e-06
7.76895e-05
-8.87609e-05
6.77252e-05
-6.57547e-05
-6.39523e-05
6.46272e-05
-8.7534e-06
6.28403e-05
-5.94929e-05
4.33596e-08
7.17323e-05
-6.89133e-05
7.363e-05
-3.54056e-06
6.65187e-05
7.77704e-05
-5.1646e-06
6.72008e-05
4.64827e-06
6.81386e-05
-7.31851e-05
7.21195e-05
2.79916e-06
8.13403e-05
6.41527e-05
1.90607e-06
7.07069e-05
3.21022e-05
-2.89204e-05
-3.1844e-06
-2.63401e-05
3.23231e-05
-5.98437e-06
-8.92278e-06
3.66917e-05
-2.77693e-05
4.1157e-06
3.46555e-05
-2.96514e-05
-9.12171e-06
3.25428e-05
3.7303e-06
-4.17191e-06
6.20296e-06
3.62094e-05
-2.8363e-05
3.34895e-05
3.32822e-05
-2.5424e-05
-7.8589e-06
-2.50162e-05
3.63669e-05
-1.13517e-05
-1.44383e-05
-2.39023e-05
3.83414e-05
5.81575e-06
-3.53791e-05
3.85723e-05
-9.00865e-06
3.52884e-05
6.42532e-06
-8.43138e-06
1.02724e-05
4.10197e-05
-2.87782e-05
3.68536e-05
4.15286e-05
-1.36489e-05
-2.78811e-05
-2.67113e-05
-1.70831e-05
4.37945e-05
-1.88241e-05
-3.19895e-05
5.0813e-05
5.36538e-06
-1.68863e-05
-3.16355e-05
4.31551e-05
4.22384e-05
1.36838e-05
-1.43935e-05
1.55274e-05
4.76391e-05
-2.85894e-05
4.43424e-05
4.68665e-05
1.19365e-05
-5.43883e-05
-4.41742e-06
-5.25777e-05
1.16476e-05
4.71031e-05
-6.17354e-06
-9.91136e-06
1.00291e-05
-4.61297e-05
4.60111e-05
1.40805e-05
-5.17966e-05
4.4642e-05
-6.92575e-06
6.05207e-05
-9.22268e-06
-4.43191e-06
-3.80579e-06
1.17487e-05
5.68485e-05
-5.19909e-05
4.31311e-05
5.74635e-06
3.32823e-05
-6.70574e-06
-9.52608e-06
3.7503e-05
8.71535e-06
4.12348e-05
6.81829e-07
-7.26121e-06
-3.6865e-05
4.41861e-05
1.58002e-07
-7.47795e-06
-2.77861e-05
-5.18092e-06
3.87138e-05
-3.82262e-06
-3.26257e-05
-9.41995e-06
4.7867e-06
7.85867e-06
5.33001e-06
3.47727e-06
-3.85973e-05
1.46964e-05
2.56457e-05
1.18581e-05
3.51359e-05
1.1437e-05
1.16881e-05
3.70832e-05
1.01746e-05
-3.73021e-06
4.00541e-05
-2.76088e-05
4.80552e-05
-3.54366e-05
-3.93211e-05
5.11275e-05
-5.0093e-06
4.82602e-05
-3.32219e-05
-1.3051e-05
3.76177e-05
-2.82967e-05
3.97911e-05
-1.22187e-05
4.48276e-05
3.82639e-05
-9.04652e-06
4.04209e-05
1.34077e-05
4.11975e-05
-4.34662e-05
4.10805e-05
-3.45639e-06
2.73278e-05
3.23257e-05
-5.96376e-06
3.97698e-05
1.76322e-06
9.01757e-06
1.35146e-05
-3.99535e-06
1.45746e-05
-1.49452e-05
-7.34707e-07
8.0931e-06
-2.95208e-07
7.89487e-06
6.40479e-06
1.07835e-05
9.62287e-06
1.02988e-05
5.69066e-06
3.69924e-07
-3.35468e-05
1.01106e-05
1.46671e-05
-6.74276e-06
-4.77373e-07
-7.483e-06
8.79957e-06
2.65864e-07
1.22803e-05
-2.13446e-05
2.69239e-05
-2.34973e-07
-5.10625e-05
-7.64959e-06
-4.36195e-05
-1.86447e-05
4.25393e-06
-1.50493e-05
-1.64654e-06
-2.48944e-05
-7.46637e-08
-2.11182e-05
1.12608e-05
7.9187e-06
-9.31338e-06
6.9082e-06
-5.5126e-06
-2.24288e-05
1.20813e-05
2.34636e-06
1.5845e-05
-2.75133e-05
3.05862e-06
6.62139e-06
1.03749e-05
-1.70692e-05
6.58807e-06
7.9521e-06
1.82006e-05
2.3601e-06
1.10907e-05
8.38551e-06
8.49708e-06
4.74702e-06
-4.46031e-06
-3.41731e-05
1.33367e-05
9.54293e-06
1.64324e-05
-1.97177e-05
2.64053e-05
1.28436e-05
2.67721e-05
8.13153e-06
1.8287e-05
1.08863e-05
1.65951e-05
3.98635e-06
-2.16563e-05
1.11976e-05
9.72694e-06
9.20174e-06
1.77596e-05
-3.69897e-06
1.59649e-05
1.69691e-05
1.33824e-05
-1.31999e-05
1.64145e-05
-7.90426e-06
1.13612e-05
1.26575e-05
1.46271e-06
1.26394e-05
1.81599e-05
-2.42735e-06
-9.92144e-06
-1.2159e-06
1.14049e-05
-9.32831e-06
9.94111e-06
1.05852e-05
-3.92503e-06
2.18011e-05
1.25903e-05
-2.56249e-06
1.50365e-05
1.11239e-07
-1.1583e-05
1.20174e-05
1.70428e-05
1.27893e-05
8.92741e-06
-1.82024e-05
2.09172e-05
-2.03846e-05
2.64181e-06
9.31577e-06
-3.02366e-05
1.46762e-05
8.41278e-07
-1.10278e-05
4.43292e-06
1.13328e-05
-4.83103e-06
-4.24812e-06
-6.28001e-06
-1.04432e-05
-5.7833e-06
-6.79433e-06
-9.91971e-06
-5.38081e-06
3.14321e-05
0.000122062
9.0419e-05
-0.000243914
6.4855e-05
1.52751e-05
9.36547e-05
-0.000173785
-0.000173708
4.4389e-05
7.05746e-05
5.8744e-05
7.75443e-05
1.75159e-05
6.54134e-05
-0.000160475
0.000136781
0.000106743
-0.000212093
0.000104303
9.7333e-05
0.000113162
7.11245e-05
4.37579e-05
3.23105e-05
2.01428e-05
4.97306e-05
-0.000102184
1.58528e-05
1.91528e-05
-7.52734e-05
-8.26836e-05
1.2121e-05
2.59055e-05
2.06082e-05
-6.57983e-06
-3.54313e-05
7.77518e-05
5.25675e-05
-9.80078e-05
5.91079e-05
3.4497e-05
6.3776e-05
9.40018e-06
5.19113e-05
-8.17437e-05
1.32495e-05
1.65833e-05
-4.04669e-06
-3.83815e-05
8.18688e-06
-5.83711e-05
-2.1835e-05
-2.55376e-06
1.207e-05
-2.88236e-05
-2.37127e-05
6.41489e-05
5.13152e-05
-6.35527e-05
5.53336e-05
4.77126e-06
6.27003e-05
6.8736e-07
1.71248e-05
4.02194e-05
1.09597e-05
-6.83044e-05
-7.69302e-06
1.13591e-05
-2.39045e-05
-1.47025e-05
2.4276e-05
-3.38362e-05
1.54702e-05
-7.74295e-06
-4.17451e-05
4.56e-05
1.57118e-05
-4.41868e-05
1.11888e-05
2.67183e-05
4.05798e-05
-9.39764e-06
4.09663e-05
7.18832e-05
-9.75726e-05
-0.000112101
8.92185e-05
6.72695e-05
7.4122e-05
4.77508e-05
-0.000104357
-9.55426e-06
1.27589e-05
8.00508e-06
-1.12118e-05
2.01715e-05
-3.34375e-05
5.42316e-05
-4.81708e-05
1.26898e-05
-5.56817e-05
3.86409e-05
4.08627e-05
5.11634e-05
8.06479e-06
-1.88375e-06
-3.68398e-05
3.62903e-05
1.26676e-05
-1.9158e-05
6.15746e-05
4.68013e-05
2.71322e-05
6.79631e-05
4.4596e-05
2.12471e-05
2.7557e-05
2.90027e-05
-3.53102e-05
6.88367e-05
3.37436e-05
5.67951e-05
3.1175e-05
-1.37722e-05
3.31365e-05
-1.49423e-05
6.12384e-05
-2.20193e-05
-6.61757e-05
2.65346e-05
4.33143e-06
2.92602e-05
-4.22064e-05
5.37983e-05
4.86658e-05
-8.30065e-06
1.008e-05
-3.79921e-05
-2.3897e-05
9.00922e-06
2.16006e-05
1.98533e-08
4.22119e-05
-4.86242e-05
-5.46377e-05
6.10512e-05
-8.98072e-05
7.96956e-05
-8.19226e-05
9.20362e-05
-7.68967e-05
6.83891e-05
-8.39634e-05
9.24718e-05
0.000119121
6.90281e-05
-9.22245e-05
-9.59237e-05
0.000159636
-3.20145e-05
-8.54068e-05
-1.641e-05
8.62397e-05
0.000165672
-7.85651e-05
7.23669e-05
9.71326e-05
-0.000108336
-0.000107193
0.0001184
-8.77168e-05
-0.0001076
0.000114294
8.10223e-05
-9.8199e-05
-8.90331e-05
0.000104941
8.229e-05
9.50681e-05
-9.37352e-05
-0.000101513
0.00010018
0.000204529
1.23551e-06
-0.000108629
9.15036e-06
0.000107663
0.000187866
-9.15625e-05
9.88178e-05
8.85825e-05
-9.61744e-05
-9.58829e-05
0.00010347
-9.1794e-05
-8.64677e-05
0.00010715
7.11084e-05
-0.000102375
0.000104428
-9.72746e-05
9.52197e-05
0.000106453
-9.31329e-05
8.45422e-05
-9.78599e-05
0.000187249
-9.21314e-06
-8.9453e-05
3.28107e-06
9.21745e-05
0.000198511
-0.000101271
9.94175e-05
5.748e-05
0.000112704
-7.31524e-05
-9.70321e-05
-8.51907e-05
8.92983e-05
-8.0308e-05
7.61997e-05
-7.46297e-05
0.000105487
6.4293e-05
-9.51471e-05
9.76609e-05
-5.29167e-05
3.90489e-05
-8.37929e-05
0.000152706
-3.60092e-05
-5.92152e-05
-2.08272e-05
8.83439e-05
0.00015564
-9.39879e-05
6.01822e-05
-2.00414e-05
0.000196406
-9.6666e-05
-8.33252e-05
0.00017179
-2.00792e-05
0.000181503
-3.26857e-05
-7.97869e-05
-8.02795e-05
0.000190736
-1.5986e-05
-9.44713e-05
-9.08385e-05
-0.000107645
0.000178443
-0.000101796
-9.91988e-05
-8.87255e-05
-1.94908e-05
-7.28453e-06
9.53544e-05
9.59126e-05
1.0883e-06
-0.000182821
1.50509e-05
7.87346e-05
9.29143e-05
-6.30757e-06
8.51807e-05
8.65156e-05
8.46441e-05
9.08653e-05
9.46516e-05
8.29061e-05
2.69438e-06
-0.000112677
0.000192497
-9.99014e-05
0.000183679
-0.000103659
-8.86925e-05
0.000162005
1.93272e-05
0.00018358
-9.74167e-05
-9.07604e-05
7.76596e-05
-9.95727e-05
7.34293e-05
-7.30807e-05
0.000170069
9.00133e-05
7.06025e-06
8.33878e-05
7.95243e-05
8.35685e-05
-0.000173667
0.000102247
-9.19459e-05
9.25057e-05
8.51831e-05
-7.84666e-05
8.62409e-05
-3.08383e-05
2.13785e-05
9.46036e-06
9.6644e-06
-3.51194e-05
2.54554e-05
2.44821e-05
-3.26805e-05
8.19835e-06
-2.95802e-06
-1.70215e-05
1.43344e-05
5.64528e-06
-3.27534e-05
-1.99938e-05
2.1909e-05
-2.3089e-05
-3.07507e-05
7.79917e-06
-2.93575e-05
-3.92063e-05
1.00004e-05
2.92063e-05
8.21745e-06
-3.87934e-05
3.05764e-05
3.52005e-05
6.74868e-06
-4.19493e-05
-3.70392e-06
7.82849e-06
-2.93072e-05
2.51832e-05
-4.27294e-05
-2.60423e-05
2.95655e-05
-3.45119e-05
-3.72149e-05
7.46883e-06
-3.65263e-05
-2.9557e-05
2.48465e-05
4.71053e-06
6.35817e-06
3.42549e-05
-4.06133e-05
2.63909e-05
-3.38955e-05
7.50448e-06
-1.51536e-06
1.30527e-05
-1.23156e-05
7.7831e-07
-3.22931e-05
-2.29864e-05
2.57224e-05
-2.5935e-05
-2.77631e-05
3.26128e-06
-2.73072e-05
-8.34433e-06
-5.56196e-06
4.99907e-06
8.90805e-06
1.06657e-05
-3.28568e-06
-1.53433e-05
7.96303e-06
6.29167e-06
-5.98327e-06
-1.90648e-06
1.59769e-06
-3.24258e-06
-7.7765e-07
-4.80809e-07
4.5025e-06
-1.42408e-05
3.0179e-06
2.87795e-06
-4.26214e-06
6.86647e-07
-2.9811e-06
2.75625e-06
-9.51884e-07
-2.41949e-05
-3.70098e-05
2.60857e-05
2.24726e-05
-4.0225e-05
-1.49278e-05
-2.43452e-05
-6.92123e-06
1.4245e-05
2.46362e-05
-3.05892e-05
-1.41908e-05
2.01438e-05
8.61379e-06
3.84535e-06
-3.66539e-05
1.72898e-06
6.84497e-06
2.16367e-05
-1.57713e-05
-2.70095e-05
-4.0522e-06
-1.87086e-05
3.87408e-05
-3.19921e-05
-9.15509e-06
-3.10699e-05
-3.29659e-05
-3.06974e-05
-2.95492e-05
-3.98524e-05
-3.06608e-05
9.03779e-06
-2.40683e-05
1.02705e-07
-1.33404e-05
8.56938e-07
1.12428e-06
-1.86009e-05
3.97307e-06
-7.18628e-06
-2.76985e-06
1.46422e-05
-1.1203e-05
5.59849e-06
-1.44695e-05
1.26586e-05
-1.9888e-05
-3.02917e-05
1.44796e-05
-8.61246e-06
-1.92706e-05
-1.8039e-05
3.74859e-05
-3.52231e-05
7.59069e-07
-5.32819e-06
-4.64979e-06
1.49692e-06
-2.24228e-05
0.000201151
-8.76381e-05
-0.000110872
-9.51705e-05
0.00019486
-9.70496e-05
-0.000104127
0.000178127
-7.13601e-05
-8.87399e-06
0.000141201
-6.34025e-05
-6.89247e-05
0.000200339
0.000116668
-0.000115856
0.000107809
0.000197581
-8.97869e-05
0.000201263
0.000166469
-8.34799e-05
-8.03488e-05
-6.83828e-05
0.000140395
-6.93719e-05
-7.73993e-05
-6.20963e-05
0.000142136
-1.72738e-05
-4.68805e-05
0.000124533
-6.03791e-05
0.0001497
9.76238e-05
-8.08538e-05
8.39573e-05
0.000152307
-7.19565e-05
0.000158865
0.000159254
-0.000100182
-5.64317e-05
-5.22953e-05
-8.58913e-05
0.000140827
-0.000100257
0.000148845
-4.59479e-05
-1.01766e-05
-5.71267e-05
0.000109881
-4.2578e-05
0.000149439
0.0001086
-9.8785e-05
9.97835e-05
0.000153615
-5.51911e-05
0.000153142
6.8653e-05
-1.30894e-05
-2.05248e-05
-3.50393e-05
-2.32478e-05
-2.30102e-05
7.94241e-05
-3.31676e-05
-2.76865e-05
-1.45876e-05
6.31124e-05
-2.08386e-05
-1.6089e-05
3.20301e-05
-2.33119e-06
-1.36108e-05
6.006e-05
3.75235e-05
-2.89313e-05
5.10187e-05
-1.42065e-05
3.5533e-05
-1.40986e-05
5.88649e-05
0.000106341
0.000181415
-9.28957e-05
-0.000107005
0.000174677
0.000110456
0.000127051
6.29026e-05
-4.87534e-05
-0.000132327
0.000110039
6.43947e-05
-4.21073e-05
-8.33762e-05
1.58641e-05
0.000173853
1.08815e-05
-5.98724e-05
-5.65903e-05
7.80605e-05
0.000100576
-2.12838e-05
8.44422e-05
-0.000153052
9.35962e-05
7.33659e-05
0.000103951
0.000185567
8.88622e-05
9.23268e-05
0.000164868
0.000104143
9.99593e-06
0.000169726
-6.92659e-05
0.000102728
-5.29151e-05
-4.74032e-05
8.87878e-05
-6.82772e-05
9.35795e-05
-3.98898e-05
-5.94202e-05
0.000119819
-5.04029e-05
0.000121368
-5.97587e-05
0.000111301
0.000173495
-6.86877e-05
0.000105141
5.58916e-05
0.000117338
-0.000153722
0.000161427
8.40059e-06
6.63095e-05
5.10136e-05
1.67302e-05
0.000123635
-3.11296e-05
3.12e-05
-4.8694e-05
5.43217e-05
-4.39934e-05
3.04656e-05
-4.07935e-05
-7.88491e-05
-3.28334e-05
2.976e-05
4.88939e-05
-4.13565e-05
-9.97614e-05
2.71918e-06
4.29208e-05
-7.67697e-05
3.66192e-05
2.04221e-05
6.40822e-06
-3.58212e-05
-8.32306e-05
8.78399e-05
6.06101e-05
-6.52194e-05
0.000116216
7.70176e-05
-7.4237e-05
-0.000118996
-0.000115359
0.000103936
5.82233e-05
-4.67992e-05
8.13244e-05
0.000101959
-6.10603e-05
-0.000122226
1.77676e-05
3.60234e-05
-0.000137022
3.65589e-05
9.74249e-05
1.67587e-05
0.000100589
-6.20415e-05
-3.95107e-05
-0.000107514
3.98313e-05
0.000106385
-9.50088e-05
2.46657e-05
-3.6043e-05
-7.95783e-05
-6.6042e-06
-2.14186e-05
9.66672e-06
-8.55664e-05
-2.56126e-05
-4.89879e-06
6.83693e-05
-0.000102981
7.82536e-05
2.32328e-05
-3.05918e-05
-3.19161e-05
-2.78558e-05
4.67432e-05
-9.20424e-05
7.43372e-05
6.04191e-05
-3.6371e-05
-9.83895e-05
-8.24316e-05
2.41739e-05
-2.2053e-05
3.9319e-05
-2.1877e-05
-7.03596e-05
1.84933e-05
3.79595e-05
-8.43119e-05
4.49398e-05
4.78902e-05
1.80626e-05
-1.94291e-05
3.7529e-05
1.84483e-05
-9.99701e-05
-0.000103875
1.38332e-05
5.72091e-05
1.44302e-05
4.66983e-05
-0.000102484
5.09014e-05
1.91019e-05
4.19259e-05
-0.000111932
8.29822e-05
-6.65442e-05
2.10921e-05
-5.67139e-05
9.52388e-05
-0.000110881
5.29552e-05
3.30295e-05
7.32592e-05
7.20716e-05
4.8988e-05
-6.68344e-06
5.84854e-05
5.21373e-05
-0.000102296
6.18511e-05
5.42783e-05
-5.56641e-05
0.000109786
0.000116997
-5.52957e-05
6.27854e-05
5.50182e-05
-4.24487e-05
2.99222e-06
1.36547e-05
8.47862e-05
1.7556e-05
-6.14421e-05
-8.86064e-06
-0.00010002
-3.11549e-05
-3.34104e-05
-9.9266e-05
6.66797e-06
-4.26706e-05
-6.54613e-05
-2.89653e-05
0.000103056
-3.65124e-05
4.54347e-06
-4.10646e-05
-4.07927e-05
-0.000104858
-9.95873e-05
-4.52972e-05
-4.18286e-05
5.57458e-05
-2.42055e-05
0.000113057
-0.000144598
0.000120178
9.53416e-05
-3.78647e-05
-0.000177656
-3.77317e-05
7.14735e-05
0.000126499
-0.000160242
-0.000137052
9.38057e-05
-2.91123e-05
7.23567e-05
-8.39865e-05
0.000171577
-3.18439e-05
0.000199931
-0.000163739
-6.41608e-05
9.86848e-05
9.80379e-05
0.000120803
0.000106924
-4.81805e-05
-0.000179546
6.89908e-05
-5.46996e-05
-0.000108529
-5.14975e-05
0.000108563
-0.00014983
-0.000135535
6.30182e-05
-3.70155e-05
-3.26145e-05
0.000189233
-3.58147e-05
0.000186647
-0.000150271
-2.65674e-05
8.02664e-05
8.48373e-05
-5.06098e-05
0.000123743
-0.000157975
0.000106719
-5.08545e-05
-0.000145533
-5.43512e-05
9.66181e-05
-0.000132764
-0.000140414
-4.62462e-05
7.88526e-05
-6.37335e-05
0.00019486
-4.62905e-05
0.000200469
-0.000157484
-4.57742e-05
0.000100219
0.000124171
-0.000132895
-2.77956e-05
3.65175e-05
3.7315e-05
-0.000137967
-3.07843e-05
-3.16309e-05
-0.000137269
3.98507e-05
-0.000126799
-2.4209e-05
1.09603e-05
-9.28759e-06
0.000156074
-2.26148e-05
0.000170657
-0.00014263
-4.48214e-07
2.97237e-05
0.000190555
-7.00978e-05
-2.51191e-05
-3.70199e-05
-8.28647e-05
0.000191356
-4.07388e-05
0.000163918
-2.93786e-05
-0.000114738
-2.73644e-05
0.000171086
-2.89851e-05
9.11508e-05
0.000159919
-6.05161e-05
0.000152168
7.54892e-05
-3.03106e-05
0.000186917
0.000231069
-0.000194243
-0.000167611
0.000203267
6.6848e-05
0.000214728
-0.000173014
-0.000131219
0.000214625
-0.000166271
0.000128396
4.21582e-05
4.10507e-05
9.80775e-05
-0.000187139
0.000205976
0.000151778
-6.67365e-05
0.000106312
-3.02024e-05
6.12233e-05
5.86255e-05
-2.55047e-05
-0.000179161
-2.82475e-05
7.01373e-05
-3.93471e-05
0.000109509
8.16132e-05
0.000117367
-3.33625e-05
-3.62912e-05
9.72763e-05
-0.000198765
4.17989e-05
5.96519e-05
0.000154202
-0.000103217
-8.08536e-05
0.000162412
-4.07574e-05
7.09975e-06
3.60722e-05
1.5437e-06
-4.72386e-05
4.81087e-05
4.83446e-05
-5.33505e-05
7.41992e-06
-1.58017e-05
-4.07389e-05
1.27736e-07
5.64104e-05
-4.55334e-05
-4.04467e-05
4.5221e-05
-4.15751e-05
-5.54662e-05
-7.82679e-07
-4.86975e-05
-1.83241e-05
-1.393e-06
2.21302e-05
4.44293e-06
2.91737e-05
3.04781e-05
2.40354e-06
-1.92994e-05
-1.13478e-06
5.01942e-05
-2.28753e-05
-2.01541e-05
2.47061e-05
-1.60166e-05
-3.48835e-05
-4.56974e-06
-6.75851e-05
6.63979e-05
3.60113e-06
-5.19388e-06
6.82194e-05
8.14641e-05
-2.03039e-06
-1.85952e-05
8.52238e-05
-8.40541e-06
-8.07127e-05
-8.27347e-05
9.58624e-05
-8.34912e-05
-9.53978e-05
-5.93198e-06
-1.85408e-05
-2.80333e-05
-1.2536e-05
5.91096e-05
-9.84889e-06
-3.06637e-05
8.03448e-05
6.53754e-05
-2.88198e-05
-1.18895e-05
-3.9802e-05
-1.53164e-05
4.8514e-05
-5.38108e-05
-2.31738e-05
5.84446e-05
-3.66654e-05
-2.69942e-05
-5.19427e-05
-1.10327e-05
-5.14685e-05
-5.42752e-05
5.85044e-05
7.14018e-05
-6.21097e-05
-6.26429e-05
-6.04051e-05
-4.07698e-05
6.04361e-05
5.31907e-05
-7.88532e-05
-5.4112e-05
7.9774e-05
-4.65415e-06
1.68418e-05
-6.36566e-05
1.80503e-05
-4.27504e-06
7.43073e-05
-4.663e-05
-5.3253e-05
-1.78776e-05
-6.21106e-05
6.34299e-05
-5.86108e-05
-1.8689e-06
-5.78258e-05
-5.93111e-05
-5.75985e-05
-8.17584e-05
-5.70519e-05
-7.53804e-05
1.60276e-05
-7.75217e-05
-1.14832e-06
-6.51067e-05
-3.69679e-06
-8.29077e-06
-7.6485e-05
5.26271e-05
-7.36252e-05
-7.8215e-06
6.92343e-05
-5.14425e-05
-1.76411e-06
-4.25024e-05
7.77874e-05
-7.66031e-05
-6.89495e-05
6.37354e-05
-8.43175e-05
8.28678e-05
1.84948e-05
8.41791e-06
5.62695e-06
1.59051e-05
2.67308e-05
-1.04357e-05
8.89801e-05
1.02448e-05
3.8165e-05
7.97997e-05
7.55433e-05
3.75889e-05
2.48657e-05
-0.000115351
3.41714e-05
-7.38518e-06
8.85639e-05
-8.36723e-05
2.84441e-05
8.19584e-05
5.09511e-05
-9.02196e-05
3.31214e-06
3.62741e-05
3.30081e-05
1.53356e-05
5.93107e-05
3.69467e-05
5.21422e-05
4.3586e-05
4.83538e-05
4.96774e-05
5.35285e-05
-0.000114986
1.62118e-05
3.99343e-05
5.88375e-05
-7.97077e-05
5.55557e-05
5.71589e-05
8.44768e-05
-8.31027e-05
2.36715e-05
4.97276e-05
4.59166e-05
5.73163e-05
4.6276e-05
6.34766e-05
5.01997e-05
6.03674e-05
3.98824e-05
7.84648e-05
6.5149e-05
-0.000146239
5.38516e-05
4.41423e-05
4.8244e-05
-0.000100919
9.5995e-05
5.08401e-05
0.000123928
-0.000104854
5.46102e-05
5.89559e-05
3.70903e-05
-0.000108132
-1.33099e-05
8.43485e-05
5.01353e-07
-0.000110932
3.51969e-05
7.52336e-05
6.60976e-05
-0.000118569
1.25268e-05
3.99438e-05
-0.000100239
-1.31865e-05
3.61472e-05
7.72748e-05
-6.89678e-05
2.87891e-05
7.72663e-05
4.41013e-05
-0.00011257
-7.0925e-05
-5.25838e-07
3.92735e-05
4.66445e-05
-8.35337e-05
7.50543e-05
6.87491e-05
-9.36042e-05
6.24432e-05
-7.86173e-05
3.12764e-05
8.15103e-05
-3.6758e-05
-7.69691e-05
4.22848e-05
7.14415e-05
1.33489e-05
0.000116313
-8.30191e-05
0.000118373
4.90516e-06
7.46496e-05
4.46609e-05
5.60119e-05
-0.000120016
5.92573e-05
9.65916e-05
0.000104494
-3.23653e-05
8.02545e-05
3.68142e-05
-6.38222e-05
-5.95308e-05
3.759e-05
7.46507e-05
0.000125592
-9.37437e-05
3.05958e-05
-7.7992e-05
1.13623e-06
1.1121e-05
-7.9768e-05
-5.92407e-05
-8.68988e-05
2.75703e-05
7.24433e-05
3.85882e-05
1.45608e-05
3.91122e-05
6.23366e-05
-8.29893e-05
4.38269e-05
-7.89214e-05
4.58729e-05
-6.19158e-05
4.14049e-05
9.65341e-05
5.81597e-05
0.000132025
-3.73588e-05
-2.98855e-05
0.000133826
4.20245e-05
2.85503e-05
3.69565e-06
-2.5723e-05
-6.52048e-06
-4.86323e-06
-3.40396e-05
4.24289e-05
-3.52802e-06
-1.07877e-05
-4.10536e-05
1.13575e-05
4.04837e-05
-6.40221e-06
-1.32309e-05
1.43001e-05
5.33104e-06
9.35322e-06
1.9219e-05
-2.22921e-08
3.05822e-05
-2.60904e-05
-2.93692e-06
1.5756e-05
1.68606e-05
-6.27394e-05
-3.69915e-06
7.20208e-05
-5.58388e-06
4.42481e-06
-7.9815e-05
8.91057e-05
-1.37156e-05
-1.59965e-05
2.44685e-06
-7.6546e-05
9.00974e-05
7.62964e-05
-2.10284e-06
-6.2485e-05
-1.17081e-05
9.01732e-06
-6.44545e-05
-7.30258e-06
-7.11328e-05
8.45749e-05
1.08866e-05
9.55319e-07
-7.62429e-05
-5.01079e-05
-1.01265e-05
-1.79278e-05
7.81583e-05
-1.74866e-05
-1.4862e-05
-5.79937e-05
9.03383e-05
-1.53368e-05
-5.22026e-05
-2.08946e-05
8.84314e-05
8.25135e-05
-1.78621e-05
-3.66482e-05
-2.80037e-05
3.25919e-05
-6.79064e-05
-1.47951e-05
-7.05993e-05
8.57038e-05
3.71753e-05
-2.25701e-05
-4.87636e-05
2.76253e-06
2.56177e-05
-9.19403e-06
-1.91896e-05
-1.58762e-05
5.82111e-05
-3.18553e-05
-1.0485e-05
-2.5454e-05
7.11288e-05
-3.42903e-05
-1.13875e-05
3.88409e-05
-2.46157e-06
-8.87838e-06
-2.75046e-05
3.22957e-05
-1.09574e-05
-1.85812e-05
-2.83697e-05
4.47877e-05
2.75381e-05
3.42135e-07
-2.6286e-05
-3.69153e-05
8.08542e-06
-5.20933e-06
-7.16648e-06
9.98718e-06
-4.38745e-05
-6.9653e-06
-1.07654e-05
4.5023e-06
3.42824e-05
1.59487e-05
-4.41966e-05
-6.03389e-06
-3.58825e-07
-4.54534e-05
8.89868e-06
9.33877e-06
-2.8892e-06
-8.27612e-06
-5.21517e-07
-5.9047e-05
6.34342e-05
7.11797e-05
-5.73351e-05
-1.41655e-05
-6.95946e-05
8.62083e-05
4.2456e-06
-6.37437e-05
6.94834e-05
-6.0363e-05
1.02148e-05
1.1772e-05
-6.20995e-05
7.656e-05
-6.44937e-05
-5.88976e-05
1.57262e-05
-7.05647e-07
-6.55785e-07
1.55027e-05
-6.32568e-06
2.03373e-05
5.04168e-05
2.67121e-05
-6.00016e-06
-1.58065e-05
-4.7982e-05
4.88929e-06
-1.69895e-05
-2.14725e-05
2.39059e-05
-5.81444e-05
5.66677e-05
-4.78194e-05
1.99631e-05
-5.6963e-05
-1.88622e-05
-6.55955e-05
-7.57369e-05
2.79503e-06
4.83511e-06
-8.05619e-05
-5.57651e-05
4.36763e-05
9.37285e-05
-3.29777e-05
-2.57713e-05
5.93675e-05
7.35507e-05
-0.000112507
6.21511e-05
7.42205e-05
-2.38683e-05
9.42441e-05
3.11434e-05
-4.08462e-05
0.000137794
5.29731e-06
2.89328e-05
8.30872e-05
0.000136194
-3.66543e-05
5.262e-05
4.89985e-05
-1.80817e-05
7.40239e-05
-1.73362e-05
7.94266e-05
-0.000117623
-1.2118e-05
7.17446e-05
8.98874e-05
-2.63567e-05
0.000127609
2.02045e-05
3.53675e-05
7.49002e-05
0.00013102
-2.09293e-05
7.62118e-05
-0.000120919
5.85704e-05
-1.38615e-05
-7.85816e-06
-0.000116273
4.75859e-05
-0.000118645
4.18416e-05
-3.01235e-06
5.19887e-05
-9.96929e-05
-1.47818e-05
0.00012683
6.37385e-05
-0.000114357
7.12375e-05
4.77334e-05
0.00012365
-7.92317e-06
2.06655e-05
9.29689e-05
-4.93427e-05
-3.52414e-05
7.71508e-05
-7.49722e-05
6.8057e-05
-2.49423e-05
8.26944e-05
-4.61076e-05
0.000108824
-2.7976e-05
8.31453e-07
7.27503e-05
0.000100427
-4.57086e-05
2.79689e-05
0.000133648
-0.000109412
0.000131661
3.99007e-05
0.00012712
-1.25903e-05
-4.29154e-05
0.000116433
1.00508e-05
-2.40544e-05
-7.40963e-05
0.000126119
-8.08464e-05
-3.07709e-05
1.55027e-05
5.22469e-05
6.33194e-05
6.35928e-05
2.6482e-05
-0.000122807
5.9922e-05
5.07641e-05
1.07658e-05
5.79059e-05
6.29879e-05
6.44602e-05
0.000113906
0.000107123
6.57596e-05
5.8911e-05
5.00735e-05
-7.06078e-05
0.000134701
-2.41934e-05
0.000124526
-4.4149e-05
-3.15208e-05
0.000118722
-2.20391e-05
0.000112576
-2.24819e-05
-9.44864e-05
5.22757e-05
-2.83977e-05
4.55424e-05
-8.67719e-05
0.000117008
7.16875e-05
-4.40816e-05
9.73838e-05
-0.000121947
-5.38491e-05
1.11785e-05
1.90765e-05
-6.06952e-05
-2.01164e-05
8.27966e-06
1.55327e-05
2.34596e-05
-1.65832e-05
7.4232e-06
-1.04835e-07
-5.02621e-05
6.17221e-05
-7.82778e-06
-6.00814e-05
6.46117e-05
3.29828e-06
-3.65449e-05
8.80891e-07
1.55471e-05
2.67087e-06
-2.56231e-05
1.86745e-05
-2.30565e-05
-1.16386e-06
2.72515e-05
-3.52829e-05
3.9349e-05
-1.75588e-05
-3.06695e-05
-4.19196e-05
8.12317e-05
-5.07019e-05
-6.00484e-06