/*--------------------------------*- C++ -*----------------------------------*\
| =========                 |                                                 |
| \\      /  F ield         | OpenFOAM: The Open Source CFD Toolbox           |
|  \\    /   O peration     | Version:  2506                                  |
|   \\  /    A nd           | Website:  www.openfoam.com                      |
|    \\/     M anipulation  |                                                 |
\*---------------------------------------------------------------------------*/
FoamFile
{
    version     2.0;
    format      ascii;
    arch        "LSB;label=32;scalar=64";
    class       volScalarField;
    location    "300";
    object      p;
}
// * * * * * * * * * * * * * * * * * * * * * * * * * * * * * * * * * * * * * //

dimensions      [0 2 -2 0 0 0 0];

internalField   nonuniform List<scalar> 
54912
(
0.0819337
-1.39452
0.1366
-0.411689
-0.273252
-0.439358
-0.390518
-0.465924
-1.6306
-0.935915
-0.404107
-4.39915
-1.56053
-0.138705
-1.74671
-0.571492
0.306076
-0.217289
-1.32503
-0.898078
0.3288
0.994954
0.165468
0.518366
-1.54168
-2.66351
-2.05986
-6.71999
-1.49811
-0.18805
-2.4909
0.234714
-2.36425
0.107625
-0.647115
-1.6153
-1.33697
-0.63557
-1.5993
-0.962096
-1.11364
-0.15991
0.166279
-0.0470479
-1.20752
-1.5805
-0.13068
-0.230906
0.183015
-0.582941
-0.61342
-0.554503
-0.0999713
-0.664079
-0.00371242
-0.846393
0.174671
0.409054
0.0907561
-0.100527
-0.0112346
0.734456
0.0702894
-0.288521
0.597138
0.622898
1.141
1.10182
-0.282172
0.522185
0.292522
1.18443
1.0047
0.926899
0.83314
1.15216
0.946539
0.905431
0.779805
0.871723
1.21424
0.111243
-1.46215
-3.00435
0.0140117
-0.330619
-0.177752
0.121977
-0.737222
1.48401
-1.45166
-2.88784
1.36668
1.28
1.61385
1.53905
1.01465
0.94726
-0.177335
1.4415
1.10627
1.15338
0.644634
0.603393
0.999334
0.988991
0.785563
1.14381
1.03913
0.480407
0.949438
0.950315
1.16798
0.163748
1.47708
-1.0685
1.82976
1.09258
-0.667887
1.38031
1.20815
-0.636215
0.84515
0.331359
0.66318
-1.58502
0.432252
-0.9632
-0.196321
0.915133
0.876311
0.0369529
0.835705
0.760716
0.828551
0.869933
0.960543
0.972598
0.849032
1.03876
0.936288
0.93478
0.944967
0.887092
0.861462
0.779591
0.766219
0.864234
0.835134
0.869197
0.903264
0.896171
1.0478
1.6491
1.19453
1.49065
1.23137
1.27144
1.28831
1.516
1.12211
0.830473
0.750272
0.97818
0.895557
0.697823
0.937871
0.895692
0.977013
0.979146
0.871363
0.868017
0.848575
0.84361
0.796359
0.842713
0.810114
0.903706
0.94647
0.812105
0.768182
0.88375
0.747105
0.723609
0.846701
0.879267
0.912771
0.80488
0.789155
0.852819
0.83068
0.832361
0.0144121
0.0545977
0.140182
-0.287598
-0.183881
0.0390206
0.0699829
0.0405486
0.0991771
0.106346
0.0876453
0.105102
0.100534
0.104322
0.099964
0.0982522
0.0309769
0.0199355
-0.354421
-0.0486474
0.0228494
0.0179001
0.0438572
-0.0637786
-0.351158
0.126458
0.0690593
-0.559663
-0.0118147
0.00856094
-0.385495
-0.341213
0.0176595
0.0493702
-0.161504
0.126473
0.154692
0.0534284
0.0737772
0.0707337
0.0750773
0.0845059
0.074205
0.040474
0.168697
0.0909046
0.0904127
0.0857627
0.0790434
-0.0730204
0.107865
0.137659
0.0755691
0.0570452
-0.00252093
-0.00363996
0.083949
0.14629
0.0680805
0.0439681
0.0389429
0.0306636
0.0576965
0.0696708
-0.342838
-0.307844
-0.232372
-0.591982
-0.348362
-0.184008
-0.31676
-0.158985
-0.18161
0.0903447
-0.324428
0.198961
-0.00779341
-0.135003
-0.0398219
-0.17918
-0.169025
-0.253146
-1.3931
0.212427
-0.112396
0.288569
0.21901
0.133789
-0.357521
0.130182
0.0320215
0.0742636
-0.0326332
-0.164931
0.133031
0.0763472
-0.245546
0.0638286
-0.46422
0.00918701
-0.304547
-0.346751
-0.179932
-0.279594
-0.288466
-0.154793
-0.233167
0.320041
-0.355267
-0.303987
-0.0821545
-0.175634
0.252497
-0.359853
-0.0835614
0.224043
0.0466535
-0.111461
0.0145235
-0.106153
-0.134536
0.17608
-0.171201
-0.243459
-0.27244
-0.0706823
-0.0863206
-0.179911
-0.392899
-0.0749482
-0.386226
0.0242376
-0.169164
-0.0227094
-0.136033
0.011956
-0.173699
-0.38179
-1.99004
-2.02257
0.0637941
-0.669618
-0.596628
-0.887636
-0.357863
-3.95139
-4.81354
-6.79797
0.501029
-5.92091
-1.64472
-7.05602
0.28078
-1.47584
-4.75569
-1.42168
-0.418335
-1.70861
-0.768936
-2.11304
-0.28915
-0.173635
0.162829
-0.555081
-0.288945
-0.0588284
-0.464104
-0.280025
-0.130383
-3.1895
-2.83646
-0.6374
-0.339307
-1.57664
-0.560249
-1.16286
-0.524958
-0.162341
-1.0616
-0.539075
1.41799
-0.496218
1.21996
-0.89382
-0.418383
-8.10783
-4.13819
-3.18526
-0.321189
-4.66949
-1.83021
-6.97836
-1.21214
-0.241482
0.62615
0.111261
0.0391446
0.173159
1.01872
0.920109
0.0139483
-0.289728
0.193359
-1.54288
-0.597697
-0.367662
-0.455914
-0.113162
0.226013
0.680494
-0.458799
0.569068
0.811915
0.904559
0.937354
0.741976
-3.86037
-2.33164
-2.85874
-6.87753
-1.53867
-1.57665
-1.19916
-1.57964
-0.340315
0.995674
-1.02219
-1.66876
0.37517
0.889593
-1.81034
-0.0727447
-0.0103859
-1.16265
0.49175
0.757052
0.653912
-0.1253
0.894504
0.42132
0.629436
0.00807533
-0.996634
-0.572024
0.343712
0.254218
-0.28497
-0.48869
0.300022
-0.163495
-0.752552
0.375249
0.516798
-0.166902
0.201804
-0.551601
-0.800012
0.121296
-0.187627
0.0452995
-0.191012
0.0983683
-0.0445032
-0.0789359
0.37504
0.538239
0.39043
0.387086
0.406759
0.46518
0.192611
0.435879
0.00244973
0.142839
0.122382
0.139084
0.0908009
0.0609109
0.133475
0.133686
0.0128951
-0.227183
-0.218526
-0.461625
-0.0517863
-0.0574292
-0.164656
-0.19883
0.430234
-0.0124396
0.144648
0.292639
-0.0353219
-0.0766096
0.117125
0.142735
0.365832
0.271264
0.301144
0.130452
0.235555
0.228357
0.141012
0.236651
-0.167494
-0.0887214
0.0668492
0.0116035
-0.0356432
0.00981914
0.0653354
0.0771452
0.0450064
0.0834611
0.202455
0.205306
0.0707995
0.0756831
0.0858298
0.171753
0.108243
0.272431
0.353144
0.0957232
0.193415
0.43897
0.305431
0.321875
0.215775
-0.0565551
0.24083
-0.303222
0.652087
0.0304764
0.417134
-0.0980884
-0.0991127
0.1785
0.115307
0.435831
-0.341585
0.132636
-0.520072
-0.506632
2.26759
0.827937
0.783081
0.591558
1.62668
0.504973
-0.435999
0.577014
-0.0139664
0.649611
-1.05655
-0.175086
0.542933
0.756487
0.649056
1.78378
0.186481
-0.142411
0.283413
0.436824
0.502447
0.344299
0.427067
0.116293
0.379467
-0.616937
0.697036
-0.196996
0.75919
0.241155
0.234649
0.431257
0.0403258
0.174235
0.396027
-0.276709
-0.0416312
-0.11096
-0.0862659
-0.14084
-2.672
-7.55247
-3.03233
-1.05074
0.764951
-0.925064
1.67905
1.43161
-6.40542
-1.24752
-1.36868
0.0246457
1.48733
-1.93827
3.45662
-0.264699
-1.73241
-0.578125
-0.32844
-0.474359
-0.0843523
-0.295347
0.276992
-0.0107089
0.581947
0.727125
-0.0470935
0.622089
0.382479
0.983056
0.16997
1.17035
2.12899
0.0533279
0.893023
1.63686
3.38703
-1.81898
-1.04335
1.01722
-3.61282
-0.548514
-0.985122
-1.78095
-0.118671
1.26609
-5.88652
2.73477
1.21641
0.967202
1.66405
1.2187
-0.317717
1.85665
1.08603
1.1724
-0.114264
0.491896
-0.317252
1.38252
-0.507238
-0.528148
3.74713
-1.69961
1.14219
1.16957
0.975889
1.01486
1.10033
1.02962
1.03299
1.01041
1.41772
1.46874
0.779458
0.871409
1.32186
1.46211
1.19015
1.15847
1.67317
-0.644358
0.835668
-0.552656
1.36935
0.55456
-0.653488
1.03736
1.5905
1.12002
1.83845
2.37945
2.54784
2.12537
2.32078
2.42582
1.09387
1.02254
0.879156
1.04799
0.884006
0.909223
1.01311
0.791847
1.15716
0.939096
0.626239
0.859699
0.909121
0.822441
0.845984
0.683557
1.25634
1.11292
1.0272
1.63433
2.9172
0.701239
1.10363
0.374786
1.1667
1.75877
1.32074
0.557715
0.86284
0.487231
0.534246
0.249616
0.539864
1.74354
-0.0257859
1.35019
1.5336
1.82352
1.48445
2.17458
1.46504
1.15382
1.07972
1.05782
1.32886
1.08963
1.1313
1.12414
-0.135951
0.999165
-0.832843
1.90021
1.92792
1.40128
1.12601
-0.21489
1.81066
2.36717
1.89943
2.34269
2.62167
2.85873
2.88859
2.66211
1.77668
3.10644
2.02613
1.22838
1.39112
1.65579
1.47963
1.73137
1.61211
0.897397
1.13263
1.82164
1.6186
1.11334
1.10674
1.6764
2.52376
1.97713
1.07578
1.57688
2.60468
1.51963
2.33011
1.49634
2.20139
2.6213
1.16894
0.829366
0.960204
2.15554
0.669309
1.93253
-0.504804
-0.12717
0.162855
-0.202837
-0.125247
-0.161522
0.257335
0.0651732
0.157208
0.122779
-0.202819
-0.521929
0.157058
0.0992867
0.300816
0.48826
0.31943
0.692982
-2.14185
-0.656059
-0.53301
-1.06424
0.298437
-1.71229
0.887359
-2.40836
-0.674166
0.946784
1.45913
-2.66617
-0.210712
-1.7716
-0.138456
0.12699
0.185774
0.629136
0.282493
0.439026
-0.0121899
-0.0171363
0.119051
-0.8757
-0.723421
-0.101812
0.164705
0.304245
-0.163944
-0.361985
0.268026
0.26681
0.11284
0.66607
0.461809
-0.23122
-0.672727
0.901005
0.590327
0.504122
0.00253076
0.913463
0.819112
-0.703147
0.626903
-1.09679
0.0792406
0.159301
-0.40419
0.572453
0.241325
-0.0562701
0.404174
-0.472392
0.481885
0.521832
-2.91631
-0.443399
0.470986
-0.167801
1.90366
1.34658
-0.385934
0.603873
-2.61457
-0.940045
0.713945
1.0823
4.18044
0.104502
-0.922145
1.52509
-1.13073
0.605589
2.97964
0.697269
0.393057
0.19885
1.44943
1.37587
0.969409
-0.389735
1.19232
-1.00852
0.531842
0.0446815
0.122273
0.0817058
-2.49395
1.06301
1.26842
1.84161
-2.54768
0.774673
2.24815
1.632
-1.42338
2.12729
-1.64449
-1.25299
4.63231
-0.860455
1.0478
1.76125
-0.499229
4.14868
-0.133796
3.13608
7.45634
1.16251
0.066823
-0.345729
-0.282476
-0.189265
-0.067978
0.0171004
-0.37186
0.0979563
-1.49813
-1.00061
-6.76164
-0.0628016
0.0309299
-1.77351
4.52143
3.03756
-1.2373
-2.22463
-1.94496
-0.195582
0.336473
-0.896829
1.20609
0.832211
-0.321787
0.989853
0.0484987
0.616963
0.798062
0.707009
0.457846
0.548075
0.817454
-0.331544
1.15089
0.638564
1.93967
-0.506192
-0.622998
0.0290898
-0.729475
-0.353619
-1.9471
-0.635007
1.66293
0.115349
-1.41932
0.57997
1.68868
1.66579
2.29292
1.96363
0.107595
1.42055
2.20766
0.352373
0.674572
1.59742
1.86023
3.96401
0.331633
1.12691
5.60335
-0.705553
-0.0656064
0.159022
0.593014
0.310065
-0.626109
0.530921
-1.0283
0.134556
0.685371
-0.0155648
0.330645
-0.411303
-0.395761
-0.070782
0.370829
0.451165
0.286846
0.4707
0.100111
1.11066
0.246474
0.445537
0.145972
0.0463746
1.16087
1.03072
1.19565
0.984857
0.663634
0.732935
0.924905
1.49457
-0.591944
0.673575
-0.11399
-0.407146
0.545965
0.402563
-0.0490193
-0.153689
0.796211
-0.367179
0.621334
0.695178
0.622533
0.247112
0.574163
0.4928
0.38261
-0.00549244
0.793836
0.00801298
0.605244
0.37939
0.358778
0.469076
0.410431
0.386236
-0.113799
0.141944
0.117099
1.18162
-0.00445599
0.615339
-19.4694
-19.7647
0.572848
-0.460148
-25.0478
2.04369
1.69109
1.67972
-15.516
-6.64313
1.1851
-5.78668
-12.8016
1.8914
2.00784
4.5787
1.21064
1.08057
1.24999
1.32399
1.2722
1.22996
1.29267
1.24301
3.03541
-0.0336881
0.732065
2.5734
0.426466
2.02469
1.72262
2.53082
-15.7205
0.538878
-9.34755
-4.60261
2.47739
-0.304681
-8.97163
1.17711
2.45012
0.797684
1.05406
1.34085
3.05368
0.1993
0.593267
0.733272
1.63175
0.266243
1.33471
1.18516
1.18566
4.80663
1.14965
2.06026
1.28737
1.70487
3.01407
1.29403
0.483964
1.42404
1.1722
1.63962
-9.58707
-10.8492
-4.40148
-0.616233
-1.77504
-8.41892
4.94068
-1.34063
-11.626
-10.1712
-4.21854
1.37232
0.426642
-8.03742
4.808
-0.713158
-1.08115
-0.718267
0.226862
-0.218578
-0.840271
-1.02734
0.576941
0.084707
1.7184
1.36851
1.41481
1.71595
1.48941
1.6095
1.65639
1.35198
-0.0538537
-1.75637
0.964856
1.09026
4.42935
1.05059
0.81074
0.670931
-7.47037
0.943194
-3.25222
-3.55188
-0.784759
2.24418
-3.94151
-0.410401
0.584865
0.775668
1.09854
1.4447
-0.536243
0.55284
1.10467
1.50238
-1.09229
0.870688
0.717337
0.104781
0.629054
0.0527884
1.6243
0.130466
0.138788
-0.00670692
0.23831
0.976416
1.15005
0.573107
0.272681
0.661996
0.582835
2.41397
1.65174
0.616524
1.04149
2.13935
0.625993
1.7292
0.499658
0.964099
0.451335
0.297982
0.474972
1.19232
0.0488101
0.772486
1.59517
0.975074
1.43865
1.77088
1.2673
1.08702
1.59669
1.12196
0.506384
0.6595
0.739641
1.02977
0.361077
0.531358
0.698003
0.486378
0.914601
0.473194
1.29607
0.792145
0.679639
0.905971
0.499898
0.609951
0.221606
0.970719
1.03262
1.60986
0.84983
0.712448
0.886989
0.946155
0.648703
0.668597
0.669385
0.97538
0.528596
0.275146
0.329935
0.377437
1.27924
1.20038
1.23501
1.23657
1.23163
1.26706
1.22826
1.27748
1.18418
2.79101
0.3522
1.07778
1.33791
0.983915
0.734066
0.681285
1.21522
0.362852
0.780617
0.260654
2.15091
0.239825
1.48169
1.47242
1.20353
1.13504
1.09891
1.06759
1.18428
1.04826
1.14706
0.976987
1.29959
1.17026
1.20277
1.42959
1.27329
1.30092
1.19447
1.21909
1.14317
1.05292
2.22094
1.04332
1.08205
0.63329
1.38169
1.60736
1.14863
1.20761
1.06224
1.0192
1.22453
1.23105
1.48451
1.54116
1.16202
0.579692
0.965882
3.10113
1.4267
0.768843
1.07609
0.365184
1.72568
2.63285
2.98617
5.09712
3.48719
0.754316
3.43394
2.32302
2.27687
2.50328
0.589335
1.90126
2.00754
2.47351
1.69565
1.98319
0.112994
-3.70637
-1.50818
-0.158499
2.23369
1.84506
2.51776
4.31039
2.06033
2.39418
1.2578
1.74553
1.82973
1.77382
1.74657
1.627
1.84457
3.05168
1.33363
1.96191
2.33237
1.82306
2.87906
1.71675
2.3473
1.7469
3.3861
3.99619
2.12275
2.53637
3.48337
2.8082
0.926564
1.77214
2.59773
1.35006
1.53331
1.241
0.578119
2.64098
1.75584
1.44936
1.91076
1.16915
4.7096
1.3459
1.98805
1.99853
2.70033
2.50861
2.68716
2.72898
2.61383
2.7227
2.78596
2.84951
2.30434
-7.06361
-18.3233
-4.29757
3.23571
2.08474
2.61828
-11.5646
2.21751
-14.4295
-8.51669
-2.9743
3.33792
3.67855
8.33633
-6.55219
1.76511
-3.53331
0.884121
0.724047
5.56903
3.46646
4.65627
0.22089
2.23724
3.24159
2.9035
4.34881
2.97831
2.41117
2.76203
2.98192
2.23453
1.85916
2.1419
3.3013
2.40412
-2.43047
0.956727
3.93315
3.92709
2.54358
3.38863
5.09855
2.69452
2.28158
7.54305
5.39371
2.09724
-3.11911
-5.25136
-9.65347
-2.44187
4.82007
3.91379
-9.92533
3.36411
4.41988
0.1173
1.62315
2.64308
2.28957
-0.464332
0.534888
1.74244
1.26618
0.909089
1.00455
1.28251
1.23567
1.462
1.1477
1.54696
0.235885
1.45096
1.04045
1.97613
2.83443
-0.274137
0.747325
2.37126
1.5815
0.411372
1.11914
1.58919
1.34675
0.432321
0.632941
1.35498
0.435545
1.13032
1.07155
0.865481
0.446311
1.20773
0.586179
1.00709
0.90195
1.742
0.0410954
0.548187
0.374407
0.843296
1.30102
1.2178
0.437237
0.544927
0.774406
0.00625092
0.739656
1.86505
1.6686
1.273
1.61404
0.564862
0.535867
-0.432887
2.05028
-0.404766
-0.917219
-2.31136
-2.69052
-1.62362
1.06379
-0.834093
-1.02527
-0.778646
0.861249
-3.39616
0.454697
0.835707
1.36484
2.25237
-0.823056
4.31929
2.8911
1.56657
0.788235
2.14335
1.21436
2.10266
1.55506
2.09177
2.15861
1.12735
1.12275
1.43187
1.6626
2.16758
1.36351
2.97781
1.89287
0.786408
1.4323
2.5484
1.96807
3.57195
1.77014
1.84235
2.22134
-2.11472
1.73862
0.50388
0.287506
1.88678
1.45399
-0.406312
1.73494
3.01548
3.26511
1.93661
2.796
2.11032
2.46136
2.74772
1.66237
1.95764
2.41517
1.36541
1.42534
1.71221
1.57364
1.94773
1.08671
2.60903
2.46644
2.56739
2.3457
2.51819
2.50505
2.45386
2.5066
1.82114
2.01245
-0.897048
2.17836
1.94603
0.0919498
1.99718
-0.796988
2.75352
-0.265157
0.864419
1.99241
1.89801
1.87773
2.51085
0.586658
2.15293
2.05879
2.21986
1.99866
2.02988
2.0892
2.06942
2.11829
2.3017
2.4063
2.2254
2.03482
2.24863
2.36925
2.19589
2.24991
2.08706
2.00308
1.95167
2.65482
1.51748
2.10014
1.8457
1.78752
2.48617
2.21174
2.04593
2.14464
2.29117
2.19176
1.94086
2.12066
2.39499
2.03833
1.84366
-0.796194
2.54427
2.05299
2.38134
2.00659
-0.722776
0.216652
0.29394
-0.5168
-2.09493
0.2998
0.582863
0.0298113
-0.338201
-1.58287
-0.0824252
-1.31689
1.16988
-1.83958
1.07593
4.15521
-2.73305
-0.267188
-1.15415
-0.452125
-1.73183
-0.0250399
-2.43277
-1.83446
0.707209
0.759342
1.2228
1.30949
0.208667
1.34604
0.609761
0.91944
-0.970714
1.28603
0.158414
0.447889
1.61936
2.07501
-0.842409
0.635586
-0.217572
0.680513
1.74873
-0.53975
1.39345
0.400584
-0.281637
2.8906
0.75014
1.42355
2.64981
-1.39988
0.180891
-0.0223194
0.0273898
2.29415
-0.239257
-1.69082
0.215877
0.75075
0.889561
0.85264
1.1112
0.267621
2.59544
4.65406
2.81167
1.83057
2.37613
3.96334
2.23936
0.497725
3.90638
5.37291
4.29979
2.6915
2.09676
6.17919
1.21447
0.848106
2.78644
3.03236
2.75022
2.75758
2.90969
2.81212
2.69887
2.80689
2.33373
2.83887
2.58995
2.7941
2.37125
2.25673
2.64778
2.6284
2.07716
2.97203
1.59812
3.2803
1.79833
2.17635
2.01713
2.54349
4.94078
2.86634
2.76673
3.1473
0.378661
1.83415
2.38346
3.20715
2.50425
2.37517
2.40333
2.56467
2.52731
2.20192
2.5357
2.44092
2.2455
2.75074
2.41095
2.70088
2.76592
2.6203
2.72843
2.8022
-0.0121959
2.61498
0.950137
1.02774
5.88897
8.02999
1.75565
1.92422
2.74449
2.37679
1.13889
0.708951
0.820396
1.54028
0.268982
0.279223
1.20648
1.22819
1.29487
1.30412
1.22742
1.23201
1.26915
1.24923
1.21114
1.29446
1.27835
1.27972
1.22212
1.18532
1.25374
1.25024
2.41105
0.857458
1.02518
1.16757
0.98527
0.515667
0.782036
1.16481
3.48751
0.826035
1.07973
0.97739
1.55681
0.858954
0.753494
1.16179
1.20834
1.36402
1.33228
1.29339
1.26582
1.42721
1.33687
1.36177
1.26369
1.29716
1.33823
1.30757
1.26483
1.33286
1.27761
1.28434
0.412581
0.694748
0.0588921
0.840635
0.281753
0.129151
0.788315
0.515698
1.14369
1.69049
1.21885
1.79685
1.3098
1.42881
1.17176
1.42484
-0.271082
1.65589
0.483735
1.77109
0.469601
0.691437
0.781208
1.99794
1.38781
1.61348
2.13036
2.38618
1.9701
1.87629
1.92824
2.09355
1.35585
0.197211
1.1542
1.65271
1.7045
0.778681
1.2424
0.805013
1.42331
1.81686
1.99482
0.146989
1.54774
1.8224
1.42401
1.98193
0.835863
2.14457
1.79292
1.67738
1.01129
1.88421
2.00955
2.1218
0.887061
1.9961
1.7915
1.57637
1.6843
2.02625
1.23803
2.11899
1.29112
1.63388
0.470893
2.11367
1.6458
2.13189
1.14251
3.25256
2.59134
3.66204
4.08441
1.78299
3.77024
2.59046
4.12754
2.77486
0.774952
0.29051
1.26187
2.3967
1.93848
0.819381
2.46935
0.995474
1.78681
1.0084
1.53412
0.930961
1.40161
1.12243
1.29908
1.16982
1.91009
2.55571
1.51558
1.13083
1.39855
3.41131
1.31875
1.38539
2.36932
1.98373
1.35494
2.51289
1.14682
2.41212
1.00848
0.782019
1.7472
1.58255
1.02635
1.08795
1.37816
1.22528
1.11105
1.45191
4.06687
1.25358
1.87709
-0.858472
4.17014
1.87929
0.975728
2.48203
-2.60808
0.460927
0.231859
1.68534
9.74477
8.12704
0.895576
4.6355
5.80914
11.7713
1.58338
-0.124227
4.41223
4.83402
-1.85156
0.810982
0.726949
1.29513
1.4159
1.48752
1.56692
1.10747
1.36656
1.45609
1.54411
1.48662
1.87385
1.65572
1.60028
1.61454
1.70132
1.88173
8.64529
-0.719271
2.65618
3.04619
-0.963676
1.71519
1.05238
1.72842
6.58607
2.06584
1.17055
1.84339
3.96353
1.0395
1.4634
0.399534
2.14063
2.36764
2.31657
1.51044
1.18251
3.15043
1.48728
3.53796
1.19826
1.6113
3.23915
1.85381
1.42686
1.37309
1.21621
1.593
0.322173
-0.148726
0.677683
0.10086
0.123976
0.00759649
0.384721
0.216242
-0.0229352
-0.419449
0.37115
0.185979
0.194695
-0.110814
0.111834
0.0560388
0.280294
0.189745
0.200108
0.236634
0.178538
0.0296885
0.24254
0.218132
0.22422
0.0876785
0.246142
0.123269
0.211294
0.171644
0.193466
0.19095
0.0627913
0.0952328
0.0534271
0.088708
0.166291
-0.245156
0.0503718
-0.0568083
0.0238122
0.022506
0.115459
-0.148251
0.0535827
0.0022364
0.0259476
0.217385
0.215537
0.233967
0.185883
0.25645
0.226181
0.198973
0.200878
0.226437
0.194018
0.242524
0.173004
0.217725
0.220667
0.1165
0.18146
0.220852
-0.294166
-0.00122937
-0.0720153
0.0656661
-0.00822301
0.0286821
-0.106484
0.0702493
0.0546476
-0.098656
0.171021
0.732583
0.470761
0.281755
0.455349
0.388691
0.17788
0.156124
-0.179241
-1.14928
0.648894
0.462265
0.3329
-0.136951
0.264872
0.210395
-1.16487
-1.06372
0.35233
0.486329
-0.0457967
-0.378442
0.165292
0.180238
0.180267
0.732364
0.0753621
0.262359
0.399658
0.110286
0.113091
0.641771
0.31105
0.168799
0.292762
0.377308
0.137472
0.606223
0.18768
0.0900283
0.577559
0.182118
0.311467
0.1014
0.703176
0.592306
0.112071
-0.541939
0.494367
-0.0934807
0.581949
0.410012
0.438914
0.148073
-11.9444
-3.05075
-7.27991
1.96406
1.56313
-3.99683
3.65187
2.10047
-1.42554
-1.15602
0.819847
1.13028
-0.569073
-0.872012
0.144661
0.353413
-7.05899
0.642945
-2.33529
0.610643
0.681688
-1.54569
2.34145
-0.0243843
1.60733
-1.17474
-1.40992
-2.0223
1.20535
0.22496
0.658738
-1.24636
0.393136
1.69086
1.90845
1.91027
3.54932
3.61592
0.0582547
0.0869204
-0.683509
1.54998
0.996006
-3.64868
1.06887
0.0720561
-2.6747
0.864937
4.5106
1.75561
0.411185
1.13895
1.09503
1.25195
1.58028
1.46441
3.47819
0.725896
-1.10226
1.34822
4.17367
0.901224
2.99316
0.552034
-4.45695
0.0696661
-0.660198
-4.06936
0.0596856
-0.0205031
-1.32828
0.122125
-0.483681
-11.7918
-13.6975
-7.10754
5.65208
-0.561938
0.809195
-8.59374
0.0728812
-12.6223
-1.84592
0.326383
2.58755
0.14811
0.229191
-4.33506
-3.04023
-3.73833
-0.0550953
-1.16023
-0.168902
-0.116771
-0.697847
-1.25726
2.46029
1.96744
0.883165
2.65269
0.812569
3.20417
-1.15569
0.972801
1.29728
0.85951
-0.1191
2.6811
-0.69404
1.1572
0.00744518
5.10002
1.44561
-0.712832
1.45551
0.118884
0.23069
-0.0892629
-0.910798
2.61714
1.17005
1.46512
-2.3755
-7.93662
2.31617
0.36716
1.12138
-9.04882
-6.37065
-16.9117
-7.62109
-2.22061
3.27755
-8.87539
12.0598
4.3247
-17.6432
-4.23751
-0.630575
-0.339348
2.55084
-5.37311
5.70297
3.07496
-2.22724
-0.0141827
-0.690366
-0.339383
1.31026
-1.54067
2.43408
1.08268
1.21406
-0.0547201
0.0359969
-1.90622
1.31141
0.934592
1.70411
0.636933
2.69039
2.42531
2.24423
2.12002
8.78158
2.98797
-0.0637323
1.36187
-11.4125
0.629
-1.06558
-2.04663
3.609
1.63804
-8.01949
2.04112
4.8186
3.42089
2.40143
-0.075067
-0.527635
1.21468
0.646393
0.968009
3.16524
0.227167
1.9034
0.567446
4.64824
-0.56842
0.936029
0.627696
-0.0795483
-0.532968
0.164464
2.29237
1.96398
1.11566
2.17035
1.44041
-1.22947
0.549383
0.800674
-2.05609
2.79956
1.42179
3.05373
-0.616964
0.40312
0.272599
-3.72512
-16.6069
7.02403
3.24969
3.11121
-5.99597
2.65185
-9.33151
-18.6614
-19.5263
11.8981
5.47786
3.21294
-9.32594
2.11656
3.45269
2.5146
5.54099
1.8194
2.20501
0.399133
2.02411
0.40374
4.62867
1.89014
2.72719
-1.64976
1.89393
1.12687
1.4521
2.39522
1.73684
3.73837
0.564459
1.62029
1.89062
8.36644
2.09713
0.510283
-10.4672
-1.55683
1.21809
1.69388
3.61634
2.52638
-7.67813
1.1404
4.10865
0.59341
0.4291
0.156188
5.90548
-2.64665
-0.855942
1.87827
0.617863
0.918277
-0.391548
0.390995
1.12411
0.691718
0.653408
0.629792
0.870836
0.746476
0.795104
0.790481
0.89853
0.888175
0.828875
0.760733
0.858668
1.00572
1.4257
0.891295
0.858471
1.31078
1.04212
-1.9367
0.36646
-0.430662
-0.225236
0.384741
0.514629
0.199451
0.40607
1.83996
-0.203746
0.939551
0.509223
0.265031
0.461177
0.502337
0.712437
0.57107
0.392447
0.703274
0.790859
0.63425
0.478269
0.582035
0.651694
0.567124
0.790839
0.558437
0.775577
0.695547
0.748154
0.752161
0.753326
-0.428843
-0.00686537
-0.0841848
-0.213384
-0.273055
-0.15214
-0.201755
-0.130462
0.110531
0.0998085
0.0874075
0.110397
0.101322
0.0952222
0.0944362
0.0995175
-0.026245
0.0309035
-0.0738963
0.0337939
0.00300537
-0.0310267
-0.0231895
-0.0766538
-0.0783449
0.0786075
0.173923
-0.0883309
-0.0912942
-0.0704708
-0.0597197
-0.188452
0.023999
-0.0331742
-0.15413
0.0591089
0.0239923
-0.0384644
0.0299067
-0.0556752
0.0499626
0.0611994
0.077626
0.0567611
0.0473769
0.0661131
0.0795242
0.0820436
0.0102002
-0.120373
0.035492
0.157629
0.0422123
-0.0491931
0.150499
-0.0866117
0.0727832
0.0614911
0.0440948
0.0740878
0.0903173
0.0959332
0.0863558
0.087007
-0.672004
-1.46772
2.2758
0.692032
5.42105
-2.00456
-0.109987
0.816367
-0.661956
2.15094
0.782006
0.887166
-0.536617
1.04539
0.340267
2.3445
2.10316
2.20112
2.08391
2.06426
2.0962
2.08586
2.17289
2.16639
0.926244
1.14282
1.96119
1.43694
1.81353
1.6938
1.34991
1.82361
3.07263
2.06601
2.51557
2.23683
-1.51389
-0.255515
1.36356
1.29988
2.93954
2.70116
1.74173
1.2983
2.45424
1.22647
1.64355
2.17347
1.85216
0.972239
1.38746
1.94849
2.31081
1.93273
2.17872
1.40757
1.8882
1.99725
2.99228
2.34217
2.31819
1.95864
2.11596
1.86717
1.50796
2.65734
1.99472
2.12074
2.32532
2.47405
2.44323
2.11024
2.5211
2.58282
2.35953
2.62029
2.709
2.5958
2.5731
2.44957
2.16574
2.16815
2.0782
2.03523
2.2718
2.14433
2.15601
2.05832
3.65334
2.40348
2.49741
2.79767
2.6562
2.30238
2.50218
2.4127
2.76766
2.14651
2.72337
2.63333
2.54948
2.4348
2.66615
2.42922
2.514
2.59651
2.34223
2.00954
2.50298
2.51035
2.3891
2.41786
2.44918
2.91913
2.44704
2.5409
2.69424
2.42611
2.66796
2.23931
2.06207
2.1313
2.49849
2.21053
2.11882
2.22786
2.2681
2.26904
0.51655
0.992418
0.990012
0.991234
0.702379
0.889823
0.845413
1.01952
1.29011
1.44077
1.38326
1.45918
1.37702
1.38283
1.3905
1.40709
1.2279
1.34754
1.36055
1.44704
1.31688
1.31862
1.37864
1.36433
1.32894
1.48
1.52209
1.58413
1.39318
1.44526
1.48352
1.5
1.08771
1.12865
1.12879
1.35406
1.1822
1.13996
1.27216
1.23367
1.24163
1.39777
1.31492
1.19969
1.28335
1.34794
1.22172
1.30937
1.22634
1.27396
1.4056
1.44228
1.2953
1.28605
1.37491
1.38917
1.26472
1.43353
1.43114
1.34272
1.3226
1.38875
1.34423
1.42969
0.564375
0.939617
1.07239
1.07575
0.735829
0.889336
0.901157
1.00514
1.30773
1.58851
1.53744
1.48263
1.40884
1.47658
1.44856
1.52764
1.40043
1.5466
1.6389
1.5865
1.43222
1.4636
1.59416
1.57867
1.28886
1.43003
1.49912
1.41489
1.34279
1.38668
1.41898
1.46325
1.16836
1.14848
1.1698
1.37897
1.24856
1.1498
1.27395
1.24783
1.27099
1.41302
1.42362
1.31223
1.309
1.4122
1.29044
1.39271
1.31086
1.27668
1.43588
1.52838
1.36072
1.30742
1.41739
1.40977
1.34296
1.54672
1.46946
1.52356
1.44744
1.47289
1.4713
1.53052
1.30387
1.44
1.52162
1.34956
1.32405
1.41479
1.37531
1.44458
1.60486
1.83938
1.88489
1.74939
1.68203
1.79681
1.73209
1.83097
1.71751
1.90538
1.90992
1.79162
1.77565
1.85524
1.8028
1.87316
1.43948
1.64683
1.66953
1.53486
1.50341
1.59734
1.54512
1.63974
1.48628
1.56542
1.39906
1.59858
1.53934
1.50905
1.52109
1.49369
1.58369
1.69992
1.84042
1.63375
1.61597
1.68701
1.67835
1.7384
1.59945
1.45117
1.63634
1.69024
1.58485
1.52993
1.6478
1.5992
1.66113
1.75408
1.73873
1.86201
1.74214
1.72957
1.77797
1.76645
1.61529
1.19424
1.40428
1.68524
1.60128
1.57161
1.65094
1.61026
4.79555
13.0001
7.67009
1.15414
2.81616
12.2589
-0.265751
7.48648
0.201067
3.02153
2.95835
0.786836
1.98314
4.97088
0.602067
7.82897
1.82761
1.67772
1.50401
1.90138
1.78172
1.71498
1.78292
1.73756
1.93279
1.34254
1.73793
1.43202
1.7766
1.59584
1.86601
1.76219
2.07229
0.0953612
10.6821
0.193498
2.89901
1.16631
1.57222
2.73005
1.48706
1.74304
1.12706
1.35755
1.66088
1.81873
1.34097
1.48799
1.10999
0.69719
0.976974
9.65819
0.499777
0.662735
0.000254289
0.674931
1.19991
2.0615
-1.4186
3.08603
1.85675
-3.57715
-0.0449076
-2.47222
2.68821
2.56066
3.14324
2.56697
2.64124
2.00881
2.67732
2.40554
-0.406625
-8.90211
1.70933
2.68537
0.70834
-2.38803
4.40814
1.19792
3.31883
2.27622
1.44315
2.1218
3.02647
2.49123
1.21682
2.1694
2.45389
1.61452
3.85095
1.98952
2.28384
0.619388
2.26377
1.04207
1.89646
2.15446
-0.981614
4.23468
2.29945
2.42544
2.32798
2.29928
0.552247
-0.355945
1.90532
1.81798
-1.57188
0.266727
1.23622
3.44394
0.710455
1.18894
1.68084
-0.371088
-0.0918559
1.18882
0.994244
1.56022
1.51416
1.45351
1.5137
1.4125
1.48478
1.49145
1.47073
1.4706
1.36351
1.22904
1.27524
1.1811
1.30082
1.29392
1.27221
1.24829
1.49199
1.33071
1.42547
1.27681
1.40918
1.41489
1.38159
1.37059
1.31408
1.17103
1.21771
1.22387
1.25888
1.23216
1.23745
1.1915
1.40813
1.4632
1.3719
1.27005
1.38099
1.41481
1.32104
1.35929
1.40399
1.24454
1.34856
1.46617
1.37191
1.31432
1.42613
1.34828
1.44385
1.35039
1.22923
1.27326
1.38491
1.33046
1.30206
1.27077
1.4335
1.24187
1.19349
1.30211
1.3617
1.29583
1.32219
1.22776
4.72766
1.96265
4.80454
3.53742
-3.80504
1.21468
2.49798
1.57716
1.8345
1.91128
1.88121
1.9646
2.00763
1.92358
1.95899
1.87096
1.52547
1.68637
1.66736
1.60323
1.57807
1.56482
1.6354
1.61693
1.83825
1.85779
1.86385
1.63439
1.99695
1.96144
1.84852
1.81491
2.47483
1.97414
2.05887
2.16305
2.36703
1.9232
2.1404
2.27509
2.20209
2.00117
1.84927
2.12348
2.10895
2.00381
1.92499
1.87143
1.69764
2.16677
2.06996
1.96216
1.92952
2.10754
1.89696
1.97502
1.87342
1.80012
1.94259
1.80909
1.84204
1.88468
1.90864
1.85887
-1.46473
0.258947
-3.18886
0.0164526
1.83129
-1.18176
2.28086
-2.37918
-0.450872
-1.88604
-2.19788
-0.590834
-1.29713
-1.00446
0.0518467
-2.57514
-2.58884
-0.713708
-0.970563
0.019409
0.0579554
-1.54731
1.94871
-1.14422
0.898581
1.04858
0.605001
0.613085
1.34455
0.782562
1.5388
0.763039
0.19731
0.694678
1.63372
0.72464
1.33786
0.133859
1.22086
0.326362
1.48121
0.430665
-1.77489
-1.79337
0.297981
1.34553
0.985104
0.00751393
1.79701
1.87487
1.28837
1.55519
-0.42901
-0.124003
1.35572
1.58436
-2.64305
0.454035
0.0225538
-2.78463
0.585654
0.481951
0.848453
0.216256
0.118113
-0.0507577
0.0280489
0.580841
-0.23288
-0.286634
-0.00045104
-0.28397
-0.128118
-0.399514
-0.276584
0.0440095
-0.15837
-0.23372
-0.175305
-0.279425
0.307335
-0.147551
-0.0996765
-0.609686
-0.142479
-0.0777304
-0.0883625
-0.108301
0.421608
0.21786
1.14975
0.504882
-0.160674
0.516278
-0.204217
0.931222
-0.496731
0.147129
-0.952231
-0.101636
-0.570654
-0.0907231
0.0666884
-0.286479
-0.133965
-0.319198
-0.232985
0.072353
-0.0812385
-0.337026
0.0157388
-0.294364
0.0527354
-0.463531
-0.377387
-0.258043
0.341834
0.537566
-0.521635
0.601199
0.160255
0.156418
-0.180762
-0.241055
-0.144168
-0.290447
-0.341438
-0.420939
1.3656
1.43744
1.32583
1.30387
1.38424
1.40538
1.32808
1.37651
1.4756
1.49143
1.45858
1.44854
1.47107
1.47628
1.44057
1.45871
1.3383
1.42771
1.40966
1.27006
1.36425
1.41222
1.33022
1.4017
1.26313
1.37294
1.22025
1.24884
1.28732
1.31192
1.23408
1.27808
1.44455
1.35198
1.32197
1.39985
1.40078
1.37274
1.39678
1.34993
1.4572
1.4097
1.44116
1.39752
1.42473
1.42362
1.40927
1.41397
1.30396
1.28057
1.35545
1.24906
1.26863
1.31637
1.29776
1.32386
1.3622
1.30603
1.38028
1.41515
1.36166
1.32963
1.37731
1.38087
-1.79132
0.00208966
-0.130654
0.558531
-1.16426
-1.82873
0.0159245
-0.173261
0.443434
-0.450913
-1.45234
0.744495
1.8513
0.503577
0.994044
0.54816
0.715386
0.0653693
-0.0422811
0.581512
0.376661
1.23105
0.389051
0.637692
0.54594
0.714876
1.13408
1.39819
1.07417
0.440274
0.564675
0.488112
-0.0186198
0.382126
0.545692
0.631251
0.173343
0.353002
0.533482
0.100637
-1.13416
1.0748
0.283798
-0.256725
0.15883
0.602162
-0.0981827
1.27407
0.821
0.149195
0.139759
0.862234
0.378785
0.314816
1.02191
0.189063
0.648931
0.844278
0.494335
0.960307
1.09267
1.21061
0.700843
1.0573
3.76682
2.74257
2.69268
2.65521
2.50169
1.55474
-0.695312
0.612426
1.25744
0.32658
-0.162158
2.25551
0.934784
1.517
0.553612
1.05476
0.806231
0.718062
1.56007
0.900575
0.848752
0.802059
1.23419
1.52019
1.81643
2.4839
3.41905
2.97927
1.9151
2.88879
2.90169
2.03243
2.18487
1.28241
2.2919
1.28473
0.79481
1.75225
1.70418
1.80631
2.18785
1.91663
0.153356
1.10473
0.293842