/*--------------------------------*- C++ -*----------------------------------*\
| =========                 |                                                 |
| \\      /  F ield         | OpenFOAM: The Open Source CFD Toolbox           |
|  \\    /   O peration     | Version:  2506                                  |
|   \\  /    A nd           | Website:  www.openfoam.com                      |
|    \\/     M anipulation  |                                                 |
\*---------------------------------------------------------------------------*/
FoamFile
{
    version     2.0;
    format      ascii;
    arch        "LSB;label=32;scalar=64";
    class       volVectorField;
    location    "200";
    object      U;
}
// * * * * * * * * * * * * * * * * * * * * * * * * * * * * * * * * * * * * * //

dimensions      [0 1 -1 0 0 0 0];

internalField   nonuniform List<vector> 
46720
(
(-0.00273665 -0.0897249 1.54877)
(0.0125046 -0.107613 1.46072)
(0.0395388 -0.0821603 1.65885)
(0.00571921 -0.0768237 1.31916)
(0.000928462 -0.086646 1.50145)
(0.0223715 -0.122646 1.60227)
(0.0026643 -0.0911046 1.46016)
(0.00249303 -0.120594 1.55102)
(0.0199335 -0.0513791 1.17594)
(0.0319871 -0.0310003 1.13185)
(0.00808105 -0.0707455 1.18561)
(0.0155314 -0.0241478 1.10614)
(0.0252171 -0.0269342 1.11677)
(0.00955817 -0.0404838 1.17732)
(0.0340104 -0.0343129 1.11454)
(0.0130455 -0.0379449 1.13232)
(0.0333641 -0.16683 1.64076)
(0.0351146 -0.198734 1.39207)
(0.108985 -0.243594 1.74545)
(0.0431474 -0.336843 1.38955)
(0.0326889 -0.222156 1.60251)
(0.0416351 -0.0822174 1.59785)
(0.0358052 -0.30751 1.58855)
(0.0614742 -0.191574 1.56152)
(-0.00605798 -0.0314454 1.12454)
(0.0138624 -0.0269933 1.09104)
(0.00269843 -0.115593 1.17212)
(0.00564563 -0.0069599 1.09743)
(0.0170955 -0.0631861 1.141)
(0.00842483 -0.0853254 1.14039)
(0.0135963 -0.0583218 1.13409)
(0.00659895 -0.0711136 1.11629)
(0.00117091 -0.0913059 1.29938)
(0.00741983 -0.146899 1.57991)
(0.00666639 -0.0991901 1.31592)
(-0.000976389 -0.0758683 1.14483)
(0.00912645 -0.14334 1.38458)
(-0.00665637 -0.16686 1.46177)
(-0.00903551 -0.0649443 1.1126)
(0.0124863 -0.149297 1.28339)
(0.0513852 -0.0584808 1.29583)
(0.0196157 -0.0408766 1.16053)
(0.0104746 -0.0419989 1.20879)
(0.0408131 -0.163237 1.57561)
(0.01806 -0.0860893 1.28869)
(0.0406818 -0.0403373 1.09142)
(0.0366025 -0.131943 1.53413)
(0.0256792 -0.0832401 1.26437)
(0.0120167 -0.122445 1.56232)
(0.0179922 -0.0823496 1.32098)
(0.00262587 -0.131057 1.11534)
(0.0732211 -0.162159 1.34286)
(0.0349073 -0.129699 1.42817)
(-0.00093266 -0.117029 1.30844)
(-0.0234879 -0.149101 1.31436)
(-0.0172227 -0.156664 1.16694)
(0.0339655 -0.179561 1.58531)
(0.0171855 -0.165782 1.26327)
(0.0257952 -0.0695273 1.11068)
(0.0150589 -0.0511767 1.19582)
(0.0489225 -0.207837 1.50523)
(-0.0435762 -0.154816 1.28825)
(0.0498122 -0.133342 1.36615)
(0.0653278 -0.132571 1.17058)
(0.00583606 -0.0431789 1.52098)
(0.00411585 -0.0170459 1.54458)
(0.0189825 -0.0986454 1.39046)
(0.0282891 -0.0735878 1.34435)
(0.00932387 -0.0111681 1.51842)
(0.0253084 -0.0300559 1.53885)
(0.016584 -0.0702354 1.47925)
(-0.0126969 -0.0424967 1.49076)
(-0.00908465 0.0159264 1.52791)
(-0.00783429 0.0620434 1.50041)
(0.0248079 0.00278852 1.43208)
(0.0189147 -0.0151573 1.41745)
(-0.0207964 0.0231625 1.50864)
(0.0162305 0.0605201 1.53631)
(0.0109078 -0.00680714 1.48184)
(0.0134599 -0.00816388 1.45663)
(0.0299784 -0.0406275 1.15068)
(0.0350819 -0.0239847 1.18805)
(0.0282642 -0.0307073 1.13045)
(0.022119 -0.0226776 1.10213)
(0.0253064 -0.0369108 1.13928)
(0.0199588 -0.0447346 1.14568)
(0.0311149 -0.00483229 1.09907)
(0.0151323 0.0101037 1.11455)
(0.032604 -0.0634547 1.13651)
(0.0159655 -0.0538992 1.19151)
(0.0192486 -0.0443394 1.10748)
(0.0250728 -0.0275102 1.103)
(0.0245702 -0.0515228 1.15805)
(0.0168835 -0.051565 1.15422)
(0.0200899 -0.0475397 1.12745)
(-0.00677146 -0.0166513 1.13128)
(0.00697031 -0.0120818 1.55457)
(0.013891 -0.0871609 1.40147)
(0.0283743 -0.0466712 1.35395)
(0.01478 -0.0186341 1.39186)
(-0.00268253 -0.0346717 1.49306)
(-0.0069079 -0.0573278 1.4546)
(0.0196641 -0.0393539 1.3873)
(0.0176883 -0.0321557 1.36235)
(0.00499132 0.00894459 1.54793)
(0.00949364 -0.0229587 1.38987)
(-0.026583 -0.0490807 1.3676)
(-0.00224094 -0.08855 1.38629)
(-0.000388369 -0.0275942 1.46865)
(0.0112631 -0.0336185 1.45727)
(0.0204045 -0.0521231 1.4063)
(0.0139255 -0.0266909 1.43303)
(0.0272977 -0.0678084 1.25811)
(0.0221003 -0.0538549 1.28575)
(-0.0126233 -0.0298506 1.30262)
(-4.84261e-05 -0.0652571 1.13288)
(0.0325343 -0.0821804 1.15358)
(-0.0266085 -0.0364027 1.32146)
(0.0152404 -0.046339 1.13448)
(-0.0124271 -0.0468662 1.24685)
(-0.00397818 -0.049678 1.32699)
(-0.0146385 -0.0211649 1.13078)
(-0.00898774 -0.0277856 1.24929)
(0.0145246 -0.0236231 1.25821)
(0.0106116 -0.0367124 1.24803)
(0.00168558 -0.0367819 1.11912)
(0.0162405 -0.0541533 1.33201)
(0.0163432 -0.0571769 1.18875)
(0.00728469 0.0329791 1.05465)
(0.00516639 0.0179932 1.07413)
(0.00539441 0.031973 1.07594)
(0.00835576 0.0152137 1.05988)
(0.00715324 0.0319816 1.05344)
(0.00853949 0.0297307 1.06519)
(0.00451281 0.0224797 1.05207)
(0.0061498 0.0240962 1.05843)
(0.0136752 0.00767802 1.09235)
(0.0307304 -0.00149084 1.10027)
(0.0122126 -0.00337329 1.07638)
(0.0176859 -0.00683619 1.06623)
(0.0186533 0.00353554 1.08781)
(0.0264858 0.00241078 1.09398)
(0.00528211 -0.00587659 1.06798)
(0.0146227 -0.0101677 1.07488)
(0.0112048 0.0122734 1.07718)
(0.00864723 -0.00506662 1.06177)
(0.00995865 0.00700393 1.05309)
(0.00743348 -0.00538481 1.04173)
(0.0116524 0.00119132 1.06029)
(0.0227115 0.000222893 1.07552)
(0.00218414 -0.00201254 1.0452)
(0.00729283 -0.0084051 1.04851)
(0.00886177 0.000801682 1.04389)
(0.0155472 -0.00426836 1.04291)
(0.00702826 -0.00550655 1.02979)
(0.0120895 -0.00342523 1.02678)
(0.00822501 -0.00284104 1.03758)
(0.0143871 -0.0020448 1.04118)
(0.00436087 -0.0037114 1.02581)
(0.00940566 -0.00599442 1.02808)
(0.00663029 0.0178853 1.07205)
(0.00632124 0.0211967 1.06087)
(0.00654294 0.0114267 1.05046)
(0.00799063 -0.0020026 1.0594)
(0.00713228 0.00466153 1.0575)
(0.00639461 0.0185334 1.05217)
(0.00972707 -0.00114889 1.06627)
(0.0135055 0.00787771 1.0577)
(0.0103231 0.0130829 1.08746)
(0.01684 -0.00305262 1.06375)
(0.0154009 -0.00294427 1.08272)
(0.0128215 0.0200515 1.07815)
(0.00393346 0.0037845 1.06898)
(0.00849088 -0.00279781 1.06887)
(0.00872185 0.00867996 1.07559)
(0.00817318 -0.00136367 1.06734)
(0.00432235 0.00979236 1.05263)
(0.00207692 0.00336919 1.041)
(0.0075024 -0.00580904 1.04315)
(0.00418459 -0.00323426 1.03212)
(0.00784114 0.00546889 1.0505)
(0.00839919 0.00294164 1.04524)
(0.00927767 -0.000521419 1.04393)
(0.00871665 -0.00294622 1.04378)
(0.00663353 0.00473504 1.06132)
(0.00862458 -0.0085418 1.03525)
(0.0110942 -0.00958243 1.04882)
(0.00509836 -0.0162346 1.05922)
(0.0108579 -0.00138962 1.05681)
(0.0133482 -0.000988654 1.05454)
(0.00378276 -0.00764106 1.05291)
(0.0102912 -0.0101016 1.05013)
(-0.0158103 0.05983 1.53568)
(-0.00252375 0.0862401 1.60821)
(-0.00157225 0.132326 1.40196)
(0.0189157 0.0944951 1.40582)
(-0.0436723 0.0611967 1.5469)
(0.00374351 0.100352 1.5923)
(-0.018659 0.177539 1.45001)
(-0.0278747 0.17786 1.4909)
(0.0320509 0.146793 1.65803)
(0.0845167 0.250508 1.67961)
(-0.0279366 0.108532 1.30521)
(0.0185019 0.217868 1.37603)
(0.0200488 0.214603 1.65114)
(0.075776 0.21775 1.64492)
(0.00208424 0.229376 1.48461)
(-0.0164002 0.221579 1.45229)
(-0.00861824 0.0160893 1.19026)
(0.00354108 0.0294637 1.167)
(-0.00168958 0.0105548 1.12561)
(-0.0139948 0.0159053 1.08473)
(0.00528012 0.0218894 1.18412)
(-0.000627042 0.0148529 1.173)
(-0.00313847 0.00619631 1.11214)
(0.00193663 0.0175223 1.12092)
(0.0149801 0.0599533 1.18526)
(0.0148476 0.0907607 1.17938)
(-0.00471866 0.0443903 1.08773)
(0.0168078 0.0235569 1.08961)
(0.0163329 0.0709085 1.17651)
(0.0237376 0.0760776 1.16088)
(0.00538112 0.0323966 1.09766)
(-0.00594742 0.0554544 1.09578)
(-0.0189302 0.129375 1.58319)
(-0.0019132 0.120504 1.35225)
(0.0270935 0.121194 1.39551)
(0.0234293 0.144192 1.36678)
(-0.0319056 0.213856 1.45012)
(-0.0160537 0.202343 1.44848)
(0.0263892 0.163336 1.40623)
(0.0313172 0.111173 1.39316)
(0.0386256 0.144684 1.64238)
(0.0120499 0.177774 1.37979)
(-0.0378468 0.0796049 1.3217)
(0.00329784 0.108692 1.33779)
(-0.0128101 0.184639 1.51661)
(0.0016354 0.22726 1.43054)
(-0.011541 0.137516 1.3911)
(-0.00371098 0.115163 1.30139)
(-0.0211858 0.0737745 1.22727)
(0.0142225 0.0963303 1.21881)
(0.00841266 0.115191 1.23337)
(-0.00256186 0.0420431 1.10217)
(-0.00131813 0.0789937 1.21611)
(0.00971543 0.102101 1.21677)
(-0.0110834 0.0797336 1.21639)
(0.0104783 0.102807 1.21722)
(-0.0246145 0.0634829 1.21054)
(-0.00563594 0.0396781 1.08987)
(0.00314716 0.119017 1.21597)
(-0.019329 0.0315159 1.16539)
(-0.0241069 0.0451623 1.19072)
(-0.021943 0.0687926 1.20569)
(-0.0195511 0.0393496 1.19183)
(-0.0195323 0.0816527 1.21011)
(-0.0811581 0.00863879 1.42419)
(-0.0239152 0.0186903 1.49885)
(-0.0362685 -0.050794 1.36241)
(-0.0238354 0.0686892 1.40231)
(-0.0398416 0.0150611 1.50022)
(-0.0364598 0.0254997 1.46769)
(-0.0430701 0.049071 1.38135)
(-0.0436749 0.0433507 1.38147)
(-0.0032656 0.0260041 1.51384)
(-0.0102108 0.0326724 1.53879)
(-0.033043 0.0860853 1.36944)
(0.00576852 0.0988021 1.40658)
(-0.0107974 0.0482084 1.5331)
(-0.00602902 0.044636 1.53034)
(-0.0253689 0.135936 1.41408)
(-0.0251363 0.144679 1.43376)
(0.00893542 -0.00331786 1.2012)
(0.00606833 0.0390995 1.19589)
(0.000503502 0.00996487 1.12752)
(-0.0115287 0.0154225 1.08579)
(0.00678202 0.0176805 1.19049)
(0.00163461 0.0103471 1.19884)
(-0.000431866 0.00185228 1.11759)
(-0.00501657 0.00842272 1.114)
(0.0140844 0.0580341 1.20452)
(0.0148143 0.0627099 1.18871)
(-0.00653935 0.041429 1.09133)
(0.00753606 0.0290141 1.09109)
(0.0157155 0.0606821 1.20335)
(0.0123758 0.0639511 1.19666)
(-0.00157208 0.0314343 1.10293)
(0.000560366 0.0372226 1.09834)
(-0.0118915 0.0444324 1.52415)
(-0.0444046 0.013592 1.34754)
(-0.0157188 0.0784156 1.4107)
(0.00244178 0.0944537 1.41336)
(-0.0363881 0.0913049 1.3941)
(-0.0451926 0.0948509 1.38509)
(-0.00113292 0.0885905 1.41678)
(-0.0167377 0.0841581 1.39693)
(-0.0110514 0.0388519 1.52581)
(-0.00200457 0.0997764 1.40936)
(-0.0429624 0.0671054 1.3686)
(-0.0435206 -0.01001 1.36552)
(-0.0367167 0.098178 1.41012)
(-0.021314 0.122777 1.4202)
(-0.0554924 0.0434482 1.35485)
(-0.0330606 0.0577568 1.3728)
(-0.011222 0.0205591 1.22493)
(-0.00603072 0.0626319 1.23514)
(-0.00156698 0.0774639 1.22263)
(-0.00703586 0.0295334 1.10616)
(-0.00801855 0.0440933 1.21926)
(-0.00360712 0.0646079 1.23118)
(-0.00309509 0.0668793 1.21843)
(0.000921905 0.0799829 1.22846)
(-0.00956674 0.0285656 1.22423)
(-0.00710074 0.0341566 1.0986)
(0.00579139 0.0798055 1.21823)
(-0.0124615 0.061369 1.22451)
(-0.00976939 0.0473917 1.23088)
(-0.00822993 0.0534774 1.21521)
(-0.0146634 0.0580028 1.22777)
(-0.00594962 0.0775647 1.20599)
(0.00765854 0.0379418 1.04674)
(0.00535857 0.0252041 1.03801)
(0.00593783 0.0228475 1.07146)
(0.00367498 0.0147759 1.04561)
(0.00671547 0.024258 1.04883)
(0.00891794 0.0249223 1.04489)
(0.00611067 0.0228123 1.05185)
(0.00568362 0.028169 1.04086)
(0.00284025 0.0174008 1.02623)
(-0.00225317 0.0115967 1.02349)
(6.72867e-05 0.0133851 1.04292)
(-0.00162141 0.00853275 1.02793)
(0.00165368 0.0123945 1.02692)
(-0.000914679 0.0115504 1.02422)
(0.000189664 0.0103753 1.02999)
(-0.0032646 0.0125975 1.02758)
(0.013501 0.0196311 1.08677)
(0.00838894 0.0126478 1.07277)
(0.0224857 -0.00575115 1.10898)
(0.0129571 -0.00135313 1.06533)
(0.012801 0.0068963 1.08102)
(0.0127969 0.00652588 1.0758)
(0.0155337 0.000289911 1.07494)
(0.0142106 0.00921576 1.06988)
(0.00386422 0.00152621 1.03819)
(0.00366026 0.00274301 1.02964)
(0.0122126 -0.0010315 1.04243)
(0.0101763 -0.000872725 1.02901)
(0.00373662 8.80751e-05 1.03579)
(0.00433128 0.00119778 1.03596)
(0.00963356 -0.00127938 1.03137)
(0.00883386 0.00265334 1.03244)
(0.00578393 0.0180844 1.0338)
(0.00688727 0.0109862 1.0698)
(0.00364171 0.0107 1.04262)
(0.000848233 0.00714891 1.03399)
(0.00376263 0.0153585 1.038)
(0.00582662 0.0174306 1.04202)
(0.00119206 0.0101518 1.03602)
(0.0041804 0.0103542 1.04308)
(0.00466588 0.0161151 1.03317)
(0.000465276 0.00750587 1.03444)
(0.00231799 0.0111698 1.04865)
(0.00680999 0.0133213 1.0606)
(0.00136952 0.0174365 1.03302)
(0.000197561 0.0116766 1.03418)
(0.00461213 0.0160156 1.05699)
(0.00363315 0.00984385 1.05154)
(0.00842351 0.00644211 1.06452)
(0.00585833 0.00860797 1.04322)
(0.00299867 0.00584693 1.03453)
(0.0109495 -0.000892722 1.04917)
(0.008967 0.00133063 1.05692)
(0.00531177 0.010914 1.03931)
(0.00445346 -0.00150703 1.05246)
(0.00214884 0.00577229 1.03907)
(0.00721489 0.0167457 1.05433)
(0.00912497 0.00438734 1.04973)
(0.00140756 0.00795157 1.03193)
(0.00198653 0.0140069 1.04482)
(0.00562403 0.0107933 1.05704)
(0.0052826 0.000799061 1.05405)
(0.00382337 0.00844749 1.05149)
(0.00120329 0.0033982 1.04366)
(0.00452321 0.0075156 1.08233)
(-0.00382312 0.0171577 1.0571)
(0.00751525 0.0123418 1.04068)
(-0.001456 0.000861565 1.04937)
(-0.0057707 0.00662638 1.06356)
(0.000380543 0.0137465 1.06384)
(0.00206341 0.00401543 1.04729)
(0.00655708 0.0106996 1.04127)
(0.00303454 0.0249324 1.04806)
(0.0117819 0.014304 1.04704)
(0.00399133 0.0176066 1.02743)
(0.00286645 0.00946181 1.03272)
(0.00806344 0.012157 1.04383)
(0.00874315 0.0177217 1.04278)
(0.00254422 0.0115457 1.0315)
(0.00341137 0.0132189 1.02935)
(0.00697473 0.0100297 1.0183)
(0.00338747 0.0114736 1.01182)
(0.00385495 0.00376512 1.00301)
(0.00650403 0.00493315 1.00936)
(0.00338112 0.00706819 1.01196)
(0.00402735 0.00784054 1.00958)
(0.00562373 0.00469746 1.00782)
(0.00453751 0.00432949 1.00447)
(0.000134169 -0.000443023 1.03197)
(0.00233525 0.00298613 1.02462)
(0.00508568 0.00315415 1.01662)
(0.00298585 -0.0014082 1.01955)
(0.000426706 0.00195391 1.02622)
(0.00042167 0.00272601 1.02659)
(0.00350963 -0.00113034 1.01887)
(0.00486195 0.0013193 1.01752)
(-0.0023634 0.0162069 1.05237)
(0.00225091 0.0121817 1.03167)
(-0.00295562 0.00539936 1.04199)
(0.000187998 0.00596316 1.03374)
(0.0006104 0.0105834 1.03916)
(-0.000863892 0.0101686 1.03725)
(-0.000377921 0.0103494 1.03945)
(-0.00214843 0.00710895 1.04312)
(-0.000487637 0.0192836 1.05004)
(0.00165537 0.00928983 1.03433)
(0.00276864 0.0147781 1.02433)
(0.00382621 0.0137757 1.03124)
(0.0030607 0.0144398 1.03311)
(0.00149617 0.010222 1.0305)
(0.00258192 0.0161113 1.03276)
(0.00177766 0.0142687 1.02807)
(0.00550744 0.00798235 1.02421)
(0.00199525 0.00105772 1.03095)
(0.0026777 0.00522499 1.024)
(0.00574575 0.00340235 1.01496)
(0.00451841 0.00722366 1.0287)
(0.00551372 0.00707944 1.02854)
(0.00290565 0.00714404 1.0212)
(0.00188328 0.00558206 1.02283)
(0.00597883 0.00939875 1.01824)
(0.00634563 0.00413711 1.01259)
(0.0030425 0.00665098 1.02227)
(0.00366133 0.00934025 1.01413)
(0.00294313 0.00770917 1.01494)
(0.00380251 0.00744582 1.01907)
(0.00342902 0.00843501 1.01787)
(0.00303652 0.00901226 1.02117)
(0.0025954 0.0016938 1.00126)
(0.00907181 0.00929992 1.00986)
(0.00191626 0.00324917 1.00001)
(0.00389359 0.00918634 1.0072)
(0.00209071 0.00588615 1.0068)
(0.00207521 0.00543437 1.0059)
(0.0033664 0.00649594 1.00543)
(0.00303858 0.00688056 1.00588)
(0.0133028 0.0140175 1.03365)
(0.00806403 0.00838972 1.07974)
(0.00445624 0.0203853 1.03558)
(-0.00408101 0.0175523 1.0551)
(-9.60891e-05 0.0136187 1.05532)
(0.00161715 0.0164636 1.05563)
(0.00203321 0.020868 1.04906)
(0.00257359 0.0187291 1.04784)
(0.00127158 0.00490232 0.999755)
(0.00176706 0.0245409 1.0071)
(0.00149589 0.00993809 0.999219)
(0.00454183 0.0276615 1.0115)
(1.47065e-06 0.0185357 1.00811)
(0.0056805 0.0158136 1.00545)
(0.00328856 0.0212825 1.00639)
(0.00198198 0.021804 1.00648)
(0.00541602 0.0191675 1.0213)
(0.00302161 0.0251373 1.04546)
(0.00950101 0.0272782 1.03185)
(0.0125711 0.0135473 1.04734)
(0.00170723 0.020434 1.03557)
(0.00462546 0.0254225 1.03531)
(0.0118369 0.0225991 1.03621)
(0.0105646 0.0241978 1.04049)
(0.00150291 0.0138157 1.02297)
(0.000791318 0.0104973 1.00932)
(-0.000141947 0.0151505 1.01905)
(-0.00503444 0.017795 1.04423)
(0.00437803 0.0170349 1.02482)
(0.00075871 0.0132047 1.01192)
(0.00420255 0.0179046 1.02381)
(0.000734029 0.0139424 1.01714)
(0.00309154 0.0133939 1.02136)
(-0.00711864 0.025796 1.044)
(-0.000818715 0.0227313 1.02527)
(0.000820774 0.00923281 1.00645)
(0.0054566 0.017616 1.01878)
(-0.00416253 0.025912 1.03395)
(0.00625203 0.0153162 1.01107)
(-0.000199716 0.0226905 1.03016)
(0.00219394 0.0125417 1.00912)
(0.00508923 0.0187449 1.01978)
(0.00477544 0.0267708 1.04212)
(0.00643958 0.0317899 1.02233)
(0.00346005 0.0162667 1.007)
(0.00401538 0.0200438 1.01744)
(0.00562243 0.0271565 1.02191)
(0.00197418 0.0296961 1.03107)
(0.00168071 0.0119568 1.00782)
(0.00609149 0.0314466 1.02222)
(-0.00144683 0.027875 1.04065)
(0.000498596 0.0289204 1.02003)
(0.00598304 0.0250578 1.0149)
(0.00355064 0.0265411 1.01853)
(0.00116786 0.0311318 1.0199)
(-0.0015903 0.0289968 1.02531)
(-0.00443919 0.026163 1.04652)
(-0.00223661 0.00999857 1.05563)
(-0.00694382 0.0176979 1.04758)
(-0.0105186 0.0178479 1.07744)
(-0.00530048 0.0234458 1.04469)
(-0.00431036 0.0219574 1.03833)
(-0.00919306 0.025713 1.05574)
(-0.00770792 0.0204581 1.04451)
(-0.0059715 -0.000825396 1.03397)
(-0.00557225 -0.00792541 1.02641)
(-0.00666319 -0.00564456 1.02986)
(-0.0118869 -0.0112678 1.03538)
(-0.00924113 -0.00561274 1.03432)
(-0.00421383 -0.0055876 1.02878)
(-0.00922486 -0.00552266 1.034)
(-0.00842196 -0.00960409 1.03038)
(-0.00674766 0.0165854 1.0523)
(-0.00489854 -0.00202325 1.04337)
(-0.00662514 0.00669958 1.05)
(-0.0144977 0.00611303 1.05254)
(-0.00934912 0.0076994 1.05227)
(-0.00493533 0.00497788 1.04907)
(-0.00855612 0.00512393 1.05353)
(-0.00596999 -0.00159993 1.05214)
(-0.0206577 0.00886111 1.10368)
(-0.0165736 -0.017369 1.05729)
(-0.0120361 -0.0161121 1.07411)
(-0.0296622 -0.0186958 1.11776)
(-0.0192753 0.00826728 1.09726)
(-0.00104511 -0.00730958 1.06955)
(-0.0411327 -0.00142186 1.11099)
(-0.0168531 -0.0145652 1.07712)
(-0.00761137 0.00530949 1.05093)
(-0.00603075 0.0176563 1.052)
(-0.00619146 0.0175633 1.0727)
(-0.0121932 -0.00436305 1.05519)
(-0.00769145 0.00414576 1.05423)
(-0.00360339 0.022584 1.04651)
(-0.0146408 -0.00600688 1.05802)
(0.00113189 0.00581299 1.05229)
(-0.00306942 0.00663226 1.04568)
(-0.00674817 -0.0041688 1.04806)
(-0.00373078 0.000875882 1.03606)
(-0.00824494 0.0157556 1.05231)
(-0.00988496 0.00188807 1.04631)
(-0.00787803 -0.00287484 1.04591)
(-0.00635921 0.011506 1.04821)
(-0.00742374 0.00169288 1.04353)
(-0.00386535 0.0159865 1.0511)
(-0.0207104 0.0148645 1.08646)
(-0.0150908 -0.0075683 1.05645)
(-0.00538962 0.000491192 1.0582)
(-0.00548776 0.000972005 1.05424)
(-0.00580554 0.00661894 1.06044)
(-0.0066222 0.000774949 1.06166)
(-0.00576271 0.00798537 1.06619)
(-0.0113128 0.0124988 1.05317)
(-0.0121399 -0.00525374 1.05413)
(-0.0108689 -0.0124022 1.04869)
(-0.00612378 -0.0054849 1.03919)
(-0.00885329 0.0075747 1.05159)
(-0.0116919 0.00140862 1.05317)
(-0.00930673 0.000545163 1.04897)
(-0.0121581 -0.00499994 1.0493)
(0.000746859 -0.402463 1.50578)
(0.085159 -0.144676 1.03901)
(0.00144794 -0.175464 1.18945)
(0.0751494 -0.0554503 0.990254)
(-0.012807 -0.112771 1.32518)
(0.0587498 -0.118695 1.2897)
(-0.0224512 -0.22816 1.32909)
(-0.0116532 -0.165217 1.17213)
(0.0531898 -0.0506496 1.11592)
(0.0466555 -0.0238803 1.09666)
(0.0177918 -0.0356271 1.0738)
(0.0166132 -0.0341446 1.07387)
(0.0174054 -0.0148176 1.11756)
(0.0272424 -0.0323062 1.09935)
(0.00836309 -0.0262239 1.09638)
(0.0158423 -0.0260128 1.07525)
(0.00710102 -0.0886901 1.04911)
(0.00551486 -0.0420854 1.03627)
(0.00842185 -0.0238781 1.00579)
(0.0155938 -0.043783 1.02438)
(0.00809261 -0.051941 1.02545)
(0.00684678 -0.0429458 1.01699)
(0.017615 -0.0372382 1.01176)
(0.0095721 -0.0250741 1.01526)
(-0.014363 -0.0355283 1.06951)
(0.00465176 -0.0343294 1.06743)
(0.0196656 -0.0386754 1.06819)
(0.00970734 -0.0123414 1.10036)
(0.0156536 -0.0413002 1.08935)
(0.019089 -0.0472725 1.09612)
(0.00318858 -0.0328087 1.091)
(0.0220081 -0.0268224 1.06479)
(0.0109485 0.0263218 1.07719)
(-0.000381017 -0.112781 1.12418)
(0.00300963 -0.0396418 1.20292)
(0.00664394 -0.0267617 1.09961)
(0.00796201 -0.0818604 1.14155)
(0.0217147 -0.133594 1.16257)
(0.00194106 -0.0118734 1.06335)
(0.0551454 -0.0974089 1.19502)
(0.0366362 -0.0917356 1.20477)
(0.0171709 -0.0432132 1.10435)
(0.0149798 -0.0484249 1.05943)
(0.0182173 -0.0876596 1.07629)
(0.00285256 -0.067514 1.10128)
(0.0117996 -0.0539202 1.08914)
(0.0166272 -0.0725887 1.10326)
(0.00821401 -0.0484853 1.07555)
(0.0125817 -0.0953167 1.07378)
(-0.0352687 -0.0869707 1.16756)
(-0.000195172 -0.0298332 1.08647)
(0.0149396 -0.0502535 1.04416)
(0.0149865 -0.104568 1.10476)
(0.0016447 -0.083486 1.10513)
(0.00762941 -0.071221 1.06396)
(0.0131232 -0.0727997 1.08972)
(0.0165046 -0.0768445 1.05714)
(0.019813 -0.0346613 1.03414)
(0.00407527 -0.0315085 1.06669)
(0.00965082 -0.0326804 1.04446)
(0.00843785 -0.0609745 1.0428)
(0.0137994 -0.0558485 1.04364)
(0.00255354 -0.0431814 1.05706)
(0.00701381 -0.0409875 1.06842)
(0.00569277 0.0513073 1.09497)
(0.0106006 0.0317947 1.11495)
(-0.00069291 0.0555392 1.16717)
(0.0117684 0.0361012 1.11466)
(0.00505477 0.0510093 1.10303)
(-0.000475214 0.0348216 1.10128)
(0.00651549 0.0481427 1.11996)
(-0.00615152 0.0463202 1.12554)
(0.00768144 0.0247011 1.1109)
(0.0274461 -0.0252828 1.12827)
(0.0318433 -0.0100503 1.14244)
(0.0167595 -0.0252592 1.11078)
(0.00191966 0.0169883 1.10993)
(0.0116732 -0.00711194 1.11218)
(0.022236 -0.0059532 1.11838)
(0.0179426 0.0109634 1.13373)
(0.0255386 0.0637352 1.40194)
(0.0289608 0.00829864 1.3811)
(0.0391897 0.0363732 1.51924)
(0.00703666 0.00105839 1.39992)
(0.0236426 0.0655014 1.40669)
(-0.00219847 0.0061754 1.42924)
(0.0172665 0.0551911 1.42878)
(0.00640311 0.0702883 1.47471)
(0.0170022 0.008871 1.1195)
(0.0171146 -0.0398456 1.10854)
(0.011143 -0.0181753 1.16127)
(0.0224106 -0.0291356 1.1077)
(0.0184353 0.00809152 1.12235)
(0.00200294 0.0061265 1.14293)
(0.0229209 -0.0226155 1.11883)
(-0.000224288 -0.0201424 1.14432)
(0.00943111 0.0307817 1.12267)
(0.00126991 0.0680089 1.18471)
(0.00931121 0.0350644 1.12035)
(0.0199307 0.00713708 1.12565)
(0.0178459 0.0194753 1.14289)
(0.000871974 0.033576 1.12896)
(0.0155386 0.00518431 1.12246)
(-0.000969255 0.0337819 1.12917)
(-0.00402588 0.0164228 1.11729)
(0.00332577 0.00504407 1.14599)
(-0.00223768 -0.0180428 1.1832)
(-0.0187678 0.0379257 1.17719)
(-0.00123716 0.0200476 1.14843)
(-0.000464448 0.0147442 1.13514)
(0.012985 0.00933729 1.19266)
(0.00946086 0.0240242 1.191)
(0.0200183 0.0559156 1.24047)
(0.0114442 0.0221621 1.12988)
(0.0134053 -0.0192816 1.1256)
(0.010069 -0.00401108 1.19255)
(0.0178541 0.0268317 1.19824)
(-0.00293063 0.0250773 1.13487)
(0.0240065 0.0270364 1.21374)
(0.00238244 0.00289614 1.1378)
(-0.0138204 0.0531502 1.27762)
(-0.00202989 -0.0230781 1.28615)
(-0.0023801 -0.0122196 1.15124)
(0.0103798 0.00575858 1.35192)
(-0.00669532 0.036747 1.25034)
(-0.00551734 0.0182396 1.26188)
(0.0242218 0.0115938 1.22093)
(0.0142224 -0.0157942 1.13877)
(-0.000263621 0.01447 1.02009)
(-0.00449812 0.00125687 1.03016)
(-0.00143421 0.0229203 1.0204)
(-0.00467444 0.0257992 1.04168)
(-0.00275948 0.00697696 1.02678)
(-0.00201305 0.00688993 1.02557)
(0.000199314 0.0172782 1.02552)
(-0.0010535 0.0163073 1.03125)
(-0.000216474 -0.00408074 1.03202)
(-0.00569879 -0.00513672 1.02974)
(-0.00855034 0.00029815 1.03428)
(-0.0107151 -0.0118211 1.03571)
(-0.00433527 -0.00511238 1.03387)
(-0.00276883 -0.00395428 1.03026)
(-0.00928956 -0.00745135 1.03579)
(-0.00847825 -0.00459021 1.03486)
(-0.0051442 0.030549 1.02455)
(-0.00556652 0.0202673 1.04297)
(-0.00423935 0.0274437 1.01968)
(-0.00435141 0.0340933 1.04698)
(-0.00276199 0.0253141 1.036)
(-0.00378528 0.0229982 1.03824)
(-0.0020686 0.0285674 1.02285)
(-0.00236701 0.0254477 1.02814)
(-0.0113809 0.0274156 1.06645)
(-0.0180017 -0.0120528 1.06679)
(-0.0172107 0.0506395 1.08236)
(-0.0265041 0.011591 1.09942)
(-0.0166713 0.00474202 1.07917)
(-0.0158524 0.0070608 1.06877)
(-0.0206387 0.0295039 1.0874)
(-0.0225353 0.0246293 1.0848)
(-0.00279246 0.00152026 1.02948)
(-0.00135536 0.0153376 1.03111)
(-0.00758936 0.00739911 1.05025)
(-0.0131928 -0.00140878 1.04173)
(-0.0101904 0.00406637 1.03864)
(0.000664233 0.0146955 1.03864)
(-0.0189151 -0.000208433 1.0436)
(-0.0108457 0.0110709 1.04441)
(-0.000699212 -0.00108883 1.02815)
(-0.013854 -0.00276354 1.0387)
(-0.00628046 0.00794601 1.03305)
(-0.000978325 0.0155124 1.03048)
(-0.00565888 0.00442223 1.03557)
(-0.009976 -0.00240118 1.03704)
(-0.00320422 0.0131095 1.03565)
(-0.00894966 0.010175 1.0357)
(-0.00187092 0.0248211 1.03119)
(-0.0068941 0.0237251 1.05031)
(-0.0145106 0.000794511 1.05815)
(-0.00792155 0.0342437 1.05242)
(-0.00343163 0.0361652 1.04564)
(-0.00683139 0.0203042 1.05779)
(-0.00689014 0.0225785 1.05851)
(-0.00890692 0.0195294 1.06389)
(-0.00117829 0.0238271 1.03662)
(-0.00674958 0.0256887 1.05482)
(-0.0113 0.00901902 1.05358)
(-0.00506977 0.0148015 1.0422)
(0.000457992 0.0236659 1.04592)
(-0.00702631 0.0167527 1.05698)
(-0.00558524 0.0136604 1.04371)
(-0.0117635 0.0112319 1.05961)
(0.00107026 0.00701564 1.01366)
(0.00324481 0.00409064 1.01286)
(0.00165672 0.010854 1.02509)
(-0.000345536 0.0038368 1.01766)
(0.00260951 0.00937229 1.01523)
(0.00253216 0.0068741 1.0136)
(0.00140263 0.0135598 1.02011)
(0.000936182 0.0100862 1.02258)
(0.00287059 0.00107799 1.01239)
(0.00204607 -0.000208184 1.00999)
(0.0035901 0.000499818 1.01508)
(-0.000231626 -0.000621031 1.01137)
(0.00137165 0.000905074 1.01279)
(0.00169067 0.000580137 1.01171)
(0.00191123 0.00104346 1.01309)
(0.000834277 7.24622e-05 1.01314)
(-0.000477172 0.00787561 1.03881)
(0.00396128 0.00264771 1.02529)
(-0.000799584 0.00028217 1.04814)
(-0.00312869 -0.00297283 1.02896)
(-0.000384136 0.00459836 1.03756)
(-0.000484974 0.00501577 1.03251)
(0.000583653 0.00449152 1.04189)
(-0.000725302 -0.00117753 1.03931)
(-0.00273905 -0.0012519 1.018)
(-0.00239853 -0.00217578 1.0143)
(-0.00432861 -0.0055453 1.02155)
(-0.00535055 -0.00455182 1.01978)
(-0.0022408 -0.00200531 1.01881)
(-0.00392688 -0.00118463 1.01706)
(-0.00208063 -0.00412329 1.01984)
(-0.00452963 -0.00411279 1.01952)
(0.00193857 0.00490319 1.01433)
(0.00173236 0.0101374 1.026)
(0.000480306 0.00382191 1.01843)
(-8.80198e-05 0.000739115 1.01515)
(0.00225089 0.00506924 1.01804)
(0.00168562 0.0093542 1.01874)
(0.00024444 0.00029558 1.01488)
(-0.000462475 0.00288984 1.01724)
(0.002048 0.00356429 1.01265)
(-0.00105063 0.000312566 1.01361)
(0.00205246 0.00250503 1.0184)
(0.00184512 0.00717472 1.02242)
(0.00144754 0.00439284 1.01898)
(0.000433909 0.00239542 1.01551)
(0.00355446 0.00427238 1.02042)
(0.00180957 0.00314894 1.02067)
(0.000851894 0.012345 1.03141)
(-0.000571346 0.00594325 1.02117)
(-0.000609334 -0.00130664 1.01608)
(-0.000751591 -0.000973946 1.02494)
(0.00158839 0.00337823 1.02308)
(-0.00187339 0.00226204 1.02157)
(-0.00117449 0.00156372 1.02375)
(-0.00256606 0.0015247 1.0188)
(-0.000698516 0.00775357 1.03406)
(-0.00350339 -0.00206725 1.02238)
(-0.00244005 -0.00124553 1.01553)
(0.000976798 0.00100496 1.02157)
(0.00114051 0.00589703 1.02592)
(-0.00202958 0.00155394 1.01965)
(0.00186525 0.00342725 1.0216)
(-0.00182913 -0.00119648 1.01735)
(0.00711142 0.192344 1.51573)
(-0.104264 0.169446 1.83741)
(-0.328784 0.302406 2.36998)
(-0.238493 0.113496 1.93471)
(-0.0569353 0.0892049 1.87952)
(-0.0595584 0.185519 1.66889)
(-0.27893 0.178871 2.23923)
(-0.17427 0.167757 2.03847)
(-0.156849 0.152613 1.90165)
(-0.163784 -0.00906731 2.06187)
(-0.34597 0.214888 2.03505)
(-0.365275 0.144128 1.6783)
(-0.169759 0.114721 1.94654)
(-0.167023 0.11455 1.96795)
(-0.351984 0.141277 1.86534)
(-0.372874 0.109244 1.9139)
(-0.275728 0.226143 2.1963)
(-0.308675 0.330657 2.12521)
(-0.336835 0.0859818 2.19395)
(-0.262395 0.180728 1.82741)
(-0.303178 0.268606 2.17091)
(-0.308575 0.273174 2.22072)
(-0.32133 0.0742831 2.0942)
(-0.32374 0.164082 2.1604)
(0.0622451 0.0695799 1.25425)
(-0.126878 0.0798574 1.29397)
(-0.160687 0.133162 1.42515)
(-0.0954559 0.0656961 1.22467)
(-0.0870445 0.0426832 1.32798)
(-0.00684157 0.0521321 1.30515)
(-0.0925495 0.115656 1.32177)
(-0.102623 0.0832755 1.3411)
(-0.106845 0.182753 1.86024)
(-0.191212 0.238348 2.164)
(-0.218125 0.159706 1.62359)
(-0.27683 0.15337 1.69579)
(-0.23991 0.0974568 1.90658)
(-0.275721 0.128286 2.09215)
(-0.210774 0.16394 1.50198)
(-0.290553 0.143082 1.85293)
(-0.133795 0.173511 1.89435)
(-0.281664 0.171004 1.53629)
(-0.252839 0.291178 2.09996)
(-0.244974 0.307976 2.29768)
(-0.280145 0.176762 2.01634)
(-0.377989 0.113087 1.84299)
(-0.154022 0.242782 2.17913)
(-0.339343 0.230547 2.08883)
(-0.444967 0.208149 2.05004)
(0.0166941 0.114911 1.55933)
(-0.116083 0.0484297 1.45165)
(-0.189304 0.1262 1.70597)
(-0.281173 0.163721 1.84315)
(-0.15871 0.114802 1.59312)
(-0.106871 0.139352 1.58982)
(0.0840256 0.0805975 1.44352)
(-0.282908 0.22183 2.14884)
(-0.214557 0.137918 1.71702)
(-0.0886827 0.0704537 1.44826)
(-0.363866 0.238208 1.95618)
(-0.431981 0.2418 2.11525)
(-0.197681 0.133265 1.74448)
(-0.321068 0.142601 1.93586)
(0.0111235 0.0480856 1.40552)
(0.132707 0.0973241 1.61395)
(-0.176044 0.179395 2.23817)
(0.00387609 0.0990329 1.8099)
(-0.232705 0.177834 1.74837)
(-0.0709365 0.162572 2.05725)
(0.0249559 0.127101 1.8868)
(-0.075438 0.108934 1.80947)
(-0.0260715 0.0926457 1.89132)
(-0.255565 0.237756 2.3018)
(-0.248566 0.11954 2.2809)
(-0.177453 0.135443 2.05263)
(-0.251067 0.212319 1.85664)
(-0.274792 0.171498 2.20854)
(-0.28174 0.191343 2.35123)
(-0.226066 0.134197 1.9145)
(-0.241218 0.164979 2.08709)
(-0.00696882 0.121999 1.72508)
(-0.0514048 0.104892 1.83543)
(-0.0240964 0.100359 1.73597)
(-0.122056 0.0705248 1.64668)
(-0.0262479 0.0946239 1.78829)
(0.00535096 0.062068 1.71825)
(-0.067484 0.117015 1.77676)
(-0.0354922 0.0934838 1.76346)
(-0.0518448 -0.0100052 1.3544)
(-0.121497 0.108478 1.39072)
(-0.11187 0.0922265 1.37227)
(-0.100879 0.0714811 1.21647)
(-0.0593541 0.0276232 1.36696)
(-0.0308505 0.0127205 1.33183)
(-0.0940719 0.0777344 1.36271)
(-0.0573854 0.049426 1.33957)
(-0.225946 0.238114 2.17053)
(-0.0372092 0.106014 1.84986)
(-0.197812 0.124221 1.73351)
(-0.191918 0.176204 1.78826)
(-0.0741354 0.100758 1.80896)