/*--------------------------------*- C++ -*----------------------------------*\
| =========                 |                                                 |
| \\      /  F ield         | OpenFOAM: The Open Source CFD Toolbox           |
|  \\    /   O peration     | Version:  2506                                  |
|   \\  /    A nd           | Website:  www.openfoam.com                      |
|    \\/     M anipulation  |                                                 |
\*---------------------------------------------------------------------------*/
FoamFile
{
    version     2.0;
    format      ascii;
    arch        "LSB;label=32;scalar=64";
    class       surfaceScalarField;
    location    "400";
    object      phi;
}
// * * * * * * * * * * * * * * * * * * * * * * * * * * * * * * * * * * * * * //

dimensions      [0 3 -1 0 0 0 0];

oriented        oriented;

internalField   nonuniform List<scalar> 
129632
(
1.17136e-06
-7.10338e-07
-4.13486e-07
-4.75358e-08
-1.1042e-07
1.2338e-06
-7.15881e-07
-4.07497e-07
-3.67341e-07
1.23746e-06
-7.28886e-07
-1.4123e-07
-7.10756e-07
1.2549e-06
-4.13116e-07
-1.3103e-07
4.88227e-07
1.08585e-06
-4.02719e-07
1.10176e-06
-7.23954e-07
4.98781e-07
-1.23685e-07
1.2332e-06
1.28776e-06
-8.28597e-08
-7.50008e-07
-4.54889e-07
-3.04321e-08
-7.88017e-07
-4.76452e-07
1.2949e-06
-4.72256e-07
-6.0415e-08
-8.03252e-07
1.33592e-06
-7.69775e-07
-5.41222e-08
-4.80952e-07
1.30485e-06
5.13587e-07
1.23662e-06
-4.62449e-07
1.25526e-06
-7.72105e-07
5.23754e-07
-5.69115e-08
1.30676e-06
1.3331e-06
-3.36588e-07
-7.9161e-07
-2.04905e-07
-1.02003e-07
-4.39005e-07
-8.79784e-07
1.42079e-06
-3.96344e-07
-9.99806e-07
-1.6842e-07
1.56457e-06
-8.64516e-07
-4.53223e-07
-1.43489e-07
1.46123e-06
5.33181e-07
1.18491e-06
-3.84984e-07
1.31552e-06
-8.84343e-07
5.67132e-07
-2.4674e-07
1.48631e-06
1.34658e-06
-7.65622e-07
-4.62972e-07
-1.1799e-07
-6.53101e-08
-7.75743e-07
-4.88645e-07
1.3297e-06
-4.78906e-07
-8.12061e-07
-1.05967e-07
1.39693e-06
-7.94872e-07
-4.88485e-07
-1.05436e-07
1.38879e-06
5.7158e-07
1.26197e-06
-4.8697e-07
1.28834e-06
-7.82069e-07
5.60261e-07
-9.31596e-08
1.36969e-06
1.14057e-06
5.18758e-07
-4.25527e-07
-3.84748e-07
5.17132e-07
1.10507e-06
5.41422e-07
1.15642e-06
-4.42942e-07
-1.29767e-06
5.33687e-07
1.23359e-06
-4.69607e-07
-1.091e-07
7.38209e-07
5.11458e-07
7.39354e-07
-9.88965e-08
-4.60564e-07
1.18188e-06
1.17715e-06
-7.41251e-07
-7.86522e-07
1.26609e-06
-5.24839e-07
1.26627e-06
-8.01847e-07
1.35345e-07
1.14499e-06
-7.63203e-07
1.28384e-06
4.04763e-07
4.4041e-07
1.30632e-06
-7.66208e-07
1.22189e-06
7.7995e-07
5.04544e-07
-1.7942e-07
5.35286e-07
-1.44486e-07
-7.7997e-08
5.35845e-07
-1.23204e-06
5.64651e-07
-1.44669e-07
-4.09393e-07
1.33375e-06
-1.44407e-07
1.30777e-06
-4.47706e-07
5.49415e-07
1.31295e-06
-1.3065e-06
1.41793e-06
4.76108e-07
1.32582e-06
-5.26707e-07
1.35397e-06
8.31066e-07
9.68961e-08
7.39778e-08
7.92076e-07
1.34216e-06
5.80829e-07
8.85164e-07
2.47703e-07
-1.71369e-06
2.28163e-07
5.72221e-07
7.84793e-07
-1.58518e-06
-1.61005e-06
4.97235e-07
7.60213e-07
3.52603e-07
8.06526e-07
5.94099e-07
1.9713e-07
-1.59775e-06
1.4328e-06
8.25781e-07
-1.67775e-06
8.27506e-07
8.33458e-07
1.32433e-06
3.07979e-07
5.41783e-07
5.67588e-07
1.88432e-07
7.07879e-07
-1.4639e-06
1.53814e-07
6.78204e-07
5.50483e-07
-1.3825e-06
-1.45135e-06
2.08922e-07
6.98478e-07
5.4395e-07
7.11152e-07
1.51626e-07
5.54708e-07
-1.41749e-06
1.2846e-06
7.37048e-07
-1.45406e-06
7.34888e-07
7.03524e-07
1.26879e-06
1.79406e-07
5.52333e-07
4.43678e-07
-1.47775e-06
7.12246e-07
3.21823e-07
2.64557e-07
-1.44934e-06
6.98961e-07
4.85818e-07
-1.41567e-06
6.90147e-07
4.32499e-07
2.93028e-07
7.10889e-07
-1.45781e-06
4.79513e-07
2.67412e-07
1.14854e-06
7.37105e-07
-1.44197e-06
7.12102e-07
7.00996e-07
1.16041e-06
2.87583e-07
4.5684e-07
5.83332e-07
7.55507e-07
1.86981e-07
-1.52582e-06
1.54731e-07
7.16525e-07
5.6745e-07
-1.43871e-06
-1.48857e-06
7.25913e-07
5.37581e-07
2.25078e-07
7.43927e-07
5.92359e-07
1.58106e-07
-1.49439e-06
1.33328e-06
7.56739e-07
-1.50669e-06
7.39628e-07
7.48385e-07
1.30396e-06
1.96704e-07
5.55019e-07
7.75371e-07
1.35082e-06
-1.55397e-06
-1.55833e-06
1.2667e-06
7.88865e-07
1.38904e-06
7.82678e-07
-1.57762e-06
-5.71951e-07
1.30404e-06
7.41237e-07
-1.47332e-06
2.22865e-07
-7.33779e-07
1.28629e-06
-7.93681e-07
1.83962e-07
-1.48969e-06
7.79325e-07
7.87774e-07
7.5148e-07
7.28303e-07
7.27361e-07
-1.24726e-06
7.41478e-07
7.14701e-07
-2.56532e-07
7.6207e-07
7.61161e-07
5.5427e-07
1.51979e-06
1.46198e-06
5.25093e-07
7.38166e-07
7.39814e-07
-7.15946e-07
1.19176e-06
3.13053e-07
1.29458e-06
2.43609e-07
1.89931e-07
1.26783e-06
-7.63105e-07
1.24363e-06
2.45383e-07
-1.52747e-06
5.33864e-07
2.77662e-07
5.46433e-07
-1.48475e-06
1.25551e-06
4.76081e-07
-7.17398e-07
5.0322e-07
1.44373e-06
5.5146e-07
-1.22652e-06
5.18664e-07
-7.30195e-07
-2.35692e-07
-1.92085e-07
-7.224e-07
5.29248e-07
-1.92507e-06
8.60635e-07
1.18243e-06
-1.17997e-07
-1.23364e-07
-1.95583e-06
8.74782e-07
1.20441e-06
8.60727e-07
-1.93472e-06
1.19303e-06
-1.19034e-07
1.18687e-06
-1.93753e-06
8.68915e-07
-1.18256e-07
-7.38746e-07
-2.04816e-06
8.61831e-07
-2.05445e-06
1.19234e-06
-7.42227e-07
-1.19053e-07
-1.93595e-06
-1.98128e-06
-1.27652e-07
8.86607e-07
1.22233e-06
-1.27256e-07
8.96402e-07
1.23055e-06
-1.9997e-06
8.83254e-07
-1.22557e-07
1.22062e-06
-1.98132e-06
1.22088e-06
-1.27336e-07
8.85814e-07
-1.97936e-06
-7.59232e-07
-2.1096e-06
8.87552e-07
-2.11109e-06
1.2246e-06
-7.60024e-07
-1.28701e-07
-1.98786e-06
-1.95295e-06
8.6237e-07
1.20873e-06
-1.18158e-07
-1.18366e-07
8.73139e-07
1.21625e-06
-1.97102e-06
8.63991e-07
1.21886e-06
-1.96581e-06
-1.17042e-07
1.20626e-06
8.68314e-07
-1.95564e-06
-1.1894e-07
-7.45807e-07
-2.073e-06
8.65861e-07
-2.07873e-06
1.21456e-06
-7.48483e-07
-1.18253e-07
-1.96322e-06
-1.94913e-06
1.19286e-06
8.74915e-07
-1.18653e-07
-1.22711e-07
1.2092e-06
8.79365e-07
-1.96586e-06
8.72777e-07
1.19841e-06
-1.95283e-06
-1.18355e-07
1.19783e-06
8.78189e-07
-1.95743e-06
-1.18588e-07
-7.53944e-07
-2.07073e-06
8.75545e-07
-2.07786e-06
1.2012e-06
-7.54173e-07
-1.18727e-07
-1.95925e-06
-2.08333e-06
-7.47803e-07
8.75301e-07
8.64845e-07
-7.41775e-07
-2.05779e-06
-7.47687e-07
-2.06055e-06
8.70702e-07
1.96096e-06
-7.53648e-07
-2.08607e-06
8.78757e-07
-1.24293e-07
-1.2082e-06
-7.50838e-07
-1.1954e-06
-1.24791e-07
8.77556e-07
-2.06788e-06
-2.08725e-06
1.21179e-06
1.21441e-06
-2.09539e-06
7.52802e-07
-2.09184e-06
1.21648e-06
1.2138e-07
-2.06652e-06
1.20337e-06
-1.96545e-06
-8.72637e-07
-8.79741e-07
-1.95902e-06
1.20776e-06
-2.08596e-06
-1.19592e-06
-7.43211e-07
-1.18655e-07
-7.48645e-07
-1.1904e-07
-1.2356e-07
-7.53311e-07
2.06682e-06
-7.4974e-07
-1.1867e-07
8.6797e-07
-1.94501e-06
-1.18888e-07
-1.94855e-06
8.70913e-07
-7.49096e-07
-1.94736e-06
2.07591e-06
-1.95734e-06
-8.77934e-07
-1.97077e-06
7.53824e-07
-1.97253e-06
-1.20364e-06
1.22139e-07
1.23176e-07
-1.20999e-06
-1.96475e-06
-1.18895e-06
7.84624e-07
1.09448e-06
1.07274e-06
-1.21083e-06
8.37055e-07
8.00616e-07
-1.24715e-06
1.15878e-06
-6.93396e-07
-1.20412e-06
8.05608e-07
1.09191e-06
-1.88891e-06
-1.03071e-07
8.0303e-07
-1.15179e-07
-1.91835e-06
1.12188e-06
-1.23291e-06
-1.20634e-06
1.03108e-06
8.7374e-07
9.79904e-07
8.92574e-07
-1.19427e-06
9.09795e-07
1.06445e-06
-1.26637e-06
-6.84684e-07
9.92946e-07
9.04563e-07
-1.21283e-06
-1.89617e-06
-1.97368e-07
8.87201e-07
-2.12745e-07
-1.91473e-06
1.03268e-06
-1.21768e-06
-1.34971e-06
8.56188e-07
1.25373e-06
1.20052e-06
9.6903e-07
-1.38476e-06
9.97023e-07
1.33821e-06
-1.45006e-06
-8.57875e-07
9.70759e-07
1.29357e-06
-1.40647e-06
-2.18123e-06
-9.12692e-08
9.2279e-07
-1.4725e-07
-2.26381e-06
1.31467e-06
-1.41404e-06
-1.23553e-06
-7.16472e-07
8.68924e-07
1.08308e-06
1.01892e-06
-6.94668e-07
9.11311e-07
-1.23556e-06
9.28599e-07
-7.85661e-07
1.15751e-06
-1.30044e-06
-7.18512e-07
9.01908e-07
1.06547e-06
-1.24886e-06
-1.93235e-06
-1.86915e-07
8.83733e-07
-1.94618e-07
-7.18816e-07
-1.97839e-06
1.07296e-06
-1.24441e-06
-1.49604e-07
-1.91523e-06
8.53998e-07
8.41855e-07
-1.99581e-06
-9.3199e-08
-1.89686e-06
-1.31217e-07
8.23956e-07
1.20934e-06
-1.90078e-06
-1.86945e-07
8.78386e-07
1.09429e-06
6.96742e-07
-1.94064e-06
7.03234e-07
1.04859e-06
8.57495e-07
-1.45042e-07
-1.6945e-07
-6.98224e-07
-2.0961e-07
2.00616e-06
-1.9023e-07
-1.13335e-06
-1.01304e-07
-1.23669e-06
-8.73394e-07
-9.02237e-07
-1.26857e-06
-1.64652e-07
7.46333e-07
-2.05657e-06
1.21703e-06
-1.96345e-06
1.11576e-06
1.06273e-06
-1.94434e-06
1.52043e-07
-2.13481e-06
1.1971e-06
8.63452e-07
-1.29429e-06
1.17717e-06
-1.24504e-06
9.01124e-07
-2.04338e-06
-1.30168e-06
1.59029e-07
-1.32308e-06
-9.19837e-07
-1.23412e-06
2.06689e-06
-1.28809e-06
7.8074e-07
-1.15963e-06
-1.10361e-06
7.42601e-07
-1.28084e-06
2.81157e-07
-1.7522e-06
-1.7557e-07
1.64661e-06
1.31545e-06
2.1457e-07
-1.41517e-06
-1.1485e-07
-1.40785e-06
1.89733e-07
-1.97909e-07
1.41603e-06
-1.45481e-07
1.41936e-07
-1.48228e-06
1.48582e-06
8.42335e-08
1.713e-06
-1.51608e-06
1.6083e-06
-2.08615e-07
7.25211e-09
1.56027e-06
2.07703e-07
1.39647e-07
1.21115e-06
-1.22261e-06
-1.28179e-07
1.18399e-06
-1.14986e-06
-1.46896e-07
1.12766e-07
-1.21464e-06
1.21271e-06
-1.26419e-07
1.28356e-07
-1.08489e-07
1.21384e-06
-1.2374e-06
1.32046e-07
3.49635e-09
1.34002e-06
-1.20386e-06
1.31902e-06
-1.31531e-07
2.09263e-08
1.2106e-06
1.25298e-07
1.38312e-07
-1.29684e-06
-1.45992e-07
1.30452e-06
1.25724e-06
-1.25154e-06
-1.28685e-07
1.22981e-07
-1.24547e-06
-1.45902e-07
1.0207e-07
1.2893e-06
-1.40004e-07
-1.29353e-06
1.0693e-07
1.3266e-06
2.03079e-09
1.43168e-06
-1.2954e-06
1.38928e-06
-1.30008e-07
-2.6805e-08
1.31848e-06
1.17012e-07
1.13984e-07
-5.29328e-08
-1.45433e-06
1.39328e-06
1.29783e-06
-6.77505e-08
-1.35471e-06
1.24634e-07
-1.37924e-06
-8.59435e-08
1.00236e-07
1.36494e-06
-4.75192e-08
-1.44581e-06
1.1602e-07
1.37731e-06
7.94538e-08
1.50628e-06
-1.47175e-06
1.44635e-06
-6.90715e-08
5.52043e-08
1.40356e-06
1.22319e-07
1.46717e-06
6.05755e-08
-1.31318e-06
-1.3808e-06
4.82403e-08
1.52229e-06
5.10087e-08
1.5424e-06
-1.45148e-06
-1.54842e-07
6.63851e-08
1.41828e-06
-1.32982e-06
1.2988e-06
9.26677e-08
7.57078e-08
1.25701e-07
1.29007e-06
-1.35224e-06
1.46678e-06
1.3875e-06
-1.1578e-07
-1.00162e-07
1.38039e-06
-2.39292e-08
1.35723e-06
-1.20598e-07
-1.27544e-06
1.44858e-06
-1.24902e-07
1.54705e-07
1.30851e-06
1.26514e-06
1.50399e-07
-1.17332e-07
1.39161e-06
1.49548e-07
-1.86634e-08
1.3914e-06
3.92302e-08
1.45024e-06
1.29338e-06
5.71445e-08
-1.45711e-06
1.42596e-08
1.3569e-06
-1.35941e-06
1.20161e-07
1.38879e-06
1.46602e-07
-1.37091e-06
3.39641e-08
1.33079e-07
-1.40708e-06
1.27807e-07
1.30304e-06
1.34489e-07
-2.50865e-08
1.3078e-07
1.03849e-07
-1.26617e-06
-1.26926e-06
1.00361e-07
1.34141e-07
-2.17775e-07
1.45696e-06
2.56001e-07
-1.49518e-06
1.40542e-06
-1.52179e-07
1.88737e-07
-1.44198e-06
-1.37557e-06
-1.93304e-07
1.39326e-06
1.7562e-07
1.72038e-07
-1.58075e-07
1.4655e-06
-1.47946e-06
-9.8818e-09
1.2919e-06
-1.49979e-06
1.22712e-06
1.6841e-07
-3.47233e-08
1.49866e-06
-1.8317e-07
-1.18042e-07
1.27736e-06
1.85032e-07
-1.34435e-06
1.20906e-06
1.7744e-07
-9.53373e-08
-1.29116e-06
-1.28549e-06
1.22847e-06
1.62785e-07
-1.05769e-07
1.97738e-07
1.20486e-06
-9.8e-08
-1.30459e-06
8.4755e-08
1.14876e-06
-1.35156e-06
1.1175e-06
1.76312e-07
7.04513e-08
1.27605e-06
-9.7538e-08
-1.62489e-07
-1.27683e-06
1.28866e-06
1.50667e-07
1.22259e-06
-1.25942e-06
1.50802e-07
-1.13973e-07
-1.21387e-06
1.20635e-06
1.28242e-07
-1.20722e-07
1.42006e-07
-1.27413e-06
1.25503e-06
-1.22904e-07
1.68239e-08
1.1159e-06
-1.29521e-06
1.09439e-06
1.4503e-07
1.29265e-09
1.25661e-06
-1.18185e-07
-1.17646e-07
2.14673e-07
1.3626e-06
-1.45963e-06
1.25247e-06
1.89118e-07
-9.10325e-08
-1.35056e-06
-1.3422e-06
1.67862e-07
1.29186e-06
-1.17522e-07
2.12204e-07
1.32248e-06
-9.86294e-08
-1.43606e-06
9.61968e-08
1.23007e-06
-1.44391e-06
1.15254e-06
1.96129e-07
8.73191e-08
1.35495e-06
-1.02339e-07
1.23099e-06
5.30482e-08
-1.43622e-06
-1.39002e-06
-2.01516e-09
1.19873e-06
5.17338e-08
1.25835e-06
-1.46816e-06
1.02314e-07
9.50825e-08
1.19053e-06
-1.38793e-06
1.38419e-06
-1.8886e-07
3.56599e-08
-1.89e-07
1.30663e-06
-1.39318e-06
1.16937e-06
1.15359e-06
1.76818e-07
1.8384e-07
1.1161e-06
-4.22586e-08
1.11406e-06
1.56674e-07
-1.29493e-06
1.13189e-06
1.61024e-07
-1.31772e-07
1.32102e-06
1.32812e-06
-1.44778e-07
1.70866e-07
1.14108e-06
-1.68022e-07
-7.33713e-09
1.37409e-06
5.07332e-08
1.42229e-06
1.30383e-06
7.58148e-08
-1.16624e-06
3.46789e-08
1.29942e-06
-1.35703e-06
-1.52749e-07
1.34176e-06
-1.36931e-07
-1.36303e-06
4.40472e-08
-1.52278e-07
-1.12102e-06
-1.18431e-07
1.30455e-06
-1.12635e-07
-3.3625e-08
-1.1174e-07
-1.66637e-07
-1.28085e-06
-1.24361e-06
-1.73395e-07
-1.12458e-07
1.2011e-07
-1.28018e-06
-8.47099e-07
2.00717e-06
1.98997e-06
1.27772e-07
-1.27066e-06
-8.47083e-07
-8.4237e-07
1.23639e-07
-1.27341e-06
1.99214e-06
-1.27092e-06
1.22038e-07
-8.43691e-07
1.99257e-06
-1.14805e-06
2.11476e-06
-8.46598e-07
2.1159e-06
-1.27399e-06
-1.1499e-06
1.99375e-06
1.23632e-07
1.25175e-07
1.97652e-06
-1.2606e-06
-8.41091e-07
1.96861e-06
-1.25436e-06
-8.36773e-07
1.22519e-07
-8.3704e-07
1.97159e-06
-1.25752e-06
1.22967e-07
-1.25571e-06
1.97069e-06
-8.38229e-07
1.2325e-07
-1.13194e-06
2.09507e-06
-8.37959e-07
2.09255e-06
-1.25588e-06
-1.1326e-06
1.97196e-06
1.22916e-07
1.25151e-07
-8.4037e-07
-1.27009e-06
1.98531e-06
1.97667e-06
-8.37254e-07
-1.26269e-06
1.23274e-07
-8.39574e-07
-1.26856e-06
1.98373e-06
1.24397e-07
-1.26528e-06
-8.38672e-07
1.98058e-06
1.23372e-07
-1.14051e-06
2.10476e-06
-8.39102e-07
2.10358e-06
-1.26742e-06
-1.14056e-06
1.98004e-06
1.23446e-07
1.22767e-07
-1.26218e-06
-8.42104e-07
1.98152e-06
1.9737e-06
-1.25702e-06
-8.40255e-07
1.23573e-07
-8.3913e-07
-1.26056e-06
1.97711e-06
1.22581e-07
-1.25787e-06
-8.42082e-07
1.97741e-06
1.22539e-07
-1.13436e-06
2.09935e-06
-8.42218e-07
2.09712e-06
-1.25778e-06
-1.13488e-06
1.97636e-06
1.23106e-07
2.1064e-06
-1.13666e-06
-8.41971e-07
-8.41776e-07
-1.1435e-06
2.10892e-06
-1.13923e-06
2.10462e-06
-8.43354e-07
-1.24725e-07
-1.13291e-06
2.09783e-06
-8.40194e-07
1.98236e-06
1.26194e-06
-1.1379e-06
1.26422e-06
1.97832e-06
-8.4111e-07
2.10331e-06
2.10389e-06
-1.26403e-06
-1.25735e-06
2.09513e-06
1.13546e-06
2.09696e-06
-1.26083e-06
-1.98229e-06
2.10861e-06
-1.26983e-06
1.24241e-07
8.41744e-07
8.38849e-07
1.25588e-07
-1.26614e-06
2.0999e-06
1.26816e-06
-1.14459e-06
1.98536e-06
-1.1398e-06
1.98224e-06
1.9741e-06
-1.13329e-06
-2.10049e-06
-1.13713e-06
1.97705e-06
-8.40282e-07
1.23759e-07
1.98468e-06
1.23233e-07
-8.39553e-07
-1.13718e-06
1.23654e-07
-2.09866e-06
1.22857e-07
8.38452e-07
1.23388e-07
1.13649e-06
1.23214e-07
1.26106e-06
-1.97651e-06
-1.97477e-06
1.25988e-06
1.23559e-07
-9.88969e-08
6.41593e-07
-1.00861e-06
4.65917e-07
-9.82434e-07
-1.50582e-07
5.86162e-07
5.46855e-07
5.36216e-07
-1.04039e-07
5.80455e-07
-1.01263e-06
5.15762e-07
2.67016e-09
-1.04447e-06
5.26034e-07
4.40981e-07
-1.06211e-06
5.22228e-07
-1.12778e-06
5.86327e-07
4.57642e-07
-1.00399e-06
-1.33923e-07
-1.0992e-07
-9.05858e-07
5.4001e-07
4.75768e-07
-8.23521e-07
-1.08273e-07
5.0644e-07
4.25355e-07
4.44876e-07
-8.62231e-07
-1.25386e-07
5.42741e-07
5.10649e-07
-9.07067e-07
-5.72031e-08
4.53621e-07
3.99846e-07
-9.58549e-07
4.48783e-07
-9.59778e-07
5.36103e-07
4.1442e-07
-8.62319e-07
-1.00482e-07
-8.92731e-08
5.15055e-07
5.81504e-07
-1.00729e-06
-9.49782e-07
4.89175e-07
-1.16531e-07
5.77139e-07
4.90232e-07
-8.87799e-08
6.15165e-07
-1.01662e-06
4.89254e-07
4.97168e-07
-6.07776e-09
-9.80344e-07
4.40571e-07
-1.02453e-06
4.94685e-07
-1.08042e-06
5.71213e-07
4.70102e-07
-1.00538e-06
-1.20089e-07
3.40298e-08
4.50805e-07
-9.82568e-07
4.97734e-07
-9.1089e-07
4.64869e-07
-1.3014e-08
4.59035e-07
4.7192e-07
4.33018e-07
4.43084e-08
-9.49247e-07
4.01844e-07
5.95956e-08
-9.25069e-07
4.63629e-07
4.59217e-07
-8.90174e-07
4.64985e-07
-9.21205e-07
4.69533e-07
4.57108e-07
-9.45438e-07
7.82361e-09
-1.06318e-06
4.14807e-07
4.97788e-07
5.32289e-07
4.32878e-07
-1.06921e-06
5.01465e-07
-1.01067e-06
5.11878e-07
5.70074e-08
4.38357e-07
-9.52563e-07
4.57199e-07
-9.43359e-07
-5.51049e-07
4.31231e-07
-5.44992e-07
-1.00555e-06
5.11506e-07
-1.04908e-06
-1.06012e-06
5.69069e-07
5.10093e-07
-9.78804e-07
-4.01049e-07
-1.02873e-06
5.67552e-07
9.64943e-07
-1.10258e-06
5.70515e-07
-1.05659e-07
-5.2323e-07
-4.57885e-07
-1.28528e-07
5.70241e-07
-9.87462e-07
-5.05574e-07
4.68096e-07
-1.03173e-06
4.93148e-07
-1.05302e-06
-9.434e-07
4.55706e-07
9.64118e-07
4.76174e-07
-1.00727e-06
5.36415e-07
2.97044e-09
-1.04496e-06
-1.95121e-08
4.9338e-07
4.73708e-07
-1.19429e-07
1.0088e-06
-3.54573e-08
-4.82237e-07
-4.08601e-08
-4.40975e-07
-9.85839e-08
-5.24303e-07
8.99559e-07
9.58204e-07
-5.28878e-07
-5.29112e-08
-9.53917e-07
2.79882e-07
-3.28467e-07
1.0025e-06
2.83882e-07
-9.91092e-07
-3.46799e-07
1.05401e-06
-3.44908e-07
-1.04579e-06
3.68457e-07
1.02224e-06
1.00481e-06
-1.011e-06
3.40028e-07
-3.33837e-07
6.19807e-08
-6.727e-07
-3.43197e-07
-6.75261e-07
1.02112e-06
-5.88696e-10
3.32695e-07
-1.02076e-06
-1.06312e-06
3.03993e-07
-3.65393e-07
1.12452e-06
3.7402e-07
-4.4226e-07
1.19052e-06
-1.12228e-06
-4.00505e-07
4.6832e-07
1.16159e-06
-1.22941e-06
1.12077e-06
4.66536e-07
-3.80536e-07
-1.20677e-06
4.42376e-08
-7.24649e-07
-3.82706e-07
-7.26248e-07
1.14451e-06
-5.02551e-08
4.46376e-07
-1.17701e-06
-1.17457e-06
-4.28002e-07
4.97647e-07
1.10493e-06
5.56246e-07
-4.32389e-07
1.15464e-06
-1.2785e-06
-5.28251e-07
5.0116e-07
1.23686e-06
-1.20977e-06
1.13845e-06
-4.21265e-07
5.3519e-07
-1.25238e-06
-4.78999e-08
-6.75172e-07
-4.515e-07
-6.57203e-07
1.16555e-06
-7.78587e-08
5.41141e-07
-1.26331e-06
-1.05689e-06
9.8838e-07
4.08755e-07
-3.40244e-07
4.71203e-07
9.85954e-07
-3.36869e-07
-1.12029e-06
-3.62098e-07
1.01841e-06
4.87904e-07
-1.14422e-06
9.35391e-07
4.73478e-07
-3.21378e-07
-1.08749e-06
-9.1935e-08
-6.22748e-07
-3.42207e-07
-6.372e-07
1.01647e-06
-1.50518e-07
4.63161e-07
-1.14982e-06
-7.05149e-07
5.37926e-08
-3.39735e-07
-3.75471e-07
-1.20201e-08
-6.583e-07
-3.47369e-09
-6.55495e-07
-3.52029e-07
1.06791e-06
-5.43091e-08
-6.58026e-07
-3.5557e-07
3.67342e-07
-1.0419e-06
-3.05932e-08
-1.02889e-06
3.74793e-07
-3.48785e-07
-6.57568e-07
-7.38291e-07
1.09608e-06
1.10888e-06
-6.96652e-07
4.80391e-08
-7.25427e-07
1.14571e-06
-4.23893e-07
-6.82311e-07
1.09418e-06
-1.14659e-06
3.77707e-07
4.08664e-07
-1.15576e-06
1.10958e-06
-6.99062e-07
-1.04004e-06
-5.31954e-08
4.3493e-07
-6.24975e-08
3.95382e-07
4.54711e-07
-1.26783e-07
6.59129e-07
-1.19832e-07
4.79114e-07
-3.6964e-07
-1.10619e-06
4.35796e-07
-1.0897e-06
-3.81474e-07
-6.55882e-08
-1.16351e-06
6.64752e-07
-1.20585e-06
3.85648e-07
-1.20908e-06
1.04144e-07
-1.26196e-06
-1.1025e-06
-5.12509e-07
-5.03336e-07
-1.10743e-06
-1.22511e-06
7.88095e-07
-2.29064e-07
-8.92288e-07
3.33257e-07
3.88879e-07
7.9147e-07
-1.66002e-07
-1.01435e-06
-1.37977e-07
8.31034e-07
-1.05512e-06
3.62064e-07
-1.04126e-06
8.28955e-07
-1.89232e-07
4.0154e-07
-1.90348e-07
1.16684e-06
-1.88401e-07
1.18028e-06
-9.81753e-07
-2.3471e-07
3.60291e-07
8.07597e-07
8.72528e-07
5.13442e-07
-1.77199e-07
-1.20877e-06
7.00025e-07
-3.51509e-07
-1.50231e-06
1.1538e-06
-2.07624e-07
5.41316e-07
-1.36539e-06
1.0317e-06
-1.30805e-06
5.36316e-07
-2.93528e-07
1.06526e-06
-4.60386e-07
1.54329e-06
-2.10372e-07
1.62686e-06
-1.38722e-06
-3.19403e-07
5.54637e-07
1.09984e-06
9.29144e-07
-5.93334e-08
-1.30341e-06
4.33599e-07
5.10273e-07
-1.52168e-07
-1.3986e-06
1.0405e-06
-1.42521e-07
-1.48012e-06
4.73226e-07
1.14941e-06
-1.32108e-06
-2.25763e-07
4.7564e-07
1.0712e-06
-3.9859e-07
1.45872e-06
-1.30986e-07
1.51763e-06
-1.40595e-06
-3.1692e-07
4.54564e-07
1.05819e-06
9.19877e-07
-1.13382e-06
-2.37595e-07
4.51537e-07
4.7547e-07
-1.18691e-06
-2.92063e-07
1.0035e-06
-2.61685e-07
-1.22154e-06
4.60664e-07
1.02256e-06
-1.13568e-06
-2.87918e-07
4.47099e-07
9.76502e-07
-2.22133e-07
1.39995e-06
-2.57942e-07
1.434e-06
-1.18066e-06
-1.90212e-07
4.5448e-07
9.82103e-07
1.27967e-06
-3.18127e-07
-1.70077e-07
-1.16843e-07
-3.22551e-07
1.27043e-06
-2.83479e-07
1.30178e-06
-1.89345e-07
-9.09622e-07
-2.73725e-07
1.43204e-06
-2.4869e-07
4.47007e-07
1.16714e-06
-3.3447e-07
1.13776e-06
4.75204e-07
-2.17688e-07
1.32949e-06
1.34686e-06
-1.15154e-06
-1.25432e-06
1.51691e-06
3.60193e-07
1.49951e-06
-1.31839e-06
-4.58298e-07
1.30336e-06
-1.16761e-06
8.9615e-07
1.16236e-07
1.96471e-07
8.78652e-07
-1.22071e-06
1.43532e-06
1.21205e-06
-3.32353e-07
3.9073e-07
-2.61564e-07
4.29524e-07
4.83757e-07
-2.38634e-07
-1.43077e-06
-2.36225e-07
4.45451e-07
-1.63655e-07
9.37428e-07
4.38277e-07
9.04266e-07
-2.0736e-07
-2.85979e-07
9.11671e-07
-1.48335e-06
1.02136e-06
2.529e-07
1.02537e-06
3.1782e-07
1.02952e-06
1.26648e-06
-4.85791e-07
-5.02851e-07
1.26734e-06
1.01739e-06
-5.64922e-07
-7.79056e-07
-4.36487e-07
1.78046e-06
1.56492e-06
-4.34494e-07
-7.23607e-07
-4.06816e-07
-2.1999e-07
-5.24333e-07
-7.5361e-07
1.49794e-06
-7.73132e-07
-5.47702e-07
-2.67021e-07
1.58786e-06
-1.24997e-06
1.07526e-06
-3.90209e-07
1.09015e-06
-7.75208e-07
-1.35992e-06
1.66205e-06
-4.89761e-07
-4.26533e-07
1.41133e-06
-6.78014e-07
-3.06788e-07
1.33474e-06
-6.65535e-07
-4.77976e-07
-1.91225e-07
-2.12121e-07
1.3871e-06
-6.89348e-07
-4.85628e-07
-6.84843e-07
1.39763e-06
-4.76911e-07
-2.35876e-07
-1.11348e-06
9.13745e-07
-2.26796e-07
8.8265e-07
-6.61395e-07
-1.14349e-06
1.37239e-06
-4.72961e-07
-5.3979e-07
-1.75406e-07
-7.12081e-07
1.42728e-06
1.4082e-06
-1.85473e-07
-7.05781e-07
-5.16946e-07
-1.61562e-07
-6.84532e-07
-5.37617e-07
1.38371e-06
-7.08577e-07
-1.69401e-07
-5.5262e-07
1.4306e-06
-1.24051e-06
8.86178e-07
-1.8546e-07
8.78472e-07
-7.1078e-07
-1.24553e-06
1.42313e-06
-5.28624e-07
-5.47162e-07
-7.31068e-07
-2.30477e-07
1.50871e-06
1.4522e-06
-7.05703e-07
-5.08191e-07
-2.38307e-07
-1.84013e-07
-6.96087e-07
-5.6676e-07
1.44686e-06
-7.0921e-07
-5.45266e-07
-2.17533e-07
1.47201e-06
-1.24158e-06
9.27209e-07
-2.32789e-07
9.20421e-07
-7.09801e-07
-1.26833e-06
1.48633e-06
-5.31919e-07
9.96798e-07
-1.11967e-06
-3.11625e-07
-2.42276e-07
-1.24192e-06
9.59859e-07
-1.24795e-06
9.84487e-07
-2.84243e-07
4.92128e-07
-1.17462e-06
9.31057e-07
-2.48567e-07
1.47582e-06
7.30504e-07
-1.20953e-06
7.43787e-07
1.50121e-06
-2.78583e-07
9.97056e-07
9.82436e-07
-6.90767e-07
-6.9888e-07
9.21892e-07
1.18817e-06
9.05859e-07
-7.06936e-07
-1.46061e-06
9.39342e-07
-7.20645e-07
-4.53156e-07
2.26062e-07
2.20356e-07
-5.0828e-07
-7.2627e-07
9.00249e-07
7.50101e-07
-1.29068e-06
1.50043e-06
-1.3215e-06
1.57492e-06
1.43353e-06
-1.20817e-06
-8.88189e-07
-1.26998e-06
1.46209e-06
-1.93627e-07
-5.58741e-07
1.50247e-06
-5.18074e-07
-2.05652e-07
-1.24128e-06
-5.26742e-07
-8.96717e-07
-5.42667e-07
2.0356e-07
-4.89842e-07
1.2156e-06
-4.95218e-07
7.08702e-07
-1.4209e-06
-1.42929e-06
6.94951e-07
-5.30782e-07
-5.32368e-07
-1.06169e-06
-1.58147e-07
1.551e-06
-4.58358e-07
-9.03534e-07
-1.89108e-07
-1.32069e-07
-4.50274e-07
-8.32832e-07
-9.03049e-07
-5.10152e-07
-6.90769e-08
-1.43226e-06
1.03107e-06
-1.3118e-07
1.06168e-06
-9.4294e-07
-1.38806e-06
-4.58443e-07
-4.54701e-07
1.35027e-06
-7.81813e-07
-1.13759e-07
1.2283e-06
-7.30534e-07
-4.62355e-08
-4.51534e-07
-2.82728e-08
1.18878e-06
-7.27365e-07
-4.33137e-07
-7.54097e-07
1.38066e-06
-1.35016e-07
-4.91545e-07
-1.19183e-06
8.29073e-07
-9.19389e-08
7.75819e-07
-7.39351e-07
-1.20808e-06
1.28305e-06
-4.6053e-07
-4.36496e-07
-4.68067e-08
-7.39312e-07
1.16831e-06
-1.4526e-08
-7.25845e-07
-4.27934e-07
5.10149e-09
-7.2318e-07
-4.31779e-07
-7.34071e-07
-5.31148e-08
-4.50213e-07
-1.16329e-06
7.58945e-07
-3.2154e-08
7.29185e-07
-7.24166e-07
-1.17899e-06
-4.44705e-07
-5.38839e-07
-8.29857e-07
-8.56312e-08
1.45866e-06
-7.88268e-07
-1.37251e-07
-5.33137e-07
-9.60783e-08
-7.63842e-07
-4.94788e-07
-8.11247e-07
-8.59028e-08
-5.4866e-07
-1.34308e-06
9.1786e-07
-1.13618e-07
9.07207e-07
-7.91631e-07
-1.36514e-06
-5.5401e-07
9.27948e-07
-1.2732e-06
-1.13109e-07
-9.52356e-08
-1.22362e-06
8.68584e-07
-1.34681e-06
9.21445e-07
-8.47861e-08
5.12519e-07
-1.27122e-06
9.06267e-07
-1.47565e-07
1.39488e-06
8.0552e-07
-1.27245e-06
8.41197e-07
1.43579e-06
-1.1775e-07
9.30175e-07
8.9956e-07
-8.22485e-07
-7.64553e-07
8.73991e-07
1.16553e-06
7.51778e-07
-7.28534e-07
-1.28142e-06
8.22935e-07
-7.6514e-07
-4.58064e-07
8.51756e-08
6.04351e-08
-4.42284e-07
-7.53958e-07
7.83683e-07
7.77573e-07
-1.22217e-06
-1.35989e-06
1.41275e-06
-1.29475e-06
-8.44095e-07
-1.24957e-06
-9.59323e-08
-4.78738e-07
-5.25646e-07
-9.54711e-08
-1.22736e-06
-4.46037e-07
-8.15702e-07
-4.86979e-07
8.90795e-08
-5.09838e-07
1.19362e-06
-4.56367e-07
7.56176e-07
-1.23437e-06
-1.28689e-06
7.42935e-07
-4.54873e-07
1.12589e-06
-8.18928e-07
-9.72495e-07
-7.70628e-07
1.17193e-06
-1.07931e-06
-1.03441e-06
1.16797e-06
-8.22906e-07
6.85435e-07
1.15439e-06
-8.17576e-07
-1.02225e-06
1.78931e-06
3.42666e-07
-1.00609e-06
3.57285e-07
1.84012e-06
-8.12015e-07
1.16299e-06
1.28822e-06
-7.70494e-07
-1.24133e-06
-8.65338e-07
-1.44545e-06
1.53174e-06
-1.13727e-06
-8.73895e-07
1.25756e-06
7.54509e-07
-8.55551e-07
-1.24551e-06
1.34655e-06
2.07369e-06
4.88288e-07
-1.27376e-06
4.33145e-07
2.10446e-06
-8.6166e-07
1.40033e-06
1.1879e-06
-1.03502e-06
-8.58658e-07
-8.84433e-07
-1.02859e-06
1.20094e-06
-9.88075e-07
-8.77415e-07
1.18096e-06
6.97056e-07
-1.01561e-06
-8.77051e-07
1.19561e-06
1.90531e-06
3.18318e-07
-1.03573e-06
3.10094e-07
1.88255e-06
-8.67173e-07
1.20457e-06
1.17508e-06
6.98327e-07
-8.21968e-07
-1.05144e-06
-8.46678e-07
7.33568e-07
-1.12115e-06
1.23426e-06
-1.03015e-06
7.09085e-07
-8.62569e-07
1.18363e-06
7.17861e-07
-8.36999e-07
-1.06594e-06
1.18508e-06
1.90059e-06
3.40089e-07
-1.0656e-06
3.32479e-07
7.21431e-07
1.9088e-06
-8.50854e-07
1.21114e-06
4.08751e-07
1.86897e-06
-1.10579e-06
-1.0561e-06
1.8835e-06
3.40574e-07
1.85203e-06
3.53884e-07
-1.05152e-06
-1.21628e-06
1.95825e-06
3.90892e-07
-1.13286e-06
-8.07713e-07
-6.99922e-07
1.91639e-06
-7.00824e-07
-7.97241e-07
-1.11896e-06
3.53962e-07
4.07706e-07
7.3209e-07
3.70611e-07
-1.94612e-06
3.51575e-07
8.39097e-07
3.37464e-07
1.21779e-06
1.1063e-06
1.08822e-06
1.21912e-06
3.61233e-07
-7.01954e-07
1.88412e-06
-8.41595e-07
1.87542e-06
-8.23208e-07
-8.603e-07
1.98476e-06
-3.22849e-07
1.89491e-06
-8.62975e-07
-1.0471e-06
1.18343e-06
-8.38281e-07
1.18228e-06
-1.04341e-06
1.90399e-06
1.18657e-06
-3.20773e-07
1.20007e-06
1.07411e-06
1.28126e-06
-1.93864e-06
1.26163e-06
-7.03372e-07
8.54213e-07
8.79844e-07
-7.23198e-07
1.23076e-06
4.75628e-07
9.12468e-07
6.88641e-08
7.17211e-08
4.58531e-07
8.63003e-07
-1.46865e-06
4.68914e-07
8.97239e-07
1.02498e-07
9.1042e-07
5.12045e-07
4.3034e-08
1.39993e-06
5.74363e-07
5.64272e-07
9.07377e-07
1.39779e-06
8.69923e-08
4.93413e-07
4.60681e-07
3.06974e-08
7.97279e-07
1.67704e-08
7.41254e-07
4.48322e-07
-1.25036e-06
3.1139e-08
7.65817e-07
4.53401e-07
7.74967e-07
1.50789e-08
4.64983e-07
1.2389e-06
4.78391e-07
4.79583e-07
7.76089e-07
1.22812e-06
2.52376e-08
4.57346e-07
4.74026e-07
-1.41436e-06
8.67887e-07
7.24502e-08
5.26597e-08
-1.29724e-06
7.86497e-07
4.58079e-07
-1.37728e-06
8.12567e-07
6.82828e-08
4.96429e-07
8.51623e-07
-1.39869e-06
4.38573e-08
5.03215e-07
1.31786e-06
5.37578e-07
-1.38141e-06
5.45397e-07
8.25119e-07
1.32609e-06
6.31123e-08
4.94207e-07
5.12964e-07
8.90242e-07
-4.06047e-08
-1.10908e-08
8.16582e-07
4.86367e-07
-1.38492e-06
8.71809e-07
-4.06822e-09
5.17174e-07
8.72671e-07
-6.52497e-08
5.1506e-07
1.39365e-06
4.74265e-07
5.07119e-07
8.75441e-07
1.39525e-06
-4.83119e-08
5.17451e-07
5.07431e-07
1.32519e-06
-1.44082e-06
1.35595e-06
5.53784e-07
1.41618e-06
5.1816e-07
-4.72743e-07
1.2983e-06
4.73862e-07
4.42617e-08
-8.41409e-07
1.30458e-06
-9.03145e-07
2.76053e-08
5.40639e-07
5.1197e-07
8.4392e-07
8.15711e-07
4.97668e-07
-1.26794e-06
5.02545e-07
7.96533e-07
-5.73054e-08
5.42188e-07
8.71068e-07
4.70131e-07
1.34642e-06
1.31108e-06
4.49474e-07
8.39638e-07
4.92615e-07
-8.84897e-07
1.35723e-06
8.14524e-08
1.39815e-06
1.02491e-08
-7.4428e-10
1.29119e-06
-5.18456e-07
1.37402e-06
1.62493e-08
-1.43181e-06
4.98034e-07
4.88782e-08
5.06982e-07
-1.38168e-06
1.36126e-06
4.85056e-07
-5.36014e-07
5.11336e-07
1.30844e-06
4.80415e-07
-1.2588e-06
4.64106e-07
-8.56089e-07
-4.02615e-08
-3.08459e-08
-8.06443e-07
4.71152e-07
-8.89717e-07
4.57169e-07
-2.70783e-07
7.03332e-07
7.11809e-07
-8.99123e-07
4.68171e-07
-2.80858e-07
-2.86479e-07
-8.69482e-07
4.58916e-07
6.97044e-07
4.61073e-07
-8.84002e-07
-2.86026e-07
7.08955e-07
-4.32623e-07
-1.75166e-07
-2.81929e-07
-1.81153e-07
4.60339e-07
-4.18532e-07
7.04439e-07
-8.86163e-07
-9.02378e-07
7.23457e-07
4.73249e-07
-2.94328e-07
7.29465e-07
4.76604e-07
-3.09666e-07
-3.02795e-07
7.17122e-07
4.7228e-07
4.74471e-07
7.22372e-07
-3.11029e-07
-4.25891e-07
-1.72526e-07
-3.03961e-07
-1.69134e-07
4.72708e-07
-4.15622e-07
7.17567e-07
-8.64073e-07
-2.91583e-07
4.57118e-07
6.98538e-07
7.08627e-07
-2.97577e-07
4.63731e-07
-2.96696e-07
4.58939e-07
6.98392e-07
4.54882e-07
-2.96893e-07
7.10925e-07
-4.09972e-07
-1.57708e-07
-2.96393e-07
-1.60859e-07
4.59514e-07
-4.04276e-07
7.01451e-07
-8.78042e-07
4.61038e-07
-2.97688e-07
7.14692e-07
7.20286e-07
4.67954e-07
-3.08874e-07
-2.97987e-07
4.55522e-07
7.17381e-07
4.58183e-07
-3.0422e-07
7.24226e-07
-4.15084e-07
-1.59431e-07
-3.03526e-07
-1.60221e-07
4.65422e-07
-4.17338e-07
7.16089e-07
-1.77733e-07
-4.32496e-07
-2.88895e-07
-2.87792e-07
-4.14865e-07
-1.66824e-07
-4.23023e-07
-1.67671e-07
-2.93308e-07
8.86006e-07
-4.15678e-07
-1.66246e-07
-3.04081e-07
7.1162e-07
-4.67688e-07
-4.21664e-07
-4.62335e-07
7.16287e-07
-2.9797e-07
-1.69071e-07
-1.77166e-07
4.68128e-07
4.70929e-07
-1.64235e-07
4.15679e-07
-1.65924e-07
4.67367e-07
-7.05099e-07
-1.70247e-07
4.60481e-07
-8.91587e-07
2.92757e-07
2.96909e-07
-8.80855e-07
4.68513e-07
-1.68266e-07
-4.56073e-07
-4.12691e-07
7.01939e-07
-4.16991e-07
7.10358e-07
7.14637e-07
-4.12929e-07
1.58219e-07
-4.12491e-07
7.09794e-07
-2.92816e-07
-8.72488e-07
7.0923e-07
-8.78879e-07
-3.0118e-07
-4.13088e-07
-8.74521e-07
1.61318e-07
3.01593e-07
4.11801e-07
-4.62654e-07
-7.0826e-07
-7.14424e-07
-4.64725e-07
-6.68165e-07
-2.14463e-07
-7.21576e-07
1.6042e-06
-1.37504e-07
-6.9176e-07
-6.02944e-07
1.43221e-06
1.39621e-06
-5.98026e-07
-2.38869e-07
-5.59311e-07
-5.75776e-07
-6.99512e-07
-1.83044e-07
1.45833e-06
-1.31796e-06
-8.81394e-07
1.53119e-06
-7.93666e-07
-6.61794e-07
-1.25069e-06
-2.0648e-07
-6.4815e-07
-6.87854e-07
-6.05339e-08