/*--------------------------------*- C++ -*----------------------------------*\
| =========                 |                                                 |
| \\      /  F ield         | OpenFOAM: The Open Source CFD Toolbox           |
|  \\    /   O peration     | Version:  2506                                  |
|   \\  /    A nd           | Website:  www.openfoam.com                      |
|    \\/     M anipulation  |                                                 |
\*---------------------------------------------------------------------------*/
FoamFile
{
    version     2.0;
    format      ascii;
    arch        "LSB;label=32;scalar=64";
    class       surfaceScalarField;
    location    "1900";
    object      phi;
}
// * * * * * * * * * * * * * * * * * * * * * * * * * * * * * * * * * * * * * //

dimensions      [0 3 -1 0 0 0 0];

oriented        oriented;

internalField   nonuniform List<scalar> 
110816
(
6.59814e-07
-1.9126e-06
1.20885e-06
4.39404e-08
4.30508e-08
6.58951e-07
-1.91523e-06
1.21323e-06
-1.91349e-06
6.55014e-07
1.21467e-06
4.38053e-08
1.21071e-06
6.57815e-07
-1.91299e-06
4.4461e-08
1.86969e-06
7.02949e-07
-1.91282e-06
7.0181e-07
1.21093e-06
1.86878e-06
4.48736e-08
6.57106e-07
6.59049e-07
4.0922e-08
-1.91894e-06
1.21897e-06
3.64989e-08
-1.91953e-06
1.22135e-06
6.61679e-07
-1.91046e-06
3.53105e-08
1.21842e-06
6.56725e-07
1.21486e-06
3.76487e-08
-1.91052e-06
6.58012e-07
1.87655e-06
6.9721e-07
-1.91471e-06
6.92055e-07
1.221e-06
1.87587e-06
3.62017e-08
6.57468e-07
6.49021e-07
-1.90966e-06
1.21752e-06
4.31201e-08
3.84137e-08
-1.90138e-06
1.21107e-06
6.51898e-07
-1.89584e-06
1.20565e-06
6.47289e-07
4.29048e-08
1.20835e-06
-1.90229e-06
6.50235e-07
4.3709e-08
1.85872e-06
6.89743e-07
-1.89944e-06
6.89463e-07
1.20767e-06
1.85537e-06
4.2723e-08
6.4899e-07
6.5662e-07
1.21025e-06
-1.9114e-06
4.45317e-08
4.16181e-08
1.20947e-06
-1.90767e-06
6.56581e-07
-1.90605e-06
1.208e-06
6.53835e-07
4.42136e-08
1.20837e-06
-1.90936e-06
6.56172e-07
4.48185e-08
1.8668e-06
6.99249e-07
-1.90943e-06
6.98281e-07
1.21014e-06
1.86228e-06
4.53348e-08
6.54516e-07
7.00567e-07
1.87202e-06
-1.91364e-06
-1.91013e-06
1.86896e-06
6.9618e-07
1.86878e-06
7.00657e-07
-1.91162e-06
-6.57339e-07
1.8695e-06
6.97221e-07
-1.90938e-06
4.16957e-08
-1.21323e-06
1.87211e-06
-1.21132e-06
4.16599e-08
-1.91223e-06
6.99114e-07
6.97429e-07
1.21552e-06
1.21197e-06
6.9518e-07
-1.86805e-06
6.9033e-07
1.21303e-06
-4.04592e-08
6.95621e-07
1.2138e-06
6.56678e-07
1.91286e-06
1.90485e-06
6.54602e-07
1.2178e-06
6.91397e-07
-1.21306e-06
1.86593e-06
4.3305e-08
1.86626e-06
4.46439e-08
4.06373e-08
1.86605e-06
-6.96652e-07
1.85975e-06
4.48992e-08
-1.9102e-06
6.5348e-07
4.36612e-08
6.55179e-07
-1.90596e-06
1.86279e-06
6.51888e-07
-6.94008e-07
6.51468e-07
1.90536e-06
6.55872e-07
-1.86384e-06
6.52795e-07
-1.20917e-06
-3.83806e-08
-4.03932e-08
-1.21082e-06
6.54142e-07
1.69884e-07
-1.28337e-06
-7.99114e-07
1.91237e-06
1.6988e-07
-1.28348e-06
-7.98775e-07
-1.28515e-06
1.68446e-07
-7.98532e-07
-7.9733e-07
1.68068e-07
-1.28372e-06
-6.28669e-07
2.08218e-06
-1.28363e-06
2.0821e-06
-7.98391e-07
-6.27971e-07
1.68979e-07
1.70277e-07
1.91198e-06
-1.28347e-06
-7.98789e-07
1.91186e-06
-1.28325e-06
1.7018e-07
-7.98787e-07
-1.28506e-06
1.91302e-06
1.69429e-07
-7.97386e-07
-7.96921e-07
1.91135e-06
-1.28408e-06
1.69649e-07
-6.27911e-07
2.08191e-06
-1.28372e-06
2.08227e-06
-7.9833e-07
-6.27496e-07
1.91248e-06
1.69714e-07
1.68277e-07
-1.28827e-06
-7.98956e-07
1.91494e-06
-1.28756e-06
1.69086e-07
-7.96469e-07
-1.29406e-06
1.71332e-07
-7.96801e-07
-7.91825e-07
-1.28731e-06
1.68614e-07
-6.26214e-07
2.0816e-06
-1.2871e-06
2.08686e-06
-7.98128e-07
-6.24943e-07
1.67852e-07
1.67316e-07
-7.95347e-07
-1.28337e-06
1.91048e-06
-7.95592e-07
-1.28374e-06
1.68851e-07
-1.28371e-06
-7.92135e-07
1.68173e-07
-7.94237e-07
-1.28223e-06
1.67104e-07
-6.27178e-07
2.07763e-06
-1.28314e-06
2.07788e-06
-7.94582e-07
-6.26037e-07
1.68139e-07
2.08176e-06
-6.28123e-07
-1.28376e-06
-1.28503e-06
-6.28584e-07
2.08206e-06
-6.28239e-07
2.07995e-06
-1.28364e-06
-1.68898e-07
-6.27151e-07
2.08001e-06
-1.28396e-06
1.91237e-06
7.97039e-07
-6.27652e-07
7.96323e-07
1.91242e-06
-1.28428e-06
2.0805e-06
2.08207e-06
-7.98217e-07
-7.96752e-07
2.08095e-06
6.27324e-07
2.08325e-06
-7.97556e-07
-1.9132e-06
2.08304e-06
-7.98428e-07
1.69715e-07
1.28471e-06
1.28544e-06
1.68696e-07
-7.97186e-07
2.08146e-06
7.94879e-07
-6.26459e-07
-6.2702e-07
1.91086e-06
-6.26449e-07
-2.07805e-06
-6.2347e-07
-1.28538e-06
1.68028e-07
1.681e-07
-1.28438e-06
-6.25637e-07
1.68317e-07
-2.07927e-06
1.68487e-07
1.28511e-06
1.69393e-07
6.26208e-07
1.69484e-07
7.93734e-07
-1.91252e-06
-1.91117e-06
7.95149e-07
1.69088e-07
-5.66505e-07
1.79525e-06
-1.15204e-06
-7.67015e-08
-8.42704e-08
-5.63857e-07
1.81789e-06
-1.16976e-06
1.8223e-06
-5.66839e-07
-1.17763e-06
-7.78283e-08
-1.17166e-06
-5.65647e-07
1.81216e-06
-7.48507e-08
-1.73567e-06
-6.464e-07
1.81557e-06
-6.47906e-07
-1.17204e-06
-1.74086e-06
-7.72002e-08
-5.66464e-07
-5.62955e-07
-8.95934e-08
1.83349e-06
-1.18094e-06
-9.01019e-08
1.84954e-06
-1.19397e-06
-5.65459e-07
1.8423e-06
-8.2027e-08
-1.19795e-06
-5.62329e-07
-1.19103e-06
-8.33653e-08
1.83695e-06
-5.62562e-07
-1.75488e-06
-6.49147e-07
1.84107e-06
-6.49003e-07
-1.19598e-06
-1.75622e-06
-8.39499e-08
-5.62923e-07
-5.64792e-07
1.83603e-06
-1.19369e-06
-7.75545e-08
-7.85188e-08
1.84174e-06
-1.20068e-06
-5.62543e-07
1.84405e-06
-1.20483e-06
-5.61752e-07
-7.74662e-08
-1.20065e-06
1.84048e-06
-5.62551e-07
-7.72802e-08
-1.76324e-06
-6.41324e-07
1.83978e-06
-6.41169e-07
-1.20059e-06
-1.76492e-06
-7.70615e-08
-5.62032e-07
-5.64085e-07
-1.18292e-06
1.82241e-06
-7.54089e-08
-7.91616e-08
-1.19171e-06
1.83303e-06
-5.62158e-07
1.83668e-06
-1.19659e-06
-5.62932e-07
-7.71622e-08
-1.19325e-06
1.83216e-06
-5.62897e-07
-7.60114e-08
-1.75383e-06
-6.41075e-07
1.83082e-06
-6.41156e-07
-1.19184e-06
-1.75799e-06
-7.63306e-08
-5.62471e-07
-6.48792e-07
-1.74407e-06
1.829e-06
1.83078e-06
-1.75357e-06
-6.44046e-07
-1.74628e-06
-6.42271e-07
1.8229e-06
5.63195e-07
-1.75107e-06
-6.4418e-07
1.83206e-06
-8.12008e-08
1.18199e-06
-1.74958e-06
1.18311e-06
-7.9729e-08
1.82491e-06
-6.42892e-07
-6.49075e-07
-1.18459e-06
-1.19043e-06
-6.44011e-07
1.75855e-06
-6.4352e-07
-1.19706e-06
8.14342e-08
-6.44558e-07
-1.19045e-06
-5.63846e-07
-1.83481e-06
-1.83822e-06
-5.64225e-07
-1.18915e-06
-6.43897e-07
1.18718e-06
-1.75609e-06
-7.51327e-08
-1.74984e-06
-7.53536e-08
-7.95687e-08
-1.75633e-06
6.41494e-07
-1.76158e-06
-7.6503e-08
1.8285e-06
-5.64575e-07
-7.6746e-08
-5.64232e-07
1.83564e-06
-1.75872e-06
-5.64614e-07
6.41526e-07
-5.62619e-07
-1.83771e-06
-5.62621e-07
1.76103e-06
-5.6281e-07
1.19611e-06
7.90479e-08
7.89204e-08
1.19618e-06
-5.62617e-07
-1.80981e-06
1.27212e-06
-2.10815e-07
7.48505e-07
1.2768e-06
-1.8217e-06
-2.11339e-07
7.56244e-07
-2.11355e-07
-1.8086e-06
1.27232e-06
7.47632e-07
7.46208e-07
-1.81969e-06
1.28492e-06
-2.11435e-07
-1.06279e-06
-5.36165e-07
-2.10853e-07
-5.39102e-07
7.53115e-07
-1.06898e-06
1.27902e-06
-1.81944e-06
-1.83581e-06
1.28595e-06
-2.13019e-07
7.62881e-07
1.29629e-06
-2.15697e-07
7.6894e-07
-2.12337e-07
1.28418e-06
7.61647e-07
7.54384e-07
1.29459e-06
-2.12017e-07
-1.07816e-06
-5.45508e-07
-2.12148e-07
-5.48191e-07
7.66329e-07
-1.08054e-06
1.28942e-06
-1.80466e-06
-2.15759e-07
1.27298e-06
7.47442e-07
1.27706e-06
-2.1478e-07
7.55609e-07
-2.20679e-07
1.26848e-06
7.47445e-07
7.46797e-07
-2.18199e-07
1.28356e-06
-1.05879e-06
-5.29663e-07
-2.16202e-07
-5.32982e-07
7.51244e-07
-1.06191e-06
1.27904e-06
-1.82671e-06
7.45889e-07
1.29333e-06
-2.12508e-07
1.29628e-06
7.48977e-07
-2.12218e-07
-2.1596e-07
7.46293e-07
1.29208e-06
7.46405e-07
1.29908e-06
-2.13322e-07
-1.0813e-06
-5.3253e-07
-2.12886e-07
-5.33327e-07
7.48305e-07
-1.08154e-06
1.29541e-06
-5.40521e-07
-1.06996e-06
-2.11227e-07
-2.13101e-07
-1.0618e-06
-5.33698e-07
-1.0746e-06
-5.33114e-07
-2.11976e-07
1.82773e-06
-1.07911e-06
-5.36347e-07
-2.12267e-07
1.28262e-06
-7.50691e-07
-1.07245e-06
-7.49921e-07
1.28884e-06
-2.11798e-07
-5.35687e-07
-5.45241e-07
7.61235e-07
7.54015e-07
-5.38542e-07
1.06745e-06
-5.41986e-07
7.58719e-07
-1.27749e-06
-5.36039e-07
7.51725e-07
-1.83e-06
2.12308e-07
2.13434e-07
-1.8205e-06
7.55322e-07
-5.3962e-07
-7.46565e-07
-1.06514e-06
1.27801e-06
-1.07562e-06
1.2884e-06
1.292e-06
-1.07937e-06
5.31339e-07
-1.07344e-06
1.28839e-06
-2.14171e-07
-1.81596e-06
1.28357e-06
-1.82548e-06
-2.14823e-07
-1.0698e-06
-1.81694e-06
5.31267e-07
2.14147e-07
1.07224e-06
-7.4913e-07
-1.28401e-06
-1.28766e-06
-7.51394e-07
1.05896e-06
-1.27054e-06
-7.93982e-07
1.00556e-06
1.00529e-06
1.05928e-06
-1.27055e-06
-7.94014e-07
-1.2718e-06
1.05897e-06
-7.92621e-07
1.00545e-06
-7.92661e-07
1.05866e-06
-1.27112e-06
1.00512e-06
2.65649e-07
2.0642e-06
-1.27089e-06
2.06439e-06
-7.93458e-07
2.66135e-07
1.00541e-06
1.05872e-06
1.05935e-06
1.00518e-06
-1.27054e-06
-7.93984e-07
1.00521e-06
1.0597e-06
-1.27063e-06
-7.94282e-07
-1.27251e-06
1.00498e-06
1.06078e-06
-7.93246e-07
-7.92336e-07
1.00383e-06
1.05971e-06
-1.27121e-06
2.66102e-07
2.06402e-06
-1.27078e-06
2.06512e-06
-7.93807e-07
2.67286e-07
1.0044e-06
1.05989e-06
1.05929e-06
-1.27458e-06
-7.92323e-07
1.00761e-06
1.00553e-06
-1.27511e-06
1.06194e-06
-7.92351e-07
-1.27892e-06
1.0642e-06
-7.94998e-07
1.00972e-06
-7.87695e-07
-1.27408e-06
1.05738e-06
1.0044e-06
2.70493e-07
2.06449e-06
-1.27569e-06
2.06862e-06
-7.92594e-07
2.71596e-07
1.0052e-06
1.06129e-06
1.05791e-06
-7.91294e-07
-1.27041e-06
1.00379e-06
1.002e-06
-7.90602e-07
1.0591e-06
-1.2705e-06
-1.27058e-06
-7.88721e-07
1.05792e-06
1.00138e-06
-7.90158e-07
1.05749e-06
-1.26881e-06
1.00148e-06
2.68269e-07
2.05978e-06
-1.27014e-06
2.05944e-06
-7.89172e-07
2.68668e-07
1.00095e-06
1.05753e-06
2.06397e-06
2.66185e-07
-1.27087e-06
-1.2732e-06
2.67705e-07
2.06447e-06
2.67217e-07
2.06265e-06
-1.27121e-06
-1.05881e-06
2.67851e-07
2.06203e-06
-1.27107e-06
1.00541e-06
7.91895e-07
2.66659e-07
7.90934e-07
1.00437e-06
-1.27128e-06
2.06252e-06
2.065e-06
-7.93637e-07
-7.90988e-07
2.06267e-06
-2.68848e-07
2.06674e-06
-7.92909e-07
-1.00549e-06
2.06563e-06
-7.92435e-07
1.05909e-06
1.27257e-06
1.2725e-06
1.05981e-06
-7.92739e-07
2.06347e-06
7.90554e-07
2.68391e-07
1.00552e-06
2.67751e-07
1.00361e-06
1.00335e-06
2.68084e-07
-2.06049e-06
2.69999e-07
1.00177e-06
-1.27243e-06
1.05857e-06
1.00442e-06
1.05783e-06
-1.27201e-06
2.7009e-07
1.05944e-06
-2.0618e-06
1.05772e-06
1.27244e-06
1.05831e-06
-2.69443e-07
1.06106e-06
7.88199e-07
-1.00445e-06
-1.00351e-06
7.89581e-07
1.05851e-06
-2.58761e-07
6.05117e-07
6.03749e-07
-2.57835e-07
-1.2774e-06
-2.56618e-07
6.0633e-07
9.31115e-07
-2.57908e-07
6.11713e-07
6.68921e-07
3.5134e-07
3.47959e-07
6.72669e-07
6.09786e-07
-2.56771e-07
-2.55626e-07
6.0198e-07
5.97803e-07
-2.5276e-07
-1.27423e-06
6.01591e-07
-2.52445e-07
9.29363e-07
6.07663e-07
-2.53466e-07
6.73018e-07
3.50395e-07
3.46898e-07
6.74375e-07
6.05383e-07
-2.5296e-07
-2.54531e-07
-1.28081e-06
6.06549e-07
6.04122e-07
-1.27879e-06
-2.51977e-07
-1.28343e-06
6.06786e-07
-2.52614e-07
9.32399e-07
-1.28872e-06
6.10896e-07
-2.54572e-07
6.74494e-07
3.54742e-07
-1.28377e-06
3.53123e-07
6.77371e-07
6.0977e-07
-2.52935e-07
-2.57612e-07
9.35343e-07
6.15601e-07
6.13182e-07
9.33548e-07
-2.54649e-07
-1.29411e-06
9.35527e-07
6.14538e-07
-2.55953e-07
9.37908e-07
6.18363e-07
-2.57195e-07
6.79221e-07
3.58578e-07
3.57583e-07
9.3482e-07
6.79997e-07
6.16489e-07
-2.56532e-07
3.49949e-07
6.70223e-07
-1.28157e-06
6.71638e-07
3.53316e-07
6.74972e-07
3.55518e-07
2.56313e-07
6.77231e-07
3.54847e-07
6.07841e-07
-9.30532e-07
6.7264e-07
-9.30502e-07
6.09348e-07
3.53818e-07
3.4737e-07
9.30745e-07
3.54148e-07
-6.73739e-07
3.50605e-07
-6.03561e-07
3.50399e-07
-2.54687e-07
1.2747e-06
1.28144e-06
-2.54805e-07
3.52896e-07
-9.32362e-07
6.75678e-07
6.1e-07
6.77507e-07
6.13353e-07
6.10968e-07
6.77427e-07
-3.56483e-07
6.78818e-07
6.13192e-07
-1.28775e-06
-2.55825e-07
6.11213e-07
-2.56425e-07
-1.28936e-06
6.77054e-07
-2.54738e-07
-3.55231e-07
-2.54674e-07
1.28584e-06
-2.5426e-07
-6.75579e-07
-2.52605e-07
-9.30465e-07
-6.0804e-07
-6.08642e-07
-9.30722e-07
-2.53528e-07
-3.22004e-07
-2.84843e-07
-3.12483e-07
-2.90329e-07
-3.18316e-07
-3.12413e-07
-3.14808e-07
-3.19829e-07
-2.85721e-07
9.29235e-07
-3.19798e-07
-2.95748e-07
-3.13689e-07
6.03376e-07
-6.13102e-07
-3.12278e-07
-6.10902e-07
6.05449e-07
-2.89317e-07
-3.2026e-07
-3.15018e-07
-2.96212e-07
-3.1126e-07
-3.0132e-07
-3.12324e-07
-3.101e-07
-3.12994e-07
-2.96679e-07
-3.12999e-07
9.30557e-07
-3.03434e-07
-3.14453e-07
-3.1267e-07
6.12816e-07
-6.16685e-07
-3.11149e-07
-6.14511e-07
6.14699e-07
-3.00827e-07
-3.12807e-07
-3.17929e-07
-3.17177e-07
-2.85939e-07
-2.916e-07
-3.16568e-07
-3.13242e-07
-3.18914e-07
-3.15069e-07
-2.85729e-07
9.29447e-07
-3.17501e-07
-3.15258e-07
-2.96688e-07
6.09594e-07
-6.10007e-07
-3.17515e-07
-6.0635e-07
6.11294e-07
-2.91854e-07
-3.13971e-07
-3.16217e-07
9.35287e-07
-3.07525e-07
-3.11544e-07
-3.08973e-07
9.35133e-07
-3.14313e-07
-3.11846e-07
-3.1372e-07
9.35408e-07
-3.14214e-07
-3.07474e-07
9.3866e-07
-3.12919e-07
-3.16213e-07
-3.09528e-07
6.21805e-07
-6.26925e-07
-3.11098e-07
-6.23627e-07
9.36459e-07
6.23952e-07
-3.12216e-07
-3.13395e-07
-6.14521e-07
6.09181e-07
-3.12977e-07
-3.14789e-07
6.06236e-07
-6.11277e-07
6.13499e-07
-6.21683e-07
-3.11614e-07
3.15934e-07
6.16686e-07
-6.20478e-07
-3.12141e-07
-2.95972e-07
-9.29823e-07
6.11274e-07
-9.31021e-07
-3.00323e-07
-3.13566e-07
-6.17846e-07
-6.12183e-07
9.31109e-07
-6.17857e-07
-6.11557e-07
-6.10318e-07
2.9096e-07
-6.08844e-07
-3.15436e-07
3.14527e-07
3.14846e-07
-3.15659e-07
-6.12369e-07
-9.2917e-07
6.08399e-07
-2.90505e-07
6.16035e-07
-3.02431e-07
-3.04922e-07
6.19577e-07
6.1883e-07
6.19021e-07
-3.02443e-07
-3.14826e-07
-3.17693e-07
-2.9665e-07
-3.16637e-07
-3.14899e-07
6.16036e-07
-3.17623e-07
6.15396e-07
-3.13875e-07
3.15309e-07
-3.13589e-07
-6.13785e-07
-3.13101e-07
-9.3139e-07
2.96252e-07
3.00042e-07
-9.29902e-07
-3.14551e-07
-1.05159e-06
6.54618e-07
3.65041e-07
3.19328e-08
2.88927e-08
-1.05375e-06
6.56403e-07
3.68459e-07
3.67759e-07
-1.0561e-06
6.56881e-07
3.14631e-08
6.53347e-07
-1.05316e-06
3.66495e-07
3.33166e-08
-3.96351e-07
-1.02008e-06
3.64842e-07
-1.02291e-06
6.55451e-07
-3.97929e-07
3.11944e-08
-1.05308e-06
-1.05736e-06
2.66691e-08
6.57978e-07
3.7271e-07
2.81835e-08
6.61658e-07
3.74356e-07
3.74057e-07
2.80546e-08
6.59824e-07
6.55882e-07
2.79456e-08
3.73555e-07
-3.99883e-07
-1.03053e-06
3.73055e-07
-1.03345e-06
6.61755e-07
-4.01893e-07
2.72452e-08
-1.0599e-06
3.71526e-07
6.56931e-07
3.14447e-08
3.1448e-08
3.72334e-07
6.56996e-07
3.73201e-07
6.54252e-07
3.225e-08
6.55414e-07
3.72745e-07
3.1554e-08
-4.03797e-07
-1.02839e-06
3.72282e-07
-1.02887e-06
6.5652e-07
-4.04225e-07
3.12529e-08
-1.05567e-06
6.54229e-07
3.6894e-07
3.25019e-08
3.09704e-08
6.5484e-07
3.72111e-07
3.71152e-07
6.55825e-07
3.21194e-08
6.54098e-07
3.71665e-07
3.17252e-08
-4.01865e-07
-1.02469e-06
3.70889e-07
-1.026e-06
6.5511e-07
-4.02679e-07
3.20813e-08
-1.02525e-06
-3.97079e-07
3.68574e-07
3.69478e-07
-3.99626e-07
-1.02595e-06
-3.99411e-07
-1.02324e-06
3.6949e-07
1.05634e-06
-4.00146e-07
-1.0272e-06
3.71013e-07
2.8403e-08
-6.54567e-07
-3.99085e-07
-6.552e-07
2.95931e-08
3.72177e-07
-1.02502e-06
-1.02831e-06
6.57904e-07
6.5658e-07
-1.02878e-06
4.0205e-07
-1.03078e-06
6.56788e-07
-2.90023e-08
-1.0283e-06
6.57681e-07
-1.05613e-06
-3.71266e-07
-3.72307e-07
-1.05909e-06
6.58823e-07
-1.02935e-06
-6.56445e-07
-4.00452e-07
3.09427e-08
-4.00296e-07
3.12869e-08
2.90785e-08
-4.01443e-07
1.02679e-06
-4.03043e-07
3.20774e-08
3.70067e-07
-1.05806e-06
3.15523e-08
-1.05525e-06
3.71058e-07
-4.02332e-07
-1.05723e-06
1.02801e-06
-3.72505e-07
4.02615e-07
-6.55332e-07
-2.9617e-08
-2.96524e-08
-6.56351e-07
-6.18067e-07
-3.13426e-07
6.1917e-07
-3.15706e-07
-6.154e-07
6.18107e-07
6.22318e-07
-6.21876e-07
-3.14895e-07
3.11235e-07
-6.18711e-07
-3.14004e-07
6.2148e-07
-3.05384e-07
-9.31989e-07
6.19306e-07
-9.33898e-07
-3.06204e-07
-3.14551e-07
-6.17784e-07
-6.11284e-07
-3.18765e-07
6.16806e-07
-3.21804e-07
-6.07757e-07
6.14492e-07
6.21408e-07
-3.19718e-07
-6.16949e-07
3.1146e-07
-3.18966e-07
-6.12441e-07
6.19947e-07
-2.97577e-07
-9.30632e-07
6.16925e-07
-9.33351e-07
-2.99751e-07
-3.19422e-07
-6.11693e-07
-6.25676e-07
6.25649e-07
-3.14286e-07
-3.163e-07
6.2598e-07
-6.23895e-07
6.28768e-07
-3.13096e-07
-6.28591e-07
3.13315e-07
6.27343e-07
-3.13956e-07
-6.26701e-07
-3.11514e-07
-9.40709e-07
6.26547e-07
-9.41209e-07
-3.13601e-07
-3.13793e-07
-6.26041e-07
-6.20014e-07
3.10661e-07
-3.14599e-07
6.23952e-07
-3.16653e-07
3.10414e-07
-6.17953e-07
6.24192e-07
6.26711e-07
3.12499e-07
-3.14518e-07
-6.24692e-07
3.09574e-07
-3.14821e-07
-6.21072e-07
6.26319e-07
-3.09899e-07
-9.35056e-07
6.24942e-07
-9.37204e-07
3.10652e-07
-3.10843e-07
-3.14639e-07
-6.21336e-07
-9.31675e-07
-3.02152e-07
6.18427e-07
6.22997e-07
-3.07881e-07
-9.36992e-07
-3.07484e-07
-9.33654e-07
6.22427e-07
6.16229e-07
-3.04795e-07
-9.33361e-07
6.21927e-07
-3.16924e-07
-3.11427e-07
-3.03325e-07
-3.11711e-07
-3.16511e-07
6.21313e-07
-9.35706e-07
-9.34018e-07
3.11625e-07
-9.35385e-07
3.05187e-07
-9.3878e-07
3.17365e-07
-9.38835e-07
-6.15263e-07
-6.2208e-07
-6.23059e-07
-6.19267e-07
-9.37139e-07
-3.13306e-07
-3.08917e-07
-3.14769e-07
-3.08559e-07
-3.14434e-07
-3.16744e-07
-3.06202e-07
9.38562e-07
-3.11709e-07
-3.14354e-07
6.245e-07
-6.2306e-07
-3.14747e-07
-6.19764e-07
6.25857e-07
-3.10354e-07
-6.22103e-07
9.39705e-07
-6.24071e-07
-6.24736e-07
-6.16852e-07
3.0723e-07
-6.2003e-07
-3.12685e-07
3.17129e-07
3.16666e-07
-3.1278e-07
-6.20851e-07
-3.23937e-07
-6.28749e-07
-1.99355e-07
1.18145e-06
-3.23297e-07
-6.46885e-07
-2.11272e-07
-2.13182e-07
-3.23612e-07
-6.40841e-07
-6.4203e-07
-3.21765e-07
-2.05963e-07
-9.643e-07
8.4739e-07
-2.07028e-07
8.57989e-07
-6.40836e-07
-9.66676e-07
-3.2187e-07
-3.22381e-07
1.19697e-06
-6.52603e-07
-2.21981e-07
1.2055e-06
-6.5497e-07
-2.3004e-07
-3.20486e-07
-2.29774e-07
1.20509e-06
-6.54844e-07
-3.20476e-07
-6.53063e-07
1.20243e-06
-2.28122e-07
-3.21248e-07
-9.75172e-07
8.7997e-07
-2.27178e-07
8.84518e-07
-6.54193e-07
-9.75376e-07
1.20228e-06
-3.20632e-07
-3.22362e-07
-2.22353e-07
-6.48973e-07
1.205e-06
-2.2975e-07
-6.54727e-07
-3.20524e-07
-2.29947e-07
-6.54262e-07
-3.20625e-07
-6.52666e-07
-2.26876e-07
-3.21134e-07
-9.74501e-07
8.78196e-07
-2.26057e-07
8.84445e-07
-6.53946e-07
-9.75064e-07
-3.20566e-07
-3.2171e-07
-6.50309e-07
-2.0892e-07
1.20004e-06
-6.52933e-07
-2.25093e-07
-3.22013e-07
-2.23741e-07
-6.52782e-07
-3.21425e-07
-6.54967e-07
-2.15072e-07
-3.23935e-07
-9.77263e-07
8.74621e-07
-2.19068e-07
8.77985e-07
-6.55209e-07
-9.76323e-07
-3.22078e-07
8.6843e-07
-9.73153e-07
-2.18573e-07
-2.19025e-07
-9.72065e-07
8.67478e-07
-9.71548e-07
8.62334e-07
-2.12551e-07
3.22741e-07
-9.75523e-07
8.77679e-07
-2.24896e-07
1.19225e-06
6.4997e-07
-9.73792e-07
6.51357e-07
1.19051e-06
-2.17802e-07
8.70322e-07
8.74236e-07
-6.50424e-07
-6.54044e-07
8.80956e-07
9.74457e-07
8.84226e-07
-6.53589e-07
-1.19515e-06
8.71679e-07
-6.48591e-07
-3.21655e-07
2.22099e-07
2.26583e-07
-3.22128e-07
-6.50925e-07
8.78913e-07
6.48321e-07
-9.7129e-07
-9.72563e-07
1.20011e-06
-9.7536e-07
-8.75779e-07
-9.74061e-07
-2.18854e-07
-3.21971e-07
-3.21096e-07
-2.23803e-07
-9.73947e-07
-3.21964e-07
-8.79795e-07
-3.21142e-07
2.26684e-07
-3.21088e-07
9.75115e-07
-3.20639e-07
6.52761e-07
-1.20078e-06
-1.20098e-06
6.53246e-07
-3.2105e-07
2.91337e-07
6.81418e-07
2.36093e-07
-1.21589e-06
2.88994e-07
6.84086e-07
2.42811e-07
2.42361e-07
2.87595e-07
6.84714e-07
6.82892e-07
2.90591e-07
2.39749e-07
9.73044e-07
-9.20747e-07
2.3904e-07
-9.2707e-07
6.84222e-07
9.73074e-07
2.88364e-07
2.86237e-07
-1.22121e-06
6.83612e-07
2.51365e-07
-1.21294e-06
6.72608e-07
2.55237e-07
2.851e-07
2.50445e-07
-1.20896e-06
6.75002e-07
2.83517e-07
6.76465e-07
-1.22118e-06
2.57207e-07
2.87504e-07
9.63278e-07
-9.32992e-07
2.5595e-07
-9.24877e-07
6.75211e-07
9.59626e-07
-1.21615e-06
2.85194e-07
2.83828e-07
2.47286e-07
6.8641e-07
-1.20679e-06
2.47236e-07
6.76138e-07
2.83412e-07
2.44568e-07
6.77423e-07
2.83658e-07
6.77383e-07
2.4942e-07
2.84263e-07
9.61471e-07
-9.23005e-07
2.45362e-07
-9.22802e-07
6.77488e-07
9.62046e-07
2.83812e-07
2.91322e-07
6.84255e-07
2.43397e-07
-1.22711e-06
6.80489e-07
2.55996e-07
2.90625e-07
2.52119e-07
6.79249e-07
2.87052e-07
6.81413e-07
2.47302e-07
2.9264e-07
9.73533e-07
-9.31882e-07
2.4967e-07
-9.33203e-07
6.79627e-07
9.70528e-07
2.89444e-07
-9.29379e-07
9.71185e-07
2.47188e-07
2.44379e-07
9.7068e-07
-9.27464e-07
9.74232e-07
-9.26852e-07
2.43211e-07
-2.88956e-07
9.67372e-07
-9.30919e-07
2.52503e-07
-1.21713e-06
-6.8366e-07
9.71406e-07
-6.84382e-07
-1.22124e-06
2.48621e-07
-9.31386e-07
-9.33691e-07
6.83663e-07
6.79954e-07
-9.33758e-07
-9.61908e-07
-9.23463e-07
6.76407e-07
1.21723e-06
-9.31687e-07
6.85137e-07
2.85947e-07
-2.48232e-07
-2.50253e-07
2.85594e-07
6.83404e-07
-9.26567e-07
-6.8398e-07
9.70314e-07
9.72921e-07
-1.21631e-06
9.65875e-07
9.2698e-07
9.65303e-07
2.46961e-07
2.86854e-07
2.88496e-07
2.48184e-07
9.65651e-07
2.85912e-07
9.29258e-07
2.85466e-07
-2.55073e-07
2.8719e-07
-9.59935e-07
2.83707e-07
-6.76983e-07
1.20826e-06
1.21793e-06
-6.78245e-07
2.84608e-07
4.77949e-07
-9.612e-07
4.83252e-07
-1.65165e-08
4.57982e-07
-9.612e-07
5.19735e-07
-9.81057e-07
4.8962e-07
4.91437e-07
5.31842e-07
5.18385e-07
-1.05023e-06
1.00296e-06
4.75261e-07
-1.00028e-06
4.71313e-07
5.15135e-07
1.0071e-06
4.97359e-07
3.91942e-07
-2.93414e-08
-7.98207e-07
4.35606e-07
-3.20362e-08
-7.19176e-07
3.62054e-07
3.89158e-07
-7.73643e-07
-2.87412e-08
3.86323e-07
4.16061e-07
4.11923e-07
-3.17277e-08
-7.62015e-07
3.8182e-07
8.15633e-07
3.56158e-07
-7.79849e-07
3.53694e-07
4.29903e-07
8.01254e-07
-3.31731e-08
3.81305e-07
4.60318e-07
-9.38524e-07
4.78206e-07
-2.24019e-08
-8.84502e-07
4.36647e-07
4.70257e-07
-9.20979e-07
4.44435e-07
4.76544e-07
4.74136e-07
-9.03101e-07
4.28965e-07
1.00691e-06
4.44395e-07
-9.90987e-07
4.6318e-07
5.21326e-07
9.18531e-07
4.60732e-07
4.8071e-07
5.09464e-07
-9.90174e-07
-2.54584e-08
4.49778e-07
-8.25664e-07
4.01345e-07
-8.67608e-07
4.59414e-07
4.08194e-07
4.55373e-07
-8.73102e-07
4.17729e-07
1.00136e-06
4.17226e-07
-9.37872e-07
4.35314e-07
5.40584e-07
8.72599e-07
4.40305e-07
4.08752e-07
9.76048e-07
-9.26818e-07
-1.01447e-06
1.04202e-06
4.62067e-07
1.06442e-06
4.64276e-07
-1.01031e-06
-4.33361e-07
9.07998e-07
3.94407e-07
-8.69044e-07
-3.71831e-08
-4.79873e-07
9.25808e-07
-5.54293e-07
-3.89055e-08
-8.74328e-07
4.71217e-07
4.29819e-07
5.16888e-07
4.73791e-07
4.02479e-07
-9.28371e-07
4.16873e-07
4.82757e-07
2.58494e-08
4.74157e-07
5.42015e-07
4.32884e-07
9.22742e-07
8.73502e-07
4.58848e-07
4.89743e-07
4.03979e-07
-4.84168e-07
9.46235e-07
9.7374e-07
-3.65238e-08
8.80708e-07
-4.38329e-07
8.97743e-07
-9.50542e-07
4.66374e-07
4.94416e-07
-9.98475e-07
1.02652e-06
4.81867e-07
-4.58925e-07
4.53567e-07
8.63099e-07
4.20088e-07
-9.02002e-07
4.34372e-07
-5.4011e-07
3.09903e-08
2.74862e-08
-4.67032e-07
4.23553e-07
4.37226e-07
-8.73101e-07
4.35876e-07
-1.05259e-08
4.67348e-07
-9.74002e-07
5.1718e-07
-8.93753e-07
4.50028e-07
4.43725e-07
4.64341e-07
4.7232e-07
-9.36661e-07
9.38172e-07
4.39644e-07
-9.40591e-07
4.43328e-07
4.84318e-07
9.03985e-07
4.5356e-07
4.2301e-07
-3.32134e-08
-8.56526e-07
4.66729e-07
-3.71708e-08
-7.6371e-07
3.88256e-07
4.12625e-07
-8.2307e-07
-3.19856e-08
4.13021e-07
4.42035e-07
4.32858e-07
-3.19092e-08
-7.97865e-07
3.96916e-07
8.80222e-07
3.81439e-07
-8.3865e-07
3.81678e-07
4.61372e-07
8.50283e-07
-3.59871e-08
4.08892e-07
4.2908e-07
-8.57293e-07
4.28213e-07
-2.31007e-08
-8.62126e-07
4.28373e-07
4.56854e-07
-8.60338e-07
4.15573e-07
4.44765e-07
4.45392e-07
-8.57302e-07
4.1191e-07
9.21725e-07
4.21425e-07
-9.1407e-07
4.30352e-07
4.68273e-07
8.66817e-07
4.3683e-07
4.64301e-07
4.7581e-07
-9.40111e-07
-2.38837e-08
4.49607e-07
-8.40373e-07
4.14649e-07
-8.32785e-07
4.34984e-07
3.97801e-07
4.32831e-07
-8.41808e-07
4.08977e-07
9.44043e-07
4.07175e-07
-8.86916e-07
4.22556e-07
4.97603e-07
8.40005e-07
4.29776e-07
4.15358e-07
9.93328e-07
-9.41338e-07
-9.17398e-07
9.38504e-07
4.28922e-07
9.71686e-07
4.41576e-07
-9.40942e-07
-4.34704e-07
8.98438e-07
3.98575e-07
-8.62308e-07
-3.38484e-08
-4.67365e-07
9.16572e-07
-4.97687e-07
-3.64872e-08
-8.65582e-07
4.37513e-07
4.37558e-07
5.22557e-07
4.64185e-07
4.02344e-07
-9.16914e-07
4.065e-07
4.78428e-07
2.40796e-08
4.31857e-07
4.82568e-07
4.40661e-07
9.13468e-07
8.68859e-07
4.52148e-07
4.854e-07
4.04093e-07
-4.44981e-07
8.73903e-07
9.17385e-07
-3.05557e-08
8.78737e-07
-4.22221e-07
8.57205e-07
-8.87663e-07
4.42681e-07
4.67235e-07
-9.34283e-07
9.54744e-07
4.48467e-07
-4.37515e-07
4.37418e-07
8.57338e-07
4.23743e-07
-8.85139e-07
4.29514e-07
-4.92353e-07
2.67504e-08
2.48754e-08
-4.54295e-07
4.27918e-07
-5.56913e-07
1.2139e-06
-6.56989e-07
2.05129e-08
-4.22713e-07
8.87225e-07
-4.85024e-07
-5.57252e-07
-5.25827e-07
1.08308e-06
1.0186e-06
-4.91699e-07
-5.269e-07
5.27523e-07
-4.93273e-07
-5.91163e-07
-4.648e-07
1.01284e-06
5.25325e-07
-4.96727e-07
-3.66318e-07
2.86794e-08
7.34518e-07
-3.96879e-07
3.73523e-08
6.72955e-07
-3.48549e-07
-3.61758e-07
-3.75713e-07
3.07896e-08
7.08584e-07
-3.6366e-07
6.99444e-07
3.03526e-08
-3.60066e-07
-3.6973e-07
3.41356e-07
-3.30587e-07
-3.77088e-07
-3.22652e-07
7.01361e-07
3.42663e-07
2.61941e-08
-3.55702e-07
-5.02812e-07
-5.15499e-07
1.01831e-06
2.39415e-08
-4.07558e-07
7.94368e-07
-4.10751e-07
-4.78457e-07
9.26907e-07
-4.48451e-07
9.09303e-07
-4.66583e-07
-4.4272e-07
4.43279e-07
-4.62346e-07
-4.83745e-07
-4.26166e-07
8.93387e-07
4.46957e-07
-4.57665e-07
-4.73694e-07
9.6799e-07
-4.94295e-07
1.59068e-08
7.78277e-07
-3.91938e-07
-4.02246e-07
-4.68799e-07
9.16493e-07
-4.47693e-07
9.07793e-07
-4.46049e-07
-4.61743e-07
4.80399e-07
-4.53828e-07
-5.00265e-07
-4.66245e-07
9.62551e-07
4.53965e-07
-4.81079e-07
-3.89423e-07
4.07178e-07
-4.40468e-07
-5.22499e-07
4.90339e-07
-4.93666e-07
5.13055e-07
-4.77055e-07
-5.27698e-07
3.95989e-07
3.89218e-07
-3.7687e-07
-4.08337e-07
1.15393e-08
-8.06711e-07
4.0575e-07
-1.00769e-06
1.85353e-08
-4.29257e-07
-4.76096e-07
-3.76301e-07
8.12159e-07
7.8762e-07
-3.68049e-07
-3.83862e-07
-3.63357e-07
7.78009e-07
-2.08055e-08
-4.62549e-07
9.73695e-07
-4.00623e-07
4.30072e-07
4.13191e-07
-4.0922e-07
8.18488e-07
-3.79892e-07
-9.83809e-07
4.90143e-07
4.90935e-07
1.4472e-08
3.86935e-07
4.6304e-07
4.53453e-07
-4.98454e-07
-4.85355e-07
-4.83615e-07
-4.93407e-07
4.71092e-07
-4.87906e-07
4.63094e-07
-4.76224e-07
4.02949e-07
-3.84062e-07
-3.8291e-07
-3.88006e-07
-9.53937e-07
-1.77143e-08
-1.97504e-08
-7.80516e-07
-3.97317e-07
4.11783e-07
-7.90906e-07
3.79122e-07
4.52187e-07
4.71081e-07
-9.23268e-07
-2.39954e-08
4.5657e-07
-8.53126e-07
4.20552e-07
-8.11779e-07
4.3604e-07
3.75739e-07
-3.90519e-07
8.02302e-07
9.43302e-07
-8.81634e-07
-4.16276e-07
4.06799e-07
5.0303e-07
5.29118e-07
4.95443e-07
-1.02456e-06
5.53042e-07
-1.15623e-06
6.03187e-07
-3.09901e-08
4.42384e-07
-9.33607e-07
5.22213e-07
-1.00981e-06
4.88327e-07
5.21485e-07
-4.83249e-07
1.01237e-06
1.16326e-06
-1.09346e-06
-5.09205e-07
5.11761e-07
6.2306e-07
4.20232e-07
-2.398e-08
-7.82981e-07
3.86729e-07
3.88057e-07
-2.71445e-08
-7.99704e-07
4.38791e-07
-2.68166e-08
-7.31831e-07
3.63651e-07
3.94997e-07
-7.79708e-07
-2.36662e-08
3.83004e-07
4.2037e-07
-3.63837e-07
8.07723e-07
-2.36535e-08
8.03323e-07
-7.79103e-07
-3.57777e-07
3.85792e-07
4.18729e-07
4.58895e-07
-8.65679e-07
4.06784e-07
4.37943e-07
-8.99483e-07
4.6154e-07
-1.94129e-08
-8.75183e-07
4.25075e-07
4.69521e-07
-8.82538e-07
4.26468e-07
4.5607e-07
-4.28326e-07
8.87221e-07
9.54668e-07
-9.45052e-07
-4.35042e-07
4.39724e-07
5.00214e-07
9.00901e-07
-4.2982e-07
-2.88867e-08
-3.97865e-07
8.83321e-07
-4.21629e-07
8.57669e-07
-4.51216e-07
-4.37939e-07
8.89155e-07
4.63871e-07
8.95221e-07
-4.58191e-07
9.38015e-07
4.44005e-07
9.60391e-07
1.0293e-06
-9.63675e-07
-1.02328e-06
1.07367e-06
3.96628e-07
9.2483e-07
-8.79074e-07
-4.24477e-07
8.87819e-07
-8.61207e-07
5.44595e-07
2.65127e-08
3.30766e-08
4.73958e-07
-8.71922e-07
9.03662e-07
8.64935e-07
-4.01237e-07
4.19623e-07
-4.33844e-07
4.25833e-07
4.62692e-07
-4.73019e-07
-8.96559e-07
-3.96173e-07
4.17549e-07
-2.09113e-08
4.67149e-07
4.18697e-07
5.05636e-07
-2.32754e-08
-4.06134e-07
4.62602e-07
-8.87054e-07
4.67214e-07
2.4939e-08
5.75708e-07
4.0767e-07
4.90016e-07
8.55636e-07
-4.16688e-07
-4.37552e-07
8.94645e-07
4.82031e-07
-5.36328e-07
1.1582e-06
-6.21879e-07
1.40692e-08
-4.10191e-07
8.74351e-07
-4.78229e-07
1.00379e-06
-4.83597e-07
-5.20191e-07
-5.25696e-07
-4.86868e-07
1.01257e-06
-1.10938e-06
-4.8853e-07
1.06158e-06
-4.95396e-07
-5.99917e-07
-1.01423e-06
-5.05834e-07
-3.59093e-07
2.6787e-08
7.29575e-07
-3.97269e-07
3.70054e-08
6.70228e-07
-3.46089e-07
-3.61144e-07
6.92615e-07
2.79209e-08
-3.49752e-07
-3.70784e-07
-3.7366e-07
2.90244e-08
7.06707e-07
-3.62072e-07
-7.43529e-07
-3.20982e-07
7.05417e-07
-3.23139e-07
-3.83384e-07
-7.25658e-07
3.10157e-08
-3.56182e-07
-4.60419e-07
9.3668e-07
-4.7626e-07
2.11163e-08
7.633e-07
-3.83581e-07
-4.00835e-07
8.92038e-07
-4.49503e-07
-4.42534e-07
-4.51754e-07
8.8962e-07
-4.37866e-07
-9.41305e-07
-4.56414e-07
9.373e-07
-4.39043e-07
-4.81145e-07
-9.08167e-07
-4.55172e-07
-4.79085e-07
-4.98525e-07
9.7761e-07
1.66767e-08
-4.16333e-07
8.1283e-07
-4.13174e-07
8.86411e-07
-4.45792e-07
-4.40619e-07
-4.63024e-07
9.25906e-07
-4.62882e-07
-9.72871e-07
-4.24193e-07
9.17978e-07
-4.68351e-07
-4.87843e-07
-8.87217e-07
-4.69157e-07
-3.71092e-07
-8.54385e-07
8.15287e-07
1.00052e-06
-1.01796e-06
-4.66156e-07
-9.83368e-07
-4.54178e-07
9.5068e-07
3.96377e-07
-7.99656e-07
-3.68751e-07
7.72031e-07
1.22578e-08
4.11445e-07
-7.94794e-07
5.06948e-07
1.46814e-08
7.93141e-07
-4.61738e-07
-3.76432e-07
-4.51166e-07
-4.05254e-07
-3.65377e-07
7.96873e-07
-3.61428e-07
-4.07523e-07
-1.38809e-08
-4.73071e-07
-5.31013e-07
-3.8602e-07
-7.85206e-07
-7.60257e-07
-3.95126e-07
-4.0396e-07
-3.58511e-07
4.69385e-07
-9.35541e-07
-9.52701e-07
1.39769e-08
-7.99061e-07
4.53637e-07
-8.99428e-07
9.40181e-07
-4.70795e-07
-4.74259e-07
9.48125e-07
-9.65282e-07
-4.71932e-07
4.5679e-07
-4.66598e-07
-7.74194e-07
-3.90244e-07
7.83223e-07
-3.8135e-07
4.86258e-07
-2.089e-08
-2.22344e-08
4.03822e-07
-3.92606e-07
-4.86153e-07
9.79827e-07
-4.93674e-07
-4.9756e-07
-4.90624e-07
9.88184e-07
9.25785e-07
-4.70004e-07
-4.55782e-07
2.44847e-08