/*--------------------------------*- C++ -*----------------------------------*\
| =========                 |                                                 |
| \\      /  F ield         | OpenFOAM: The Open Source CFD Toolbox           |
|  \\    /   O peration     | Version:  2506                                  |
|   \\  /    A nd           | Website:  www.openfoam.com                      |
|    \\/     M anipulation  |                                                 |
\*---------------------------------------------------------------------------*/
FoamFile
{
    version     2.0;
    format      ascii;
    arch        "LSB;label=32;scalar=64";
    class       surfaceScalarField;
    location    "300";
    object      phi;
}
// * * * * * * * * * * * * * * * * * * * * * * * * * * * * * * * * * * * * * //

dimensions      [0 3 -1 0 0 0 0];

oriented        oriented;

internalField   nonuniform List<scalar> 
79904
(
-4.3189e-07
1.93884e-06
7.23762e-07
-2.23899e-06
-3.29545e-07
1.9676e-06
6.0091e-07
7.77986e-07
-4.52317e-07
1.90509e-06
1.89134e-06
-4.19694e-07
7.58991e-07
1.53627e-06
-2.63988e-06
6.71631e-07
-2.59687e-06
1.89411e-06
1.48222e-06
-3.367e-07
-3.38702e-07
-2.39063e-06
2.14457e-06
5.84731e-07
-2.62553e-06
2.28884e-06
7.73348e-07
-4.36571e-07
7.21102e-07
-2.32852e-06
2.00666e-06
-3.9918e-07
2.17306e-06
-2.46985e-06
5.8464e-07
-2.87893e-07
1.88462e-06
-2.89279e-06
6.69371e-07
-2.92241e-06
2.1815e-06
1.82683e-06
-2.54657e-06
-3.74456e-07
-4.64124e-07
8.21821e-07
1.87302e-06
-2.23362e-06
7.35441e-07
1.89314e-06
-3.94983e-07
8.46772e-07
1.8553e-06
-4.71342e-07
1.86411e-06
8.27062e-07
-4.60503e-07
1.42383e-06
-2.68468e-06
7.96647e-07
-2.68557e-06
1.87576e-06
1.4102e-06
-4.28622e-07
-4.14077e-07
1.88978e-06
7.54966e-07
-2.30719e-06
2.02103e-06
5.67402e-07
-2.81364e-07
7.96847e-07
1.87194e-06
-4.38078e-07
1.90172e-06
7.40075e-07
-4.11169e-07
1.58449e-06
-2.66765e-06
6.6892e-07
-2.69305e-06
1.9703e-06
1.46484e-06
-4.31393e-07
-2.62964e-06
1.72919e-06
5.70761e-07
7.36409e-07
1.47193e-06
-2.66079e-06
1.58863e-06
-2.65699e-06
6.48594e-07
2.89504e-07
1.81349e-06
-2.6475e-06
5.44361e-07
-2.32496e-06
-2.00854e-06
1.70381e-06
-1.92525e-06
-2.3191e-06
6.00012e-07
-2.65572e-06
-2.71418e-06
2.0527e-06
2.12136e-06
-2.77775e-06
-1.57625e-06
-2.70578e-06
1.95348e-06
2.24965e-06
-2.63526e-06
1.85751e-06
-2.92712e-07
-7.17696e-07
-7.17944e-07
-3.85107e-07
1.91702e-06
-2.67932e-06
-1.86277e-06
1.43278e-06
1.46358e-06
-2.31625e-06
1.68977e-06
2.66958e-06
1.43315e-06
8.0883e-07
-4.40811e-07
-3.83328e-07
7.29274e-07
1.49947e-06
-3.80688e-07
2.69375e-06
-4.33565e-07
-7.2254e-07
-3.65495e-07
-1.55951e-06
-4.10877e-07
-1.90358e-06
2.31951e-06
2.28964e-06
-1.91932e-06
-3.52252e-07
6.56181e-07
2.60773e-06
-9.75012e-07
-7.84833e-07
5.57341e-07
2.23419e-06
-2.49423e-06
7.79485e-07
2.90537e-06
-1.19066e-06
2.52934e-06
6.67522e-07
-1.05237e-06
3.05656e-06
-2.18842e-07
-2.27476e-07
2.49918e-06
3.48609e-06
-1.17569e-06
7.64368e-07
5.43222e-07
-6.59751e-07
2.00969e-06
-5.93814e-07
1.90319e-06
5.45946e-07
-1.91018e-06
-7.57334e-07
2.11997e-06
5.47591e-07
1.93124e-06
-6.27262e-07
5.69007e-07
2.50318e-06
-8.41813e-08
-6.96939e-08
1.97907e-06
2.51041e-06
-6.63352e-07
5.30524e-07
7.08222e-07
-2.48022e-06
3.02747e-06
-1.25528e-06
-1.07713e-06
-2.06778e-06
2.55459e-06
5.90406e-07
-2.38677e-06
3.02626e-06
6.47919e-07
-1.28726e-06
2.64828e-06
-2.23131e-06
6.77178e-07
-1.09414e-06
3.42224e-06
-4.4805e-07
-2.26586e-06
-4.48817e-07
2.79395e-06
3.57676e-06
-1.37645e-06
7.41194e-07
5.85597e-07
2.2258e-06
-8.43947e-07
-7.12478e-07
1.99154e-06
6.25925e-07
-2.03838e-06
2.34516e-06
6.31323e-07
-9.38246e-07
2.08429e-06
5.98445e-07
-7.44024e-07
2.65481e-06
-1.75172e-07
-1.57184e-07
2.09949e-06
2.85279e-06
-9.43741e-07
6.57139e-07
-1.60791e-07
2.67168e-06
-2.26569e-06
3.38973e-06
-3.44472e-07
2.9412e-06
-2.21093e-07
-5.42905e-07
2.52914e-06
-1.28749e-07
-8.79642e-07
-2.16271e-06
2.88151e-06
-2.38099e-06
-7.88618e-07
-2.28412e-07
-1.69416e-07
2.18138e-06
2.03889e-06
-1.37022e-07
-2.82211e-06
-2.22558e-07
2.28739e-06
9.9393e-07
-3.32753e-07
2.72859e-06
5.72751e-07
2.13935e-06
1.9483e-06
6.29958e-07
2.50334e-06
-2.43858e-07
-2.61279e-06
3.61181e-06
-1.34325e-06
3.02706e-06
-1.02256e-06
-7.30445e-07
2.59321e-06
2.84747e-07
3.25187e-06
-1.19145e-06
-2.19831e-06
6.40318e-07
-1.0549e-06
6.00309e-07
-1.96936e-06
2.8944e-06
7.98852e-07
2.82093e-07
7.38403e-07
1.87333e-06
5.82814e-07
-2.83734e-06
5.4698e-07
-2.43023e-06
9.63213e-07
7.46272e-07
-2.11798e-06
5.01631e-07
-1.37745e-06
1.03216e-06
2.7188e-06
-1.27658e-06
7.92017e-07
-2.56211e-06
-1.5451e-06
1.06394e-06
1.3161e-06
-1.4373e-06
-4.29521e-07
1.55127e-06
1.41312e-06
8.762e-07
-3.53058e-07
-1.50205e-06
-1.11776e-06
2.4611e-06
6.66364e-07
2.32167e-06
-9.68337e-07
5.49839e-07
-1.93651e-06
2.44108e-06
-1.10112e-06
5.96561e-07
7.65769e-07
2.50678e-06
-1.15255e-06
-4.34109e-07
1.29539e-06
1.31119e-06
5.76404e-07
-4.54576e-07
2.51574e-06
-1.07988e-06
-1.57954e-06
-2.45662e-06
1.01196e-06
2.69323e-06
-2.0656e-06
-1.30018e-06
6.72605e-07
-2.34145e-06
-1.53822e-06
8.48894e-07
1.32895e-06
-2.68794e-06
-1.71329e-06
-6.02881e-07
1.36429e-06
-2.34082e-06
1.33697e-06
7.53441e-07
-5.49654e-07
-1.55411e-06
-1.68516e-06
1.64346e-06
2.83015e-06
1.23536e-06
-1.51084e-06
-2.93646e-06
1.71842e-06
-1.90499e-06
2.04727e-06
-2.15751e-06
-1.64878e-07
1.27375e-06
1.24702e-06
1.41833e-06
-6.06287e-08
-1.74998e-06
1.31635e-06
-4.11517e-07
-2.5017e-06
-4.88418e-07
1.44504e-06
-1.91878e-07
1.4832e-06
1.31803e-06
-3.02548e-07
1.27195e-06
2.80673e-06
-1.04436e-06
-4.45986e-07
-1.197e-06
2.77701e-06
1.38816e-06
1.32279e-06
7.26852e-07
8.9225e-07
1.31203e-06
5.00719e-07
1.29849e-06
6.41917e-07
-2.73173e-06
1.34043e-06
9.02952e-07
-1.30666e-06
2.18351e-06
2.10134e-06
-1.32739e-06
7.79187e-07
1.27468e-06
-1.37194e-06
-4.42503e-07
-1.68834e-07
2.79995e-06
-2.92604e-07
-1.33472e-06
-2.72099e-07
-2.83504e-06
-1.62196e-06
-1.61568e-06
-2.60259e-06
-3.53992e-07
-1.55866e-06
-1.27373e-06
-1.68619e-06
2.34707e-06
-1.32767e-06
5.10137e-07
-1.27725e-06
-1.11462e-06
-2.78483e-06
-2.74233e-06
-1e-06
-1.39528e-06
2.17704e-06
4.57693e-07
-3.67963e-07
4.44482e-07
2.19713e-06
-3.74846e-07
-3.61086e-07
2.14664e-06
4.8116e-07
-2.32643e-06
2.6622e-06
5.52981e-07
-8.88751e-07
-6.92589e-08
2.95403e-06
-7.07706e-07
2.64197e-06
1.06314e-08
6.1696e-07
2.29151e-06
2.1745e-06
4.60124e-07
-3.67879e-07
5.08031e-07
2.10551e-06
-3.46782e-07
-3.99085e-07
5.07165e-07
2.15871e-06
-2.3023e-06
5.92989e-07
2.52328e-06
-8.13968e-07
-1.00238e-07
2.85437e-06
-5.79613e-07
2.67452e-06
-5.46639e-09
5.57526e-07
2.26999e-06
2.10983e-06
-3.23631e-07
4.80559e-07
4.96523e-07
-3.56434e-07
2.12669e-06
-3.07761e-07
2.08877e-06
4.85739e-07
-2.31513e-06
-6.28137e-07
2.44587e-06
4.97353e-07
-1.62542e-07
2.7366e-06
-4.64211e-07
2.60072e-06
-1.02996e-07
5.24445e-07
2.18997e-06
3.38838e-06
-2.46123e-06
5.17069e-07
-1.44421e-06
6.46183e-07
-2.49434e-06
3.20725e-06
-1.35909e-06
-1.23247e-06
-2.50923e-06
3.16131e-06
5.80416e-07
-2.90199e-06
4.27841e-06
4.65504e-07
-1.84191e-06
7.47241e-07
4.41906e-06
-1.7779e-06
3.86757e-06
-2.47415e-06
8.00039e-07
7.1704e-07
3.43514e-06
2.85246e-06
-4.98078e-08
-6.05497e-07
-5.46727e-07
-1.42543e-07
2.8359e-06
3.14521e-07
3.55528e-06
-1.20759e-06
-2.63257e-06
2.42e-07
3.49518e-06
-1.10461e-06
5.87385e-07
2.27672e-06
-1.16665e-08
2.33217e-06
5.00571e-07
-8.56392e-07
3.14725e-06
2.67703e-06
-2.3138e-06
3.14876e-06
1.2789e-07
2.64602e-06
-4.9027e-07
2.61447e-06
2.29347e-06
3.71892e-07
5.37207e-07
2.14837e-06
2.81346e-06
2.32396e-06
-5.52711e-08
5.67179e-07
3.7323e-07
7.20803e-07
6.30023e-07
3.70791e-07
-3.34466e-06
2.29656e-07
6.05712e-07
-7.3674e-07
2.56066e-06
5.0001e-07
2.78373e-06
-9.39607e-07
1.55589e-07
2.23556e-06
-3.02514e-06
2.62663e-06
7.98585e-07
2.72095e-06
5.23478e-08
2.23725e-06
2.31996e-06
-5.48625e-07
-5.49599e-07
2.31718e-06
2.56615e-06
1.77932e-06
-1.09889e-06
-9.76821e-07
2.96583e-07
1.6907e-07
1.76971e-06
-1.05578e-06
-8.82708e-07
-1.13334e-06
1.79815e-06
-1.13909e-06
4.74601e-07
-9.19472e-07
1.60586e-06
-1.44576e-06
7.59651e-07
9.37596e-07
2.32605e-06
-1.48398e-06
2.13276e-06
-1.02618e-06
8.44835e-07
5.61962e-07
1.84428e-06
2.8002e-06
2.09091e-07
-1.48997e-06
-1.51876e-06
1.55433e-06
-4.21876e-06
-4.82438e-06
7.48922e-06
-2.35787e-06
1.02203e-06
-2.97224e-06
4.30825e-06
-1.8404e-06
2.11452e-06
-2.45972e-06
2.18633e-06
1.25939e-06
3.52163e-06
-1.9805e-06
5.55054e-06
-2.73672e-06
9.42861e-07
7.38562e-07
4.13558e-06
1.84911e-06
-1.00113e-06
-1.77845e-06
9.3067e-07
2.36254e-06
-2.32927e-06
-3.63877e-06
3.60563e-06
-2.06374e-06
-3.02839e-06
1.38413e-06
3.70805e-06
-2.14609e-06
-1.56338e-06
9.21436e-07
2.78812e-06
1.57722e-07
2.79953e-06
-1.10795e-06
5.52172e-06
-3.00143e-06
-3.48508e-09
6.56928e-07
3.45454e-06
1.52299e-06
-1.12662e-06
-2.02508e-06
1.62888e-06
3.29384e-06
-1.91039e-06
-3.53968e-06
2.15619e-06
-2.72028e-06
-1.36025e-06
1.17569e-06
2.90489e-06
-1.75028e-06
-2.1044e-06
2.07662e-06
1.77814e-06
6.65089e-08
4.49639e-06
-3.03989e-06
4.75047e-06
-1.3901e-06
6.31474e-08
2.68296e-06
2.09336e-06
2.35769e-06
1.43294e-06
-2.02071e-06
-1.28711e-06
7.20376e-07
2.36504e-06
6.17149e-07
2.75968e-06
-1.77075e-06
-1.55876e-06
5.2618e-07
4.71568e-06
-3.68291e-06
3.52773e-07
6.13178e-07
1.39198e-06
9.10013e-07
1.07636e-06
-2.02175e-06
2.60357e-06
2.29156e-06
-6.49072e-07
-1.19643e-06
3.83716e-06
-1.10166e-06
4.49125e-06
-2.36734e-06
-4.73461e-07
2.18062e-06
-9.86542e-07
2.07928e-06
1.6044e-06
1.62153e-06
1.75428e-06
-6.23172e-07
2.27417e-06
1.33506e-06
5.66092e-07
4.63935e-07
6.01361e-07
1.03174e-06
2.08107e-06
7.24179e-07
-3.35596e-06
9.50259e-07
1.04552e-06
-1.38073e-06
1.93919e-06
7.76684e-07
1.82422e-06
-2.51519e-06
1.09843e-06
1.74563e-06
-3.09184e-06
2.47876e-06
2.4065e-06
2.1548e-06
-1.14811e-06
3.31015e-06
8.10114e-07
-1.72382e-07
-1.18333e-06
9.53656e-07
2.17681e-06
-1.0616e-06
-4.47918e-07
2.7433e-09
-9.23068e-07
-5.60652e-07
-1.16401e-06
-1.80125e-07
1.52805e-06
-8.80205e-07
2.92809e-08
6.2372e-07
-9.4393e-07
-1.1231e-06
6.81044e-07
-9.68495e-08
-1.00265e-06
-8.168e-07
2.11755e-07
3.11903e-07
-7.34273e-07
-4.68916e-07
2.4617e-07
-8.78358e-07
9.80738e-07
2.9661e-07
-7.08347e-07
2.04913e-07
-4.91205e-07
-5.62987e-07
2.27437e-07
2.62053e-07
-8.04463e-07
-1.17706e-06
-5.2459e-07
-1.14262e-08
1.98505e-07
-4.48466e-07
-1.05016e-06
-4.39525e-07
1.11803e-07
-1.21044e-06
1.43728e-06
-4.69352e-07
4.80729e-08
-1.01596e-06
3.22802e-07
-1.05295e-06
-4.46806e-07
-1.0327e-06
3.44885e-07
3.94756e-08
-1.12731e-06
-7.67457e-07
1.2748e-06
1.23744e-07
2.87026e-07
1.03151e-06
-6.9266e-07
-5.5519e-07
1.24442e-06
1.30927e-07
-8.20268e-07
1.03887e-06
2.9181e-07
-7.32527e-07
3.48629e-07
-4.59433e-07
-5.41933e-07
1.17756e-06
3.28112e-07
2.51249e-07
-7.69062e-07
-7.37736e-07
3.6172e-07
-5.24848e-07
5.52519e-07
-1.19142e-06
5.18539e-07
-6.60575e-07
8.39013e-07
2.98556e-07
-5.54903e-07
8.93283e-08
-1.20568e-06
3.78676e-07
-1.43812e-06
1.3503e-07
-7.84363e-07
-7.54285e-07
1.12637e-06
-5.31063e-07
-2.82549e-07
-7.48489e-07
-6.71196e-08
-1.06625e-06
-8.68313e-07
4.92624e-07
5.2014e-07
-9.69735e-07
-7.31971e-07
-1.58069e-06
5.38626e-07
-1.49268e-07
5.11509e-07
1.02684e-07
1.91442e-07
2.85197e-07
7.9716e-07
3.54215e-07
9.3109e-08
-5.51788e-07
-9.82478e-07
-4.63767e-08
-8.24631e-07
-5.44366e-07
3.59071e-07
-1.05214e-06
7.96683e-07
-9.11596e-07
5.47985e-07
-7.93802e-07
-2.79627e-07
-9.17321e-07
-1.35753e-06
-1.41329e-07
-2.0173e-07
-1.15288e-06
-8.06624e-07
5.24755e-07
-5.45054e-07
-3.91147e-07
3.51062e-07
-8.98263e-07
-7.79398e-07
5.3635e-07
7.07372e-07
5.75438e-07
-5.23929e-07
1.33349e-06
-6.48716e-08
-7.43889e-07
-1.39832e-09
1.31413e-06
5.33326e-07
3.42696e-07
-1.24773e-07
-1.31202e-06
9.32281e-08
-1.73418e-06
3.53718e-07
-1.6116e-06
-1.86093e-07
5.42636e-07
1.13578e-06
-3.34254e-07
-1.19225e-06
3.90756e-07
1.65564e-06
2.11782e-07
-1.52467e-06
3.72418e-07
1.6308e-06
-2.83235e-07
3.91675e-07
5.21993e-07
-9.89578e-07
-4.91449e-07
-1.30879e-06
6.0958e-07
-9.66572e-07
7.65096e-07
1.01008e-06
-9.48845e-07
5.23282e-07
1.63271e-06
-4.54749e-08
-1.06524e-06
-3.44086e-08
1.63399e-06
6.33104e-07
5.58803e-07
7.24948e-07
-5.28923e-07
-5.43656e-07
9.2118e-07
-8.32348e-07
4.54823e-07
-8.22999e-07
9.49702e-07
4.40571e-07
7.58732e-07
-5.41621e-07
5.22818e-07
1.33877e-06
-8.49811e-08
-6.95007e-07
-7.80016e-08
8.73081e-07
1.34267e-06
4.41652e-07
6.01489e-08
1.45498e-06
-1.16413e-06
-9.11754e-07
1.45725e-06
-9.19644e-09
1.3223e-06
-5.45663e-08
-6.92307e-07
-4.63298e-07
1.4809e-06
5.41277e-08
-1.07176e-06
-4.2949e-07
-9.28944e-07
1.41855e-06
-8.07938e-07
-5.68155e-07
-8.24143e-07
-5.3799e-08
1.38743e-07
1.12498e-06
2.16695e-08
-1.67531e-06
1.45962e-07
3.88613e-07
4.6031e-08
3.99812e-07
1.15743e-06
1.24154e-06
4.91131e-07
5.7367e-08
-8.84151e-07
1.44562e-06
1.31897e-06
-4.682e-07
1.44349e-06
4.54649e-08
1.44859e-06
-7.92795e-07
5.0858e-07
4.72353e-07
-8.77234e-07
1.43126e-06
5.02097e-07
6.92684e-08
4.30468e-07
1.0622e-06
4.02936e-07
-1.63006e-06
4.67293e-07
-1.0197e-06
4.56614e-07
4.80852e-07
-1.11605e-06
4.26975e-07
5.29457e-07
3.27847e-06
4.70473e-07
2.82221e-06
1.31044e-07
2.54026e-07
4.63762e-07
-2.54077e-09
2.70008e-06
-3.81962e-06
1.97464e-07
3.15626e-06
4.659e-07
-3.28244e-06
3.44775e-06
3.64143e-07
2.97492e-06
-3.35177e-06
2.97991e-06
8.69396e-08
-2.31785e-07
2.37373e-06
3.81313e-07
1.9949e-06
6.16259e-07
-5.05641e-07
7.20341e-07
1.95514e-06
-5.1674e-07
-2.41826e-06
2.36932e-06
4.26235e-07
-3.77283e-07
-2.69921e-06
1.87121e-06
5.96187e-07
1.56568e-06
-2.70148e-06
2.15444e-06
-4.15439e-07
-3.70044e-07
6.92193e-07
2.12366e-06
1.87927e-06
7.81696e-07
-5.34307e-07
8.30502e-07
1.81902e-06
-5.60822e-07
-2.35891e-06
7.45848e-07
2.0657e-06
-4.52615e-07
-2.70764e-06
1.61022e-06
7.2732e-07
1.36156e-06
-2.69371e-06
1.94502e-06
-5.01639e-07
-1.14523e-07
-3.47098e-06
3.08293e-06
5.02573e-07
2.66124e-06
-2.77387e-06
3.82622e-07
-2.69933e-07
6.27839e-07
-2.77649e-06
2.49321e-06
-3.44601e-07
-3.22282e-06
3.0377e-06
4.69698e-07
-2.84485e-07
-3.24865e-06
2.77129e-06
3.62885e-07
2.38365e-06
-2.97108e-06
-3.32604e-06
2.87451e-06
-3.14539e-07
2.58531e-06
-2.8508e-06
3.96519e-07
5.17279e-07
-2.9256e-06
2.40583e-06
-3.25856e-06
3.06284e-06
3.93182e-07
1.32586e-07
-2.90061e-06
2.3637e-06
4.04363e-07
2.62525e-06
2.9099e-06
-2.9498e-06
3.22946e-06
2.67491e-06
3.67586e-07
2.64585e-06
2.24386e-06
-2.64418e-06
2.11289e-06
2.72403e-06
1.46833e-06
-2.27111e-06
1.97209e-06
-1.58057e-07
-5.47885e-07
-6.47815e-07
-2.52864e-07
1.82332e-06
2.87679e-06
-2.94894e-06
2.47799e-06
-3.34671e-06
2.93858e-06
2.57613e-06
-2.98629e-06
-2.15512e-06
-2.95032e-06
2.32903e-06
5.56281e-07
-2.09879e-07
2.53043e-06
-1.44561e-07
5.39508e-07
-2.90449e-06
-2.84685e-07
-1.84267e-06
-3.6182e-07
-6.11536e-07
-2.61825e-07
2.71158e-06
-4.61552e-07
2.5574e-06
-2.11477e-06
-2.18975e-06
2.42014e-06
-3.81157e-07
-3.23742e-06
-2.28884e-06
1.282e-06
4.25124e-06
2.14153e-06
-2.52046e-06
-9.45695e-07
1.32807e-06
-4.11916e-06
-2.74534e-06
2.17154e-06
4.69482e-06
8.39795e-06
-6.62613e-06
2.91786e-06
-4.68555e-06
-1.76924e-07
-2.30676e-06
-7.50008e-07
-5.83276e-06
7.79894e-06
1.91716e-07
5.89992e-06
-9.75921e-06
-1.61326e-06
1.11574e-06
-1.0268e-06
1.52626e-06
1.15857e-06
-1.19458e-06
-1.19198e-06
1.22789e-06
-1.08662e-06
1.12536e-06
-1.93753e-06
1.89915e-06
1.61488e-06
1.37853e-06
-2.1256e-06
-8.66166e-07
-1.41764e-07
-5.24286e-07
-9.46398e-07
-6.62387e-07
1.67955e-06
-2.35846e-07
1.32662e-06
-1.98467e-06
-4.48524e-06
-1.82615e-06
1.64344e-06
4.66791e-06
1.34309e-06
-1.49602e-06
-3.26017e-06
3.41321e-06
-2.91947e-06
1.62406e-06
-4.63531e-06
5.93073e-06
6.46655e-06
-2.56688e-06
2.06923e-06
-5.96891e-06
5.34778e-07
-3.13091e-06
-1.88912e-06
-2.72503e-06
4.60291e-06
1.28512e-06
2.05053e-06
-4.35938e-06
-6.0774e-06
7.10827e-06
3.6009e-06
-4.63033e-06
2.32914e-06
2.70385e-06
-3.85088e-06
-1.18251e-06
-2.40169e-06
3.19518e-06
1.50737e-06
-2.3013e-06
9.10315e-06
3.6841e-06
-7.00671e-06
-5.78047e-06
1.17411e-06
-2.39697e-06
-4.85451e-06
-1.27619e-06
4.77968e-06
1.02609e-06
5.68008e-06
-2.65166e-06
-7.89393e-07
-3.74943e-07
-1.35502e-06
3.72237e-08
-1.52291e-06
-1.25953e-06
8.54508e-07
-2.442e-06
-5.03781e-06
3.65461e-06
-8.1643e-07
-1.4295e-06
-1.40833e-06
2.57713e-06
-2.27811e-06
-1.08718e-06
-7.144e-06
2.80488e-06
-1.42816e-06
-3.48439e-06
-2.93207e-07
1.03536e-06
1.60839e-06
-1.04491e-06
2.20892e-07
-6.30736e-07
1.53593e-06
-2.03301e-06
-2.82015e-06
3.33004e-06
-1.97062e-06
5.91487e-07
9.6449e-07
-2.6102e-06
1.16948e-06
-1.42481e-06
-3.6142e-06
5.48968e-07
1.8053e-06
7.48927e-07
3.91754e-06
2.14589e-06
-8.71438e-07
8.13826e-07
1.09389e-06
1.2872e-06
-2.61231e-06
-2.05641e-06
1.05428e-06
-5.34765e-06
-1.57792e-06
3.35354e-07
-4.09745e-06
2.22285e-06
-3.69582e-06
1.18384e-06
-3.10015e-06
2.33088e-07
-2.35969e-06
-4.2206e-06
-1.76605e-06
-1.66239e-06
-2.95758e-06
-3.43608e-06
3.47094e-06
-1.60395e-06
-1.97522e-06
1.07236e-07
-2.18043e-06
4.55941e-06
-2.89922e-06
5.20079e-07
-4.2695e-06
4.08756e-06
-2.55923e-06
2.74041e-06
2.66992e-06
3.63547e-06
-2.56097e-06
-3.74481e-06
5.02167e-06
1.21103e-06
-2.76302e-06
2.56323e-06
2.77245e-07
6.79831e-06
-2.91794e-06
5.09174e-06
4.12141e-06
-3.12707e-06
-2.90084e-06
1.90633e-06
-3.40315e-06
3.00868e-06
-1.56981e-06
1.96431e-06
-2.32743e-06
-2.93741e-06
3.41613e-06
1.84909e-06
1.41406e-06
-1.65746e-06
1.86815e-06
-1.62476e-06
6.06022e-06
7.17209e-07
-2.6556e-06
8.05326e-07
1.85201e-06
4.29113e-06
-2.15934e-06
2.76912e-06
4.83285e-06
-5.30906e-06
-4.30886e-06
4.78328e-06
-3.3777e-06
-3.69477e-06
4.37458e-06
2.69721e-06
-4.85956e-06
-4.68188e-06
4.8093e-06
4.73175e-06
3.26587e-06
-2.44419e-06
-2.97547e-06
2.15412e-06
8.93948e-06
2.31236e-07
-4.33938e-06
1.12517e-06
4.43641e-06
8.34019e-06
-4.84343e-06
4.60571e-06
1.75749e-06
1.65369e-06
-1.39609e-06
-2.01502e-06
-1.30992e-06
1.33822e-06
1.29417e-06
-1.32253e-06
-1.47771e-06
1.62283e-06
-1.25173e-06
1.10668e-06
1.24363e-06
-1.16112e-06
1.38774e-06
-1.4703e-06
3.11837e-06
1.21552e-07
-1.48245e-06
2.37975e-07
1.57054e-06
2.56032e-06
-1.19516e-06
1.32057e-06
1.76599e-06
5.3192e-06
-2.52658e-06
-4.31077e-06
7.14168e-06
1.25429e-06
5.57786e-06
6.98531e-07
-2.64063e-06
-2.67369e-06
3.69629e-06
5.83408e-07
-1.60625e-06
-2.78997e-06
-1.82476e-06
6.3804e-06
-2.00899e-06
-2.18088e-06
-2.31768e-06
1.3883e-06
9.12492e-07
1.27942e-06
1.39982e-06
6.3895e-07
-6.21988e-06
1.12728e-06
2.15386e-06
3.21772e-06
1.19656e-06
2.72638e-06
3.45563e-06
3.83645e-06
2.6955e-06
4.59686e-06
2.45691e-06
1.07226e-06
-3.16966e-06
8.75779e-06
-4.33516e-06
4.5907e-06
-2.23775e-06
-1.78738e-06
3.70909e-06
-2.5606e-07
4.4901e-06
-2.61049e-06
-2.89107e-06
2.52473e-06
-2.8023e-06
3.08834e-06
-2.8715e-06
5.14106e-06
4.64459e-06
-6.60998e-07
2.70718e-06
2.11945e-06
2.22871e-06
-6.04481e-06
3.47666e-06
-2.6335e-06
2.93871e-06
1.84657e-06
-2.03383e-06
1.9322e-06
7.96985e-06
5.42405e-06
-2.57155e-05
1.23224e-05
-6.84937e-06
-5.62754e-06
3.87534e-06
8.60224e-06
1.55412e-05
-1.72341e-06
-6.66364e-06
-7.15468e-06
-8.98564e-06
4.13525e-06
-4.71769e-07
5.3208e-06
-1.74535e-06
3.72969e-06
5.98604e-06
-5.78286e-06
-2.81094e-06
-7.03595e-06
1.78025e-06
2.72233e-06
-2.0338e-06
8.69641e-07
2.53712e-07
9.12293e-07
1.1416e-06
-6.8152e-08
-1.98921e-06
9.15929e-07
1.2806e-06
1.32067e-06
-2.93213e-07
-2.30838e-06
-1.39665e-06
7.88307e-07
-2.88968e-07
8.98021e-07
-2.61616e-06
1.34239e-06
-7.60263e-07
7.25368e-07
-2.19991e-06
-2.16263e-06
2.1083e-06
-1.56923e-07
-1.1488e-06
7.76692e-06
-5.11048e-06
-1.50754e-06
1.11111e-06
1.03618e-06
-7.53705e-07
-1.39429e-06
1.76883e-06
4.30395e-07
-1.19202e-06
-1.00721e-06
-3.26465e-06
5.5667e-06
-6.00159e-07
-1.70224e-06
-2.74075e-06
-2.43491e-06
4.02605e-06
-5.28816e-07
-1.10108e-06
-2.55767e-06
-3.14184e-06
-1.31793e-06
-1.70279e-06
-1.2079e-06
-9.73547e-07
3.88328e-06
-1.14155e-06
-3.7634e-06
5.95702e-07
4.30932e-06
4.86031e-06
-3.22286e-06
-7.49503e-07
-8.87987e-07
-2.11792e-06
3.01053e-07
-1.89799e-06
3.71551e-06
-3.97107e-06
-3.32933e-06
5.5974e-06
-1.86368e-06
-3.24912e-06
-4.54356e-06
-9.03615e-07
-1.547e-06
-4.48366e-06
-6.13529e-06
4.99085e-06
7.17166e-06
-2.49155e-06
-6.40364e-06
2.49366e-07
-2.16531e-06
6.04841e-06
-2.22144e-06
-2.4892e-06
8.54714e-07
3.85605e-06
-5.61943e-06
4.72587e-06
-3.5902e-06
4.27456e-06
-4.88815e-06
7.39243e-06
-3.64823e-07
-5.59044e-06
3.24948e-07
-1.08394e-06
-6.17363e-07
3.89962e-06
1.25797e-07
-2.70502e-06
1.98843e-06
-5.77931e-06
1.29963e-06
-4.14902e-06
-5.03152e-06
-3.12486e-06
-2.87696e-06
-1.662e-07
-2.1027e-06
3.4524e-06
-5.77278e-06
-4.08319e-06
-4.37142e-06
9.96697e-07
-1.03983e-06
-1.86903e-06
2.35754e-06
-3.93663e-06
-1.64409e-06
5.37765e-06
-2.08438e-06
1.58711e-07
6.41253e-07
3.6477e-06
-3.37479e-06
-3.78527e-06
3.89751e-06
-2.26777e-06
-2.27863e-06
-2.07942e-07
2.4157e-06
-1.25434e-06
2.30593e-07
9.82496e-09
7.53286e-07
3.22799e-07
-1.20273e-06
-8.99966e-07
2.50133e-06
-2.51328e-06
9.1192e-07
-2.36795e-06
-1.03236e-06
2.60149e-06
7.98795e-07
2.28385e-06
-8.656e-07
-2.13009e-06
7.11836e-07
9.91306e-07
-8.1178e-07
2.03133e-06
-2.21086e-06
-3.17483e-09
-3.24609e-06
2.34929e-06
-3.21253e-06
8.41389e-07
-1.11336e-08
-2.24359e-06
-9.39846e-07
-1.16894e-06
-2.1841e-06
2.69948e-06
6.53645e-07
-1.91234e-06
2.80964e-06
-1.39602e-06
4.98863e-07
2.40723e-06
-1.90971e-06
-9.75316e-07
4.77794e-07
6.85886e-07
-2.0096e-06
2.32519e-06
-1.00149e-06
-5.90036e-07
-3.12741e-06
2.54859e-06
-3.09003e-06
5.87696e-07
-4.74813e-07
-1.96668e-06
-1.15761e-06
-8.61799e-07
2.13259e-06
-1.89426e-06
6.23245e-07
-1.8459e-06
2.1894e-06
-8.64592e-07
5.20748e-07
2.07684e-06
-1.78828e-06
-8.535e-07
5.64533e-07
6.18828e-07
2.03111e-06
-1.80443e-06
-8.45749e-07
-2.74483e-07
-2.67928e-06
2.09178e-06
-2.66974e-06
5.49257e-07
-2.68869e-07
-1.79181e-06
-8.61792e-07
-7.44411e-07
9.25889e-07
1.82564e-06
-2.00727e-06
-1.94816e-06
8.33577e-07
1.91217e-06
-7.9778e-07
1.97511e-06
6.76153e-07
-1.82074e-06
-8.30763e-07
7.31439e-07
1.89291e-06
-1.81225e-06
-8.12309e-07
4.73779e-08
-2.69775e-06
1.90573e-06
-2.69742e-06
7.96568e-07
-9.05023e-08
-1.87599e-06
-8.12878e-07
-3.19569e-06
-2.78111e-07
2.44138e-06
2.21732e-06
-1.91444e-07
-2.8916e-06
7.66049e-08
-2.90426e-06
2.01584e-06
8.89733e-07
-9.50134e-08
-2.87659e-06
2.08185e-06
-2.14496e-06
-8.43166e-07
-2.0761e-07
-8.67498e-07
-2.08666e-06
2.13322e-06
-2.87757e-06
-3.17125e-06
7.09033e-07
7.37541e-07
-2.84218e-06
3.74731e-07
-2.82935e-06
5.44853e-07
1.99578e-06
-2.85569e-06
6.68387e-07
-1.00693e-06
-2.37198e-06
-2.23611e-06
-9.78124e-07
6.01887e-07
-2.83952e-06
-7.7953e-07
-1.63607e-07
-1.94863e-06
4.51095e-08
-2.02359e-06
-1.974e-06
-6.91228e-08
2.68892e-06
-1.80878e-07
-1.83209e-06
2.00948e-06
-8.11732e-07
-1.9774e-06
-8.23015e-07
2.00045e-06
-1.23401e-07
-8.86734e-07
2.69198e-06
-8.41845e-07
-2.05374e-06
-8.5767e-07
2.8292e-07
-9.23016e-07
-6.65577e-07
1.87051e-06
1.90295e-06
-6.86131e-07
-8.36981e-07
-3.12021e-07
8.58721e-08
2.36922e-07
-6.30815e-07
-2.62443e-06
-6.79584e-07
1.71058e-07
2.74846e-06
-6.48899e-07
2.25606e-07
2.55769e-06
-3.21012e-07
-3.07305e-07
2.2602e-06
1.6729e-07
-6.7151e-07
-8.46372e-07
3.39529e-07
4.4643e-07
-1.11368e-06
-2.30805e-06
3.71598e-07
-1.21138e-06
2.77792e-06
2.86107e-07
-1.03267e-06
2.13255e-06
-6.29557e-07
-6.35235e-07
1.82709e-06
3.21357e-07
-1.11614e-06
-1.04149e-06
-2.32984e-06
2.40341e-07
2.78751e-07
-2.12513e-06
-1.34923e-06
-1.93334e-06
-1.42769e-06
1.84564e-07
2.7598e-06
-1.76275e-06
-1.19e-06
1.92943e-07
1.90349e-06
-9.4084e-07
-2.00405e-06
-1.04978e-06
1.62926e-06
1.89784e-07
-1.35381e-06
-7.77387e-07
2.44774e-06
2.41684e-07
2.57789e-07
2.48183e-06
-9.14029e-07
-1.75771e-06
2.46566e-06
-9.25479e-07
2.17474e-07
2.30597e-06
-6.40319e-07
2.27175e-07
1.61804e-06
-4.89759e-07
-6.38481e-07
2.51429e-06
1.52515e-06
2.90991e-07
-8.71069e-07
-5.00468e-07
2.31106e-06
-2.30514e-06
2.25045e-06
-6.24829e-07
1.94614e-06
-5.13219e-07
8.45643e-07
1.81329e-06
-6.43073e-07
2.39285e-07
-2.73228e-06
1.99257e-06
-2.73736e-06
2.46587e-07
-5.44652e-07
-5.01834e-07
2.7934e-06
-6.93963e-07
-2.02799e-06
-8.20947e-07
-2.6687e-07
-6.42472e-07
-9.15976e-07
2.40676e-06
2.19882e-06
-9.58116e-07
-7.87241e-07
-2.75866e-06
1.93098e-06
2.02946e-07
1.67478e-06
2.59701e-07
2.98088e-07
1.54072e-06
7.05675e-07
1.49772e-06
2.62237e-07
-2.06051e-06
-9.27839e-07
2.29654e-07
-9.30388e-07
-1.88199e-06
1.65985e-06
-1.04132e-06
8.42451e-07
-1.10751e-06
1.88249e-06
-1.03578e-06
-1.72368e-06
-1.22219e-06
-2.77136e-06
-2.73963e-07
-2.69082e-07
-2.78489e-06
-1.17155e-06
1.1755e-06
-1.31635e-06
-9.58012e-07
1.12138e-06
9.43423e-07
-1.33476e-06
-7.29781e-07
-1.34011e-06
1.21767e-06
-9.332e-07
-1.03393e-06
9.99532e-07
-1.41127e-06
2.32404e-07
2.55194e-06
-1.60864e-06
2.26937e-06
-9.15473e-07
3.40566e-08
9.6333e-07
1.31724e-06
2.32146e-06
-2.23535e-06
-1.40294e-06
3.33682e-06
1.37245e-07
6.74565e-07
-4.14849e-06
-4.1084e-06
6.99781e-06
1.86432e-06
-4.7535e-06
-3.46667e-06
4.27313e-06
8.82127e-07
-1.6886e-06
-1.9141e-06
6.02089e-06
-2.78948e-06
6.09711e-06
-4.67422e-06
-2.23145e-06
4.78577e-06
-2.42672e-07
2.26283e-06
-1.8424e-06
-1.91017e-06
4.77273e-06
-5.94023e-06
5.73797e-06
-4.57035e-06
-4.73414e-06
5.1777e-06
-4.66219e-06
-1.99162e-06
-2.71794e-06
2.25025e-06
5.20247e-07
3.87177e-06
-2.12889e-06
1.01038e-05
-4.81069e-06
-1.00328e-07
5.26931e-06
7.88041e-07
-1.38942e-06
-1.42367e-06
3.29185e-06
-2.90095e-06
1.38237e-06
-1.77323e-06
-2.25499e-06
-2.92028e-06
1.63566e-06
-2.03186e-06
7.30831e-07
-8.03281e-07
-1.35482e-06
3.80651e-06
-1.66359e-06
4.95742e-06
-3.02038e-06
-1.26523e-06
1.43721e-06
4.15022e-06
-2.25329e-07
-2.98139e-06
-2.55413e-06
4.68834e-07
3.30316e-06
-3.33157e-07
2.71988e-06
-1.38704e-06
-8.56928e-07
-1.88174e-06
4.76388e-06
-2.0253e-06
2.8579e-06
1.42401e-06
-1.31581e-07
1.2671e-06
2.46943e-06
-1.90225e-06
3.40342e-06
3.64551e-06
-1.54922e-06
-3.2173e-06
5.60884e-06
6.96203e-07
1.1325e-05
-5.02336e-06
-1.54259e-06
3.55698e-06
-1.54525e-06
1.20283e-06
2.31132e-06
2.77135e-06
2.37978e-06
-1.61104e-06
5.84738e-06
9.35782e-07
3.4673e-07
-4.40274e-07
4.43794e-06
-2.575e-06
-4.73042e-06
-1.87275e-06
-2.00629e-06
9.20363e-07
9.56855e-07
-2.37442e-06
-1.43562e-06
2.06132e-06
-6.27481e-06
1.68437e-06
2.17012e-06
8.63972e-07
9.90193e-07
4.39458e-06
2.70769e-06
-2.77517e-06
-5.0026e-06
4.06243e-06
1.22998e-06
1.02047e-06
-1.19936e-06
-1.2431e-06
1.42198e-06
1.83185e-06
1.34211e-06
-1.71501e-06
-1.45892e-06
-1.2822e-06
1.00029e-06
-1.46377e-06
1.74574e-06
-1.70265e-06
1.23795e-06
-1.2626e-06
1.72727e-06
-4.38633e-07
2.62774e-06
-1.16864e-06
2.79642e-06
-1.40318e-06
-7.17289e-07
1.64239e-06
7.96934e-07
2.27739e-06
3.9787e-06
-2.84678e-06
-3.40932e-06
5.38717e-06
-3.58911e-06
-4.21554e-06
2.41734e-06
-4.87004e-06
5.8099e-06
-4.16687e-06
3.22692e-06
-3.43262e-06
4.95131e-06
-4.67888e-06
3.16014e-06
-9.97753e-07
8.46863e-06
-5.19354e-06
8.26447e-06
-3.8751e-06
-6.54356e-07
5.69031e-06
2.74007e-06
1.16926e-06
-1.79492e-06
-2.15314e-06
2.77879e-06
4.34571e-06
-3.19692e-06
-2.60551e-06
1.45667e-06
-1.85591e-06
-2.81832e-06
3.5826e-06
1.09159e-06
-3.61946e-06
-3.52237e-06
4.91676e-06
2.22509e-06
-2.47737e-06
6.15009e-06
-2.50343e-06
5.04689e-06
-3.17857e-06
-1.87971e-06
4.41034e-06
1.31128e-06
2.17966e-06
-2.94145e-06
-1.51127e-06
2.27305e-06
5.06635e-06
-3.57142e-06
-5.20083e-06
3.70589e-06
-5.32845e-06
-4.05858e-06
5.87905e-06
3.50797e-06
-3.16104e-06
-4.36822e-06
3.20137e-06
4.32785e-06
1.81229e-07
5.36795e-06
-3.36954e-06
9.023e-06
-3.77544e-06
1.30695e-07
2.07619e-06
3.82525e-06
4.63109e-06
-1.01175e-06
-2.2772e-06
-6.83257e-07
-1.2478e-06
2.93136e-06
-1.10782e-06
4.68307e-06
-2.33729e-06
-2.79046e-06
-5.25507e-07
9.78229e-06
-6.46636e-06
1.70724e-06
3.60368e-06
-6.79822e-07
1.82093e-06
5.42605e-06
-4.61282e-06
6.13918e-06
5.28194e-06
-2.31498e-06
-3.80265e-06
8.22843e-06
1.65402e-06
7.84509e-06
-3.68921e-06
-3.60328e-06
4.80075e-06
-2.44527e-06
2.23728e-06
2.36484e-06
4.12493e-06
1.84101e-06
-3.07947e-06
7.61998e-06
2.4589e-06
-1.83486e-06
2.30732e-06
-1.48515e-06
3.22677e-06
6.26762e-06
-5.67693e-08
-8.13039e-06
-1.55295e-06
5.62481e-06
-2.26802e-06
1.81885e-06
2.90807e-06
2.38601e-06
-4.87819e-06
-1.43333e-06
1.17098e-06
-8.0589e-06
2.98361e-06
4.91093e-06
3.26074e-06
1.71013e-06
2.93805e-06
4.45651e-06
-5.78892e-06
-5.03571e-06
3.5412e-06
3.41642e-06
-1.81692e-06
3.08537e-06
-2.93272e-06
1.66422e-06
3.56889e-06
-2.4928e-06
-3.44474e-06
2.36859e-06
-3.03475e-06
-1.93968e-06
2.05371e-06
2.92072e-06
1.72278e-06
-1.74476e-06
2.42118e-06
-2.39931e-06
-2.50831e-07
1.5519e-06
-3.11804e-06
6.31788e-07
2.68628e-06
4.94279e-07
2.78043e-06
-1.9087e-06
-4.74147e-06
4.82835e-06
-3.45402e-06
3.36723e-06
4.63963e-06
-5.82034e-06
-4.63531e-06
5.81614e-06
-3.8723e-06
5.46608e-06
-4.89533e-06
3.3018e-06
2.90327e-06
1.2201e-06
-1.55979e-06
-2.56355e-06
-2.63106e-06
1.07006e-06
-3.18049e-06
-1.97839e-06
3.98694e-06
-3.38377e-07
4.31164e-06
-6.18907e-06
-2.51429e-06
-4.01077e-06
4.13493e-06
2.39013e-06
5.74051e-06
-4.70651e-06
-4.3173e-06
3.28313e-06
-1.76025e-06
-1.87346e-06
3.53715e-07
3.27981e-06
1.03728e-06
-1.78021e-06
-2.52726e-06
3.27003e-06
-1.92127e-06
2.78402e-06
-3.37738e-06
1.39097e-06
2.428e-06
-1.28818e-06
5.10936e-06
-1.65761e-06
-1.61112e-06
1.57472e-06
1.23617e-06
-1.19984e-06
4.97666e-07
1.84961e-06
-1.32279e-06
-1.02463e-06
-8.23137e-07
2.09491e-06
-2.13269e-06
8.60851e-07
1.86493e-06
-1.19557e-06
4.52953e-07
-1.12239e-06
1.35139e-07
-7.07162e-07
-1.03926e-06
-1.09613e-06
1.72881e-06
-3.73302e-08
1.19502e-06
-1.95663e-06
1.55679e-06
-1.20904e-06
-2.84068e-06
-2.91683e-06
2.24866e-07
7.52167e-07
-8.19424e-08
5.52299e-07
-2.21513e-06
1.29298e-06
1.1916e-06
9.05891e-08
-2.57525e-06
2.84194e-06
-1.97621e-06
6.90997e-07
-1.98358e-06
2.46743e-06
-3.15063e-06
4.01953e-07
9.86727e-07
2.63252e-06
1.96276e-06
4.48896e-07
1.17315e-06
1.38806e-06
2.90507e-06
-4.12253e-06
1.35429e-06
2.99309e-06
-1.99325e-06
3.67099e-06
4.28114e-06
-3.62807e-06
3.17651e-06
1.82622e-06
-1.94731e-06
7.29557e-07
1.96996e-06
5.08424e-09
2.12195e-06
9.76901e-07
9.6325e-07
1.08149e-06
-3.26169e-07
1.33942e-06
-1.796e-06
-1.9126e-06
1.76126e-06
-1.38898e-06
-1.31673e-06
4.85578e-07
-1.92697e-06
-6.40808e-07
-1.46565e-06
2.27716e-06
-8.65098e-07
5.33933e-07
-3.85237e-06
-1.5191e-06
-3.78526e-06