/*--------------------------------*- C++ -*----------------------------------*\
| =========                 |                                                 |
| \\      /  F ield         | OpenFOAM: The Open Source CFD Toolbox           |
|  \\    /   O peration     | Version:  2506                                  |
|   \\  /    A nd           | Website:  www.openfoam.com                      |
|    \\/     M anipulation  |                                                 |
\*---------------------------------------------------------------------------*/
FoamFile
{
    version     2.0;
    format      ascii;
    arch        "LSB;label=32;scalar=64";
    class       volVectorField;
    location    "1800";
    object      U;
}
// * * * * * * * * * * * * * * * * * * * * * * * * * * * * * * * * * * * * * //

dimensions      [0 1 -1 0 0 0 0];

internalField   nonuniform List<vector> 
60096
(
(902240 842768 4.51234e+06)
(1.63816e+06 -3.43036e+06 -5.50408e+06)
(947687 -824599 -1.91717e+06)
(676065 1.00029e+06 806566)
(2.4626e+06 936400 46540.5)
(1.42568e+06 -1.47826e+06 -2.99354e+06)
(1.41491e+06 577614 2.30654e+06)
(-208177 -936404 -2.04488e+06)
(410530 -4.21592e+06 -1.61811e+07)
(97752.9 -3.38603e+06 -3.56346e+07)
(522591 5.62023e+06 -1.31847e+06)
(-3.42847e+06 -247820 -1.6194e+07)
(459794 -4.29377e+06 -1.64279e+07)
(1.80815e+06 -4.27538e+06 -2.28619e+07)
(-190833 11539.1 -1.17976e+07)
(-147415 -3.88181e+06 -8.38035e+06)
(-2.06604e+06 -2.91387e+06 -1.00398e+06)
(-484547 1.24142e+06 -31395.4)
(-7.3039e+06 -1.21021e+07 -2.84998e+06)
(-1.84905e+06 -1.73361e+06 -672104)
(-1.9525e+06 -402186 -1.69772e+06)
(-1.90929e+06 -1.48295e+06 516576)
(-2.72314e+06 -1.53896e+06 -1.43096e+06)
(-1.94222e+06 -3.45475e+06 -2.66691e+06)
(-477962 196533 1.41901e+06)
(-2.62124e+06 -1.34122e+06 -4.93282e+06)
(1.23546e+06 218881 470156)
(-790200 -136292 3.26158e+06)
(-2.01773e+06 -126504 874603)
(-1.65387e+06 -81213 -3.63255e+06)
(-2.2318e+06 347964 215423)
(-1.21275e+06 51082.9 -2.19766e+06)
(-55748.8 -1.60032e+06 -6.51812e+06)
(1.01459e+06 -1.03231e+06 -2.56379e+06)
(360870 239453 114909)
(-1.32168e+06 -2.49875e+06 -6.89499e+06)
(1.16569e+06 -1.4661e+06 -4.26612e+06)
(1.31197e+06 -778122 -3.55848e+06)
(-826560 -3.00043e+06 -6.20367e+06)
(-255604 -1.14438e+06 -3.95998e+06)
(385108 -2.4868e+06 -1.06865e+07)
(-902878 -297205 -1.22287e+07)
(297448 940552 -9.58401e+06)
(765152 -355774 -2.16489e+06)
(748064 -1.42581e+06 -6.75178e+06)
(-407576 37167 -1.16446e+07)
(353904 125367 -4.49663e+06)
(-155065 544505 -1.10989e+07)
(-67125.1 -550143 203008)
(49358.7 977839 1.04914e+06)
(-197573 -2.33856e+06 -1.41861e+06)
(1.0185e+06 566848 450068)
(-770123 190113 -2.32051e+06)
(-521672 82305.5 -1.74985e+06)
(727984 304501 -821109)
(-54736.5 -351322 -560173)
(-590950 -634570 -1.66727e+06)
(966820 150114 1.14833e+06)
(946947 1.43127e+06 -209578)
(-254247 -939513 -5.24435e+06)
(-1.01693e+06 -772502 -3.28695e+06)
(349948 1.76257e+06 -829296)
(-904528 -1.15454e+06 -5.55055e+06)
(594298 2.797e+06 4.41324e+06)
(386079 -458852 -746451)
(-243093 -202890 1.16722e+06)
(-263543 44019.2 1.48828e+06)
(123855 26086.6 1.22033e+06)
(164212 -486266 -571140)
(-627501 -85772.4 862586)
(-22803.2 92118.2 1.24882e+06)
(-414398 -12409.9 1.58038e+06)
(5816.22 21776 1.55245e+06)
(360575 90469.6 1.80444e+06)
(217594 385359 1.70784e+06)
(235068 212314 1.70183e+06)
(61963.6 71974.3 1.51378e+06)
(90234.5 164406 1.62759e+06)
(125573 208490 1.6479e+06)
(96065.4 325602 1.68785e+06)
(-173919 266149 1.6038e+06)
(228031 580236 1.73589e+06)
(159272 674066 1.69901e+06)
(185572 673623 1.85492e+06)
(-32272.1 468748 1.69981e+06)
(115737 443408 1.62682e+06)
(78337.7 537032 1.6782e+06)
(198305 681228 1.61919e+06)
(53303.4 202202 1.75626e+06)
(259835 310295 1.78827e+06)
(236020 593819 2.18967e+06)
(280434 488342 2.30001e+06)
(35484.9 357428 1.81766e+06)
(131613 338757 1.73613e+06)
(162273 465998 2.01249e+06)
(165567 484351 1.90656e+06)
(-164254 -23083.6 1.43091e+06)
(-208348 146438 1.58796e+06)
(-72888.3 -8656.13 1.42982e+06)
(61384.8 207922 1.50073e+06)
(-73077.9 64907.9 1.41432e+06)
(-167979 22471.1 1.4252e+06)
(-14655.5 110921 1.49918e+06)
(-99411.5 188575 1.54686e+06)
(-143693 31838.6 1.45564e+06)
(36113.2 244515 1.54811e+06)
(114240 369471 1.55372e+06)
(-109528 268977 1.49376e+06)
(-57361.1 146886 1.48708e+06)
(3592.37 109903 1.5367e+06)
(-18699.5 269798 1.61328e+06)
(12540.9 330676 1.66003e+06)
(-81596.5 167953 1.61427e+06)
(-9118.46 256212 1.61843e+06)
(123058 316356 1.69138e+06)
(145051 506882 1.89649e+06)
(-31033.1 354217 1.77916e+06)
(1032.6 182622 1.65003e+06)
(11576.2 377894 1.86888e+06)
(-20061.3 231758 1.69603e+06)
(-41175.7 265284 1.53664e+06)
(191445 548452 1.69834e+06)
(104334 372711 1.66001e+06)
(137678 519355 1.61518e+06)
(53552.6 304298 1.61926e+06)
(104100 415734 1.62953e+06)
(143906 381693 1.68852e+06)
(209484 405189 1.80999e+06)
(-5798.88 106394 1.72513e+06)
(222.733 116717 1.77918e+06)
(40705.2 111443 1.62919e+06)
(4413.43 156108 1.69158e+06)
(5014.82 112920 1.7614e+06)
(3344.47 96762.7 1.6933e+06)
(12283.3 119213 1.63379e+06)
(16235.8 86727 1.62938e+06)
(-9232.61 64677 1.67783e+06)
(85026.8 -80681.1 1.51365e+06)
(262790 -147000 1.67114e+06)
(65614.8 -44822.7 1.62268e+06)
(-10873 24564.6 1.63017e+06)
(37164.1 -25611.2 1.53947e+06)
(81243.8 -13107.9 1.59257e+06)
(117223 -54677.7 1.51932e+06)
(112682 185886 1.46038e+06)
(299132 -107064 1.59416e+06)
(282498 17706.6 1.61959e+06)
(291297 -110573 1.51185e+06)
(147335 161909 1.41194e+06)
(166743 43514.6 1.50372e+06)
(172215 34226.7 1.45663e+06)
(136719 105633 1.53258e+06)
(2782.56 187646 1.80693e+06)
(95371.4 4051.26 1.59132e+06)
(208537 -53146.2 1.60685e+06)
(102502 92678.7 1.6771e+06)
(-14147.3 200570 1.68701e+06)
(40324.3 92089 1.60933e+06)
(101844 103192 1.65223e+06)
(112947 52018.8 1.53698e+06)
(-17125.3 106315 1.70928e+06)
(56303.3 128940 1.62302e+06)
(473.778 178705 1.73853e+06)
(-12268.2 143152 1.72678e+06)
(-9140.68 117054 1.76264e+06)
(6177.59 110479 1.69662e+06)
(2351.62 138947 1.67808e+06)
(16010.2 95580.6 1.62225e+06)
(17504.6 49983.6 1.61697e+06)
(36148.7 20312.5 1.60136e+06)
(141386 -17892.2 1.54839e+06)
(94722.7 74996.7 1.48235e+06)
(47368.9 24177.8 1.60001e+06)
(54288.8 24793.1 1.6366e+06)
(81526.6 123613 1.54863e+06)
(98092.3 94154.4 1.52526e+06)
(47635.1 126696 1.51812e+06)
(-3048.9 188884 1.73931e+06)
(88768.8 39684.9 1.54277e+06)
(150035 36458.4 1.52678e+06)
(59951.1 137111 1.57476e+06)
(37347.5 85974.8 1.6241e+06)
(52730.4 103542 1.52804e+06)
(33522 99106.8 1.65166e+06)
(113728 30133 1.48476e+06)
(121689 39345.2 1.4406e+06)
(130098 -11210.4 1.48347e+06)
(148475 1807.28 1.54193e+06)
(118549 25988.3 1.51218e+06)
(111853 -17770 1.48208e+06)
(172745 -12917.4 1.51765e+06)
(223153 -158671 1.62995e+06)
(498482 2.62052e+06 578231)
(789047 1.39372e+06 1.19792e+06)
(699564 1.48779e+06 992416)
(686173 1.81196e+06 1.3027e+06)
(537349 2.07758e+06 754935)
(761428 1.69136e+06 1.12998e+06)
(658233 1.90907e+06 747454)
(790102 1.63642e+06 1.00534e+06)
(712840 543333 1.67662e+06)
(729494 27047.6 1.93729e+06)
(955209 136416 2.00892e+06)
(706206 334899 1.79391e+06)
(637416 496660 1.67863e+06)
(904621 273849 1.84062e+06)
(764127 517853 1.5509e+06)
(747789 172800 1.86011e+06)
(921139 511549 1.34847e+06)
(1.0482e+06 200526 1.95661e+06)
(1.04414e+06 -24521.9 2.08818e+06)
(893715 137251 1.82762e+06)
(884377 435594 1.55225e+06)
(981437 317120 1.55926e+06)
(890248 169004 1.61048e+06)
(1.0236e+06 173493 1.61365e+06)
(773061 1.14518e+06 1.6875e+06)
(748003 517695 2.0043e+06)
(656535 250525 1.94213e+06)
(634828 584715 1.86451e+06)
(766054 1.00785e+06 1.77297e+06)
(957899 675366 1.82871e+06)
(613533 713934 1.55256e+06)
(818954 516672 1.92078e+06)
(719916 1.28343e+06 1.26683e+06)
(742089 1.17687e+06 1.15716e+06)
(732014 1.60911e+06 1.2369e+06)
(766259 984901 1.6216e+06)
(698905 1.0052e+06 1.29896e+06)
(814113 1.18404e+06 1.31178e+06)
(859982 1.07167e+06 1.72245e+06)
(894475 1.17285e+06 1.33297e+06)
(931276 980834 1.56336e+06)
(947064 582150 1.88703e+06)
(1.05496e+06 347948 1.71561e+06)
(943628 911777 1.29389e+06)
(829577 856521 1.46745e+06)
(825235 655484 1.56722e+06)
(968499 562461 1.62978e+06)
(801367 527700 1.58986e+06)
(783515 860928 1.28029e+06)
(748384 1.44994e+06 1.36724e+06)
(770446 740195 1.53432e+06)
(743379 513724 1.37266e+06)
(888413 864270 1.57938e+06)
(909701 1.0782e+06 1.35092e+06)
(788517 798323 1.56182e+06)
(872523 833441 1.52694e+06)
(1.00207e+06 707419 1.30389e+06)
(868019 313727 1.83612e+06)
(828258 524477 1.83768e+06)
(925313 286262 1.77677e+06)
(993625 496369 1.52303e+06)
(1.09291e+06 610469 1.72274e+06)
(975963 466622 1.49011e+06)
(853081 525708 1.72622e+06)
(533128 -145160 1.19936e+06)
(530561 37651.7 1.32806e+06)
(670802 165064 956502)
(557238 -8789.62 1.2354e+06)
(529385 -90570.2 1.32688e+06)
(596550 -83725.8 1.14182e+06)
(526577 -17416.2 1.16792e+06)
(622421 107887 988243)
(356013 -57150.4 1.44248e+06)
(85576.8 -92922 1.47446e+06)
(201614 148289 1.3219e+06)
(143228 2468.4 1.39766e+06)
(150344 -104054 1.59018e+06)
(119740 -19532.9 1.23719e+06)
(169793 33702.8 1.4813e+06)
(150373 147891 1.27278e+06)
(587607 375276 693973)
(399782 435816 899637)
(597116 667848 314252)
(308170 341217 706898)
(429362 245022 953194)
(450728 380236 698165)
(394550 393062 635914)
(447540 592330 444606)
(338169 19229.6 1.39655e+06)
(79731.3 90739.1 1.39451e+06)
(125257 229644 1.10133e+06)
(148103 146933 1.489e+06)
(237705 -27285.1 1.62751e+06)
(140947 -36296.1 1.25014e+06)
(109525 203377 1.35477e+06)
(115341 210632 1.19392e+06)
(447796 -52492.5 1.47064e+06)
(500647 72163.9 1.07267e+06)
(442233 -33906.9 1.37144e+06)
(177511 -64563.2 1.58098e+06)
(387745 82733.5 1.25132e+06)
(524775 59436.5 1.15007e+06)
(318345 56950.8 1.40212e+06)
(421714 -4777.43 1.15676e+06)
(455835 -2214.53 1.17061e+06)
(106612 10649.3 1.20941e+06)
(270057 147095 1.16895e+06)
(590670 152465 966889)
(417795 117922 1.26188e+06)
(214226 24827.1 1.27635e+06)
(503909 229991 1.11645e+06)
(192765 166974 1.10699e+06)
(490800 195903 921904)
(401724 11202.9 1.21282e+06)
(152687 111839 1.34661e+06)
(193445 283248 946383)
(475835 151130 1.03283e+06)
(401041 106581 1.15484e+06)
(262526 94759.2 1.09022e+06)
(272534 17621.8 1.35865e+06)
(555616 286050 823861)
(208413 318934 866957)
(78855.1 207599 1.19325e+06)
(249732 366357 913880)
(360508 189683 887138)
(282474 103808 1.17111e+06)
(213439 330164 1.04287e+06)
(150353 195903 1.12092e+06)
(-660174 198863 1.25215e+06)
(-886897 204705 1.25894e+06)
(-358320 127623 1.33667e+06)
(-536061 172462 1.32304e+06)
(-676679 203875 1.2752e+06)
(-693793 238324 1.25162e+06)
(-675013 134509 1.34247e+06)
(-539855 161039 1.27767e+06)
(80689.6 -10295.5 90106.4)
(248311 -379107 -1.23725e+06)
(-309314 -332742 1.39018e+06)
(-364962 266345 1.51698e+06)
(148017 67429.6 1.55042e+06)
(-206942 -548763 1.4759e+06)
(-325111 -50537.8 1.19658e+06)
(-575632 -341325 1.09561e+06)
(-77227.5 134757 1.49894e+06)
(-62753.8 -27063.3 1.4878e+06)
(168725 37960.4 1.73481e+06)
(51752.3 399916 1.60265e+06)
(-9832.66 179171 1.55523e+06)
(-74017.4 -87752.6 1.49439e+06)
(37975.9 213123 1.61067e+06)
(-51288.6 -61370.4 1.54114e+06)
(-320571 424037 1.44468e+06)
(-213928 237908 1.49126e+06)
(-12639.5 634619 1.57958e+06)
(21953.1 684573 1.71351e+06)
(-252155 373760 1.48224e+06)
(-172250 284526 1.45933e+06)
(-77402.1 628477 1.54275e+06)
(-15604.9 443490 1.56888e+06)
(-849120 135118 827874)
(-337422 184087 1.31305e+06)
(-517592 204154 1.35638e+06)
(-357231 252255 1.45454e+06)
(-692026 336210 1.48833e+06)
(-559589 284477 1.31449e+06)
(-416893 221337 1.41162e+06)
(-374593 250462 1.33497e+06)
(-888048 -465552 40131.9)
(-279961 245717 1.34652e+06)
(-269399 -160067 1.38774e+06)
(-385685 27330.9 1.41251e+06)
(-315492 -137155 1.25772e+06)
(-141989 67113.4 1.24722e+06)
(-357203 -239110 1.23606e+06)
(-251641 46519.6 1.41343e+06)
(-247041 301797 1.43186e+06)
(-404915 244358 1.44924e+06)
(-304172 155842 1.51138e+06)
(3017.24 479874 1.55222e+06)
(-211231 398842 1.481e+06)
(-357397 202408 1.42815e+06)
(-60225.8 349479 1.44164e+06)
(-188259 227787 1.38261e+06)
(-178651 138364 1.39077e+06)
(12925.8 262823 1.58609e+06)
(-266868 135801 1.4762e+06)
(-214365 -6207.67 1.33732e+06)
(-196071 133647 1.50903e+06)
(-88103.4 206696 1.44196e+06)
(-170851 97494.3 1.41668e+06)
(-131317 211615 1.51104e+06)
(7.57682e+06 -9.36908e+06 -1.30294e+06)
(7.40118e+06 -1.29392e+07 -4.57979e+06)
(1.49034e+06 -6.66211e+06 -4.82835e+06)
(827479 -2.08378e+06 -1.10106e+07)
(6.75409e+06 -5.33256e+06 319751)
(5.07099e+06 -8.5833e+06 -4.54185e+06)
(3.08479e+06 -3.95809e+06 -6.33065e+06)
(-452866 -6.48006e+06 -8.57393e+06)
(-3.48664e+06 -1.90515e+07 -2.90439e+06)
(-7.02808e+06 -1.76536e+07 -4.17373e+06)
(-2.46458e+06 -3.38263e+06 -1.98642e+06)
(-2.58266e+06 -5.35601e+06 -8.54621e+06)
(-2.47057e+06 -1.69745e+07 -9.6297e+06)
(-3.00277e+06 -1.41476e+07 -5.74061e+06)
(-2.61503e+06 -1.9698e+06 -4.56204e+06)
(-3.5241e+06 -4.6563e+06 -2.2092e+06)
(2.40704e+06 -1.67999e+06 -1.53796e+06)
(1.02883e+06 -1.4664e+06 -1.54375e+06)
(1.23222e+06 472228 2.76261e+06)
(2.51404e+06 -769655 -4.65258e+06)
(2.73838e+06 -1.13027e+06 -2.15919e+06)
(1.50513e+06 -1.1702e+06 -321560)
(3.29421e+06 -1.29413e+06 -3.55605e+06)
(1.68922e+06 -1.87402e+06 -2.41966e+06)
(-142867 -848792 -1.78981e+07)
(328189 438184 -5.08264e+06)
(2.92739e+06 -2.7487e+06 -1.47194e+07)
(162402 -189414 -2.59112e+07)
(1.0416e+06 82716 -2.13862e+07)
(375152 -3.476e+06 -2.10361e+07)
(200248 -54264.7 -2.53162e+07)
(1.58528e+06 -3.92845e+06 -2.04668e+07)
(-857956 -9.48034e+06 -1.39137e+07)
(2.93295e+06 -3.08672e+06 -5.03611e+06)
(126589 -2.61866e+06 -1.4195e+07)
(489548 -2.44956e+06 -8.06888e+06)
(-2.50975e+06 -3.7301e+06 -1.22258e+07)
(-1.25043e+06 -3.49484e+06 -1.58504e+07)
(-1.76709e+06 -5.64349e+06 -1.12469e+07)
(378093 -2.97659e+06 -1.672e+07)
(393339 -7.89839e+06 -7.15607e+06)
(-275121 1.63053e+06 -6.66346e+06)
(-487417 -1.66095e+06 -2.08993e+06)
(1.28919e+06 -1.68635e+06 -5.90111e+06)
(-2.92908e+06 -4.66718e+06 -5.46403e+06)
(-1.98093e+06 -168115 -3.99693e+06)
(-1.61882e+06 -4.90156e+06 -3.23314e+06)
(-1.05621e+06 -2.47005e+06 -3.5386e+06)
(2.29455e+06 -1.95464e+06 -5.75294e+06)
(1.97026e+06 -1.49247e+06 -1.71276e+07)
(-682395 -172488 -1.0408e+07)
(2.3233e+06 -1.64723e+06 -1.18711e+07)
(3.28417e+06 -957613 -8.25021e+06)
(1.31165e+06 -3.59358e+06 -1.80933e+07)
(2.38761e+06 -2.08225e+06 -1.03022e+07)
(827329 -3.59943e+06 -2.04123e+07)
(1.93709e+06 -1.83101e+06 -7.58453e+06)
(945662 -2.0043e+06 -9.77745e+06)
(-500302 43243.2 -7.74328e+06)
(70722.1 -1.89094e+06 -1.52666e+06)
(1.66117e+06 -1.65771e+06 -8.35303e+06)
(1.27287e+06 -1.68659e+06 -9.02279e+06)
(1.07108e+06 -1.50657e+06 -3.72924e+06)
(467992 -1.00675e+06 -4.76805e+06)
(103989 -15742 1.55538e+06)
(197153 17812.1 1.51068e+06)
(167924 135071 1.41732e+06)
(195683 -4957.51 1.43522e+06)
(281498 136871 1.5217e+06)
(228563 105111 1.46148e+06)
(175821 84195.8 1.427e+06)
(170865 147182 1.4786e+06)
(148101 -91460.6 1.57257e+06)
(118599 -152168 1.57313e+06)
(162742 -9025.22 1.51935e+06)
(205122 -141203 1.53607e+06)
(230533 -6239.65 1.56528e+06)
(179695 -15956.3 1.54992e+06)
(212000 -57148.4 1.48815e+06)
(175194 -14132.7 1.57572e+06)
(155585 62546.5 1.41856e+06)
(144228 -31700.4 1.48854e+06)
(130076 14323.2 1.4522e+06)
(166204 -80.8456 1.49521e+06)
(137875 23853 1.38805e+06)
(104155 -8192.56 1.3941e+06)
(161910 15492.9 1.41789e+06)
(144971 5844.97 1.48193e+06)
(240478 -27513.7 1.49608e+06)
(257423 -101030 1.53525e+06)
(197260 -21048.6 1.43895e+06)
(248138 -103016 1.49077e+06)
(277329 -27016.8 1.45402e+06)
(249136 -20343.5 1.44306e+06)
(253023 -38936.2 1.55871e+06)
(236169 -13824 1.47679e+06)
(278673 56186.6 1.50993e+06)
(182690 85672.9 1.38928e+06)
(265094 24880.1 1.46556e+06)
(251870 -39110.1 1.5064e+06)
(220489 3595.51 1.41441e+06)
(178121 68173.2 1.41305e+06)
(242227 -80580.5 1.46589e+06)
(233658 6177.86 1.43342e+06)
(224271 40023.3 1.48544e+06)
(217834 -47037.6 1.47716e+06)
(152756 -12779.6 1.4788e+06)
(150809 89621 1.37474e+06)
(195898 31280 1.4348e+06)
(200300 -17785 1.52879e+06)
(172299 75557.5 1.40609e+06)
(195381 8512.68 1.47808e+06)
(171228 38965.8 1.42136e+06)
(212545 9848.16 1.43638e+06)
(247028 -69781.8 1.49646e+06)
(182673 -768.384 1.52791e+06)
(188438 21313.3 1.4702e+06)
(195339 13511.2 1.44255e+06)
(199748 25149.9 1.45359e+06)
(220973 9059.84 1.51017e+06)
(152204 68260.2 1.46938e+06)
(165437 -5355.33 1.50691e+06)
(217898 -48039.5 1.48566e+06)
(152072 -25678.3 1.54027e+06)
(135349 8844.05 1.40991e+06)
(185037 -10564.6 1.44981e+06)
(179868 -42506.5 1.42503e+06)
(207484 -42222.5 1.49368e+06)
(89096.6 -33831.6 1.46297e+06)
(144537 37953.1 1.44272e+06)
(40341.4 33223.7 1.66013e+06)
(131344 -7172.54 1.52422e+06)
(73009.6 -43190.5 1.46423e+06)
(64433.5 235.734 1.63127e+06)
(109410 -31579.9 1.52375e+06)
(65553.5 22801.1 1.7285e+06)
(173186 119484 1.46607e+06)
(100016 99750.4 1.47294e+06)
(138509 130455 1.45785e+06)
(223112 38109.4 1.46306e+06)
(195192 97447.3 1.49031e+06)
(107604 207028 1.38504e+06)
(201033 83416.7 1.41858e+06)
(171657 69134.5 1.50915e+06)
(2833.84 28530.9 1.70994e+06)
(25347.5 71870.7 1.56879e+06)
(-14240.4 72736.5 1.70895e+06)
(-10453.3 77571.9 1.6499e+06)
(6625.83 46028.4 1.67671e+06)
(19674.8 42013.5 1.73972e+06)
(-15255 53247 1.65741e+06)
(19820.1 71379.1 1.71704e+06)
(137787 -40597.8 1.60217e+06)
(185494 -55550.5 1.52319e+06)
(10891.9 4773.64 1.62325e+06)
(114959 -113559 1.54195e+06)
(136249 -54710.9 1.66647e+06)
(95642.5 23690.8 1.68735e+06)
(97955.1 -120274 1.60145e+06)
(21962.2 -46922.3 1.6138e+06)
(113853 58373.6 1.41827e+06)
(38939.3 60834 1.64729e+06)
(127357 -15.1917 1.5389e+06)
(186090 37509.2 1.59254e+06)
(140397 36567.6 1.50802e+06)
(71132.2 97198.8 1.61074e+06)
(153031 64090.8 1.51165e+06)
(78924.9 79227 1.70403e+06)
(114175 85237.8 1.50104e+06)
(153470 58339.2 1.53786e+06)
(76512.5 87253.9 1.57953e+06)
(47393.8 38269.3 1.7226e+06)
(124104 95073 1.49243e+06)
(138961 140717 1.46701e+06)
(77870.6 77409.2 1.53724e+06)
(85827 93833.6 1.62773e+06)
(14781.4 14471.7 1.67174e+06)
(126240 -34499 1.64825e+06)
(150926 -34252.3 1.5318e+06)
(583.909 7280.27 1.63065e+06)
(21404.7 45979 1.70001e+06)
(47160.4 32122.4 1.62943e+06)
(47761 26643.8 1.74792e+06)
(91127.8 38649.6 1.59735e+06)
(32976.3 28208.9 1.81008e+06)
(4336.95 56770 1.61757e+06)
(124352 604.334 1.60864e+06)
(66533.1 46590.5 1.53186e+06)
(40070.2 71298.8 1.65807e+06)
(50319.4 51304.1 1.79287e+06)
(88340.7 40845.3 1.57256e+06)
(108485 52016 1.57328e+06)
(1.00367e+06 1.24994e+06 538152)
(746881 650025 823802)
(1.02857e+06 720385 844477)
(1.21756e+06 1.28885e+06 755674)
(958936 905017 524549)
(1.00853e+06 765598 628971)
(1.09175e+06 1.01157e+06 653525)
(1.09957e+06 844381 830458)
(417316 227157 1.20918e+06)
(181591 -90700.7 1.48395e+06)
(390202 -49081.5 1.31643e+06)
(294960 125728 1.35984e+06)
(282893 127887 1.23398e+06)
(290313 -19857.4 1.27417e+06)
(392253 136112 1.2897e+06)
(314597 -26840 1.33215e+06)
(803834 62035.8 992642)
(671938 59652 1.35663e+06)
(611191 -242627 1.30462e+06)
(686156 -17039.7 1.33348e+06)
(733237 74873.2 1.13287e+06)
(670611 89571.1 1.2189e+06)
(679855 -70834.1 1.21652e+06)
(634932 -47234.9 1.22816e+06)
(996392 909672 1.1319e+06)
(556918 553879 1.28678e+06)
(746291 271319 1.27706e+06)
(685971 630732 1.32555e+06)
(771775 732858 1.13718e+06)
(771813 620407 1.19335e+06)
(678890 413157 1.34221e+06)
(706761 360512 1.22558e+06)
(541775 418926 962821)
(877690 469772 849638)
(886683 897485 833632)
(521648 466939 1.10377e+06)
(793391 489902 1.03466e+06)
(959348 591751 859824)
(704206 661959 1.10301e+06)
(860866 620427 923314)
(599821 258462 1.01992e+06)
(536663 311900 1.15234e+06)
(616602 113281 1.26132e+06)
(916483 402799 1.03867e+06)
(688021 327185 1.09249e+06)
(631567 238697 1.22213e+06)
(800198 316169 1.08181e+06)
(608838 157735 1.17485e+06)
(829852 301325 968065)
(948263 710731 1.05979e+06)
(726471 355526 1.37685e+06)
(723662 85673.8 1.19588e+06)
(963893 375897 1.06032e+06)
(947434 581658 1.09885e+06)
(833678 338518 1.15094e+06)
(936820 494548 1.27137e+06)
(841282 236542 1.07658e+06)
(660770 88605.8 1.25486e+06)
(670568 293798 1.25312e+06)
(677152 114884 1.32123e+06)
(821953 250203 1.21775e+06)
(825348 315735 1.32636e+06)
(754981 153574 1.37401e+06)
(725672 351440 1.2872e+06)
(-645465 247218 1.2204e+06)
(-473518 317599 1.27555e+06)
(-324651 161996 1.30035e+06)
(-579414 372487 1.06603e+06)
(-672208 258409 1.21282e+06)
(-536924 227980 1.21475e+06)
(-553841 222687 1.21925e+06)
(-493577 252889 1.19311e+06)
(-270611 423673 1.28286e+06)
(-9158.25 926504 1.61431e+06)
(56109.3 763764 1.56359e+06)
(-239729 1.06401e+06 1.48298e+06)
(-228427 601171 1.33503e+06)
(9603.33 635494 1.50966e+06)
(-203681 695560 1.48547e+06)
(69930 690602 1.58626e+06)
(-81190 66856.4 1.50437e+06)
(146098 497257 1.65069e+06)
(2339.42 37616.4 1.8536e+06)
(43545.8 325192 1.48862e+06)
(65628.3 130274 1.51763e+06)
(154550 120150 1.72947e+06)
(51581.3 192555 1.56197e+06)
(207594 100709 1.80712e+06)
(-565317 510963 1.12179e+06)
(-166966 1.03441e+06 1.26478e+06)
(-208674 663495 1.5109e+06)
(-635290 980995 1.41788e+06)
(-540902 733441 1.25821e+06)
(-206145 740805 1.43788e+06)
(-458760 673450 1.36744e+06)
(-122354 773868 1.49834e+06)
(-524409 341289 1.32721e+06)
(-255016 218919 1.32593e+06)
(-569326 448843 1.13051e+06)
(-352370 674249 1.30855e+06)
(-414472 409385 1.35016e+06)
(-510250 291431 1.30378e+06)
(-383484 564485 1.20253e+06)
(-397634 422855 1.21944e+06)
(-280065 394926 1.34848e+06)
(-99621.4 698282 1.45516e+06)
(126044 416441 1.64875e+06)
(-185562 221799 1.43833e+06)
(-233536 430108 1.38098e+06)
(-194355 559629 1.45186e+06)
(-165157 353257 1.45155e+06)
(-54273.4 401931 1.47332e+06)
(-202308 201859 1.30546e+06)
(-500128 393993 1.21183e+06)
(-348550 795669 1.35884e+06)
(-158289 480550 1.44623e+06)
(-243475 283502 1.3051e+06)
(-388109 440431 1.28563e+06)
(-147289 380881 1.46133e+06)
(-440912 568020 1.38777e+06)
(-115192 203657 1.39656e+06)
(108954 401900 1.68098e+06)
(-15972.7 724666 1.52456e+06)
(180428 435543 1.72917e+06)
(-131107 325104 1.47184e+06)
(36698 397951 1.61489e+06)
(-44378.9 559349 1.51721e+06)
(45382.1 789051 1.48357e+06)
(1.15014e+06 1.55218e+06 368447)
(1.08143e+06 1.224e+06 261762)
(935710 690376 721779)
(708971 637946 768830)
(1.11474e+06 1.38661e+06 425163)
(1.0639e+06 1.30407e+06 447657)
(969791 831537 645736)
(906198 872248 548837)
(837077 926623 256746)
(608280 735951 204923)
(672386 458839 609006)
(442188 458683 684637)
(795092 836633 349731)
(724744 782222 365736)
(630081 455524 664747)
(576176 489481 584512)
(727367 76969.1 904489)
(706186 157011 839094)
(696900 -181130 1.18447e+06)
(590183 52895.1 1.14367e+06)
(723541 220290 1.00593e+06)
(800609 14613.5 954213)
(642858 99193.7 1.0968e+06)
(631740 24771.8 1.09541e+06)
(435588 154427 1.07311e+06)
(259266 192674 1.03808e+06)
(410343 30787.5 1.22791e+06)
(173361 -68349.5 1.29748e+06)
(324448 201061 1.14509e+06)
(357123 225873 1.12044e+06)
(263308 -9837.2 1.24728e+06)
(246111 68332.6 1.2822e+06)
(979268 1.06613e+06 375561)
(913816 638157 725974)
(679939 598336 814338)
(492142 506575 787278)
(848024 628652 708854)
(956163 704036 744847)
(589734 498773 713651)
(632393 637635 900071)
(906682 993559 399515)
(481025 502933 873751)
(789083 430276 706148)
(934533 536598 760295)
(745402 653521 586414)
(737572 527214 751505)
(840425 530239 664283)
(764032 496052 697168)
(861444 365972 913217)
(569623 305436 987199)
(391214 212579 1.00553e+06)
(583846 8460.6 1.26559e+06)
(668420 258741 1.05823e+06)
(518387 330580 895802)
(615233 212248 1.08476e+06)
(512445 240255 1.12118e+06)
(765615 360660 809410)
(555901 78525.8 1.21097e+06)
(359072 301860 866881)
(620420 277416 764781)
(840450 316168 1.03908e+06)
(649953 220529 1.04209e+06)
(721219 271926 915265)
(478485 205950 1.00136e+06)
(976274 3.01122e+06 320775)
(731814 1.95415e+06 775692)
(620208 2.6519e+06 241119)
(818978 2.02897e+06 1.08281e+06)
(965480 2.4756e+06 945285)
(657806 2.14448e+06 595795)
(802107 2.74525e+06 753466)
(593213 2.354e+06 599169)
(757819 730573 1.24303e+06)
(903017 51938.9 1.6504e+06)
(778804 894792 1.11223e+06)
(896219 332215 1.65387e+06)
(954982 332056 1.72506e+06)
(869528 561969 1.37328e+06)
(817549 521017 1.49356e+06)
(881217 646834 1.38294e+06)
(521846 2.54422e+06 262530)
(610923 1.74794e+06 721841)
(358856 2.6837e+06 252197)
(672227 1.53898e+06 1.08782e+06)
(631784 1.8638e+06 955052)
(574470 1.87173e+06 598083)
(481084 2.18705e+06 769896)
(454537 2.23944e+06 612215)
(661529 959956 1.48558e+06)
(808780 278937 1.67402e+06)
(672464 818312 1.40416e+06)
(720446 281316 1.66028e+06)
(756628 425776 1.88473e+06)
(713458 668138 1.70305e+06)
(697093 549113 1.58498e+06)
(741732 716148 1.76371e+06)
(712359 995323 1.32394e+06)
(677634 1.83102e+06 876025)
(752581 1.1936e+06 1.22476e+06)
(926041 449579 1.76168e+06)
(665613 1.26468e+06 1.16546e+06)
(608055 1.57325e+06 1.11633e+06)
(749594 784305 1.39134e+06)
(734242 1.11279e+06 1.15854e+06)
(763875 1.09013e+06 1.04431e+06)
(832218 601447 1.56404e+06)
(830967 1.14661e+06 962425)
(589384 1.8325e+06 570406)
(673024 1.29148e+06 1.0468e+06)
(774313 738460 1.50823e+06)
(664530 1.63247e+06 763422)
(742758 970454 1.2885e+06)
(497412 2.19979e+06 715242)
(647790 1.36152e+06 1.34727e+06)
(815703 622546 1.50747e+06)
(636427 1.32081e+06 1.35906e+06)
(637745 1.6437e+06 1.00335e+06)
(654578 1.2501e+06 1.17681e+06)
(747105 1.27189e+06 1.30565e+06)
(779015 890003 1.42345e+06)
(481049 2.22511e+06 654140)
(701505 1.23433e+06 1.28316e+06)
(862644 654063 1.61979e+06)
(682453 1.39361e+06 964724)
(555098 1.61069e+06 1.08263e+06)
(800031 1.15102e+06 1.38778e+06)
(649191 1.29026e+06 1.26163e+06)
(798149 865347 1.35554e+06)
(929977 145627 1.74656e+06)
(936796 262783 1.6839e+06)
(862731 564745 1.42156e+06)
(868804 289488 1.46061e+06)
(953715 198304 1.81829e+06)
(881550 286940 1.57479e+06)
(865146 347799 1.54629e+06)
(833979 476994 1.35807e+06)
(842520 173824 1.77909e+06)
(612575 104661 1.68512e+06)
(622700 679431 1.49013e+06)
(639234 81089.4 1.58276e+06)
(783986 151353 1.84637e+06)
(683433 335655 1.71493e+06)
(652019 308733 1.45188e+06)
(593752 426573 1.51354e+06)
(770514 1.69405e+06 885686)
(691944 1.51378e+06 1.06993e+06)
(1.08746e+06 2.76708e+06 404919)
(880120 1.68651e+06 743549)
(785959 1.68096e+06 1.06063e+06)
(758240 1.82729e+06 1.0139e+06)
(825073 1.86016e+06 785206)
(951356 2.13297e+06 717703)
(661123 411521 1.22398e+06)
(607622 247642 1.34903e+06)
(709150 998154 997899)
(594731 495273 1.18319e+06)
(609588 278448 1.42001e+06)
(571469 464935 1.1894e+06)
(633085 621075 1.12768e+06)
(678030 788336 1.13892e+06)
(936119 231941 1.81114e+06)
(744877 607764 1.34056e+06)
(870938 169139 1.60879e+06)
(691924 132102 1.6208e+06)
(811517 382770 1.47738e+06)
(855054 389199 1.5169e+06)
(748354 232265 1.4949e+06)
(768618 342095 1.36759e+06)
(844592 372835 1.62553e+06)
(636890 335928 1.40548e+06)
(674951 820862 1.45328e+06)
(768461 711779 1.40309e+06)
(703903 459222 1.42947e+06)
(733982 451705 1.53966e+06)
(735951 673717 1.35153e+06)
(732862 711051 1.33308e+06)
(800408 1.15538e+06 1.09929e+06)
(761556 506770 1.2408e+06)
(632232 405471 1.27775e+06)
(692129 1.15623e+06 1.00034e+06)
(801435 933913 1.02251e+06)
(729249 723216 1.1684e+06)
(634290 857356 1.19065e+06)
(668414 555656 1.33832e+06)
(841139 1.37756e+06 1.00601e+06)
(849888 1.33329e+06 970949)
(625180 547424 1.28532e+06)
(660365 1.17259e+06 1.18978e+06)
(724050 1.28568e+06 1.15782e+06)
(662000 919054 1.20444e+06)
(692859 937511 1.15063e+06)
(690497 778944 1.15575e+06)
(3.82387e+06 -259499 655246)
(1.95718e+06 429122 1.68782e+06)
(2.66889e+06 -42853 1.22214e+06)
(2.22773e+06 253422 1.50545e+06)
(2.73916e+06 429195 1.49815e+06)
(2.70103e+06 13491.7 1.20241e+06)
(2.27855e+06 149910 1.31163e+06)
(2.39991e+06 -13529.9 1.25223e+06)
(863145 842128 1.66399e+06)
(286510 781077 1.51964e+06)
(997336 1.09485e+06 1.81577e+06)
(436191 990709 1.81099e+06)
(603654 787839 1.564e+06)
(445250 908061 1.60598e+06)
(654342 1.05278e+06 1.87361e+06)
(731267 1.1169e+06 1.94314e+06)
(1.7291e+06 418171 1.70882e+06)
(1.21986e+06 1.02562e+06 2.07686e+06)
(1.65957e+06 939461 2.15482e+06)
(1.22444e+06 880330 1.92468e+06)
(1.45234e+06 880007 2.16481e+06)
(1.51337e+06 761344 1.96526e+06)
(1.35838e+06 642336 1.98377e+06)
(1.3678e+06 621304 1.92049e+06)
(1.00958e+06 611314 1.84723e+06)
(476120 926214 2.16123e+06)
(896871 910514 2.04634e+06)
(505376 747229 2.13991e+06)
(793125 684969 1.86076e+06)
(610651 827499 1.97184e+06)
(642953 876630 2.22638e+06)
(701303 941402 2.3112e+06)
(1.36216e+06 410074 1.48596e+06)
(1.99144e+06 540400 1.75741e+06)
(1.60326e+06 533932 1.62901e+06)
(866942 677205 1.7441e+06)
(1.22737e+06 507472 1.48465e+06)
(1.87675e+06 476108 1.69098e+06)
(1.01358e+06 727957 1.65075e+06)
(1.25163e+06 552605 1.62934e+06)
(1.31538e+06 478434 1.39893e+06)
(700719 901254 1.68153e+06)
(1.18345e+06 946114 1.77862e+06)
(2.00869e+06 380300 1.66388e+06)
(1.30491e+06 781404 1.59035e+06)
(1.06697e+06 900497 1.85937e+06)
(1.6303e+06 758999 1.86049e+06)
(1.13003e+06 951411 1.7638e+06)
(1.56319e+06 450708 1.60785e+06)
(1.06619e+06 603697 1.61061e+06)
(745487 895679 1.92363e+06)
(1.03677e+06 823682 1.94361e+06)
(1.48372e+06 509765 1.83827e+06)
(1.17387e+06 716036 1.85171e+06)
(1.07829e+06 747286 1.94403e+06)
(998159 691976 2.0927e+06)
(1.59793e+06 454176 1.73474e+06)
(1.06527e+06 903265 2.12882e+06)
(609906 1.17341e+06 2.1838e+06)
(1.06959e+06 1.06708e+06 2.11617e+06)
(1.37797e+06 685924 2.13706e+06)
(984091 823414 2.05486e+06)
(1.11783e+06 1.0374e+06 2.02818e+06)
(680522 1.08872e+06 1.91181e+06)
(8.32255e+06 -7.77575e+06 -3.75658e+06)
(4.00317e+06 -2.75511e+06 -1.54145e+07)
(3.61869e+06 -5.20618e+06 -5.05779e+06)
(6.45715e+06 -4.76338e+06 -5.22835e+06)
(5.89696e+06 -4.75377e+06 -7.7804e+06)
(4.29255e+06 -4.63601e+06 -1.14918e+07)
(6.02975e+06 -6.43753e+06 -5.29113e+06)
(3.39427e+06 -4.95094e+06 -8.60869e+06)
(2.38327e+06 -1.47572e+06 -2.41185e+07)
(2.16237e+06 1.17607e+06 -3.60197e+07)
(2.36646e+06 -2.32721e+06 -1.29372e+07)
(3.60514e+06 1.38265e+06 -2.10028e+07)
(1.79891e+06 -1.16316e+06 -2.42461e+07)
(2.51343e+06 -707730 -2.88867e+07)
(2.39134e+06 -1.7567e+06 -2.27859e+07)
(2.45682e+06 -1.06782e+06 -2.60141e+07)