/*--------------------------------*- C++ -*----------------------------------*\
| =========                 |                                                 |
| \\      /  F ield         | OpenFOAM: The Open Source CFD Toolbox           |
|  \\    /   O peration     | Version:  2506                                  |
|   \\  /    A nd           | Website:  www.openfoam.com                      |
|    \\/     M anipulation  |                                                 |
\*---------------------------------------------------------------------------*/
FoamFile
{
    version     2.0;
    format      ascii;
    arch        "LSB;label=32;scalar=64";
    class       surfaceScalarField;
    location    "2000";
    object      phi;
}
// * * * * * * * * * * * * * * * * * * * * * * * * * * * * * * * * * * * * * //

dimensions      [0 3 -1 0 0 0 0];

oriented        oriented;

internalField   nonuniform List<scalar> 
87200
(
1.48012e-06
7.3771e-06
-4.43195e-06
-4.42555e-06
-4.33555e-06
1.80463e-06
7.26995e-06
-4.73908e-06
6.39896e-06
1.42061e-06
-3.51452e-06
-4.30513e-06
-3.807e-06
1.63789e-06
7.77564e-06
-5.60663e-06
-2.66054e-06
-3.14329e-06
7.28391e-06
-2.98586e-06
-4.01024e-06
-2.32209e-06
-4.62816e-06
1.09097e-06
1.90948e-06
-3.88844e-06
6.8758e-06
-4.89686e-06
-3.42502e-06
6.23854e-06
2.69691e-06
-5.51033e-06
5.53797e-06
-3.61301e-06
2.02676e-06
-3.95178e-06
-4.7511e-06
-4.60956e-06
7.57365e-06
1.78713e-06
-2.29967e-06
-1.93307e-06
6.14229e-06
-1.25004e-06
-4.47458e-06
-2.39791e-06
-4.28628e-06
1.89002e-06
1.50911e-06
6.37033e-06
-3.0059e-06
-4.87381e-06
-3.91143e-06
5.44746e-06
1.71513e-06
-3.25131e-06
5.4398e-06
1.68603e-06
-2.93946e-06
-4.18659e-06
-2.42997e-06
7.40572e-06
1.57296e-06
-6.54876e-06
-1.39497e-06
-3.59201e-06
6.49598e-06
-2.6123e-06
-2.69416e-06
-1.00539e-06
-5.01663e-06
1.82205e-06
2.78923e-06
-5.12206e-06
1.23983e-05
-1.00655e-05
-1.04697e-05
-5.08812e-06
1.23346e-05
3.22317e-06
1.26865e-05
-3.38126e-06
1.6002e-06
-1.09055e-05
-4.40227e-06
1.18614e-05
2.11592e-06
-9.57536e-06
-2.23379e-06
-7.93572e-06
1.29587e-05
-8.45788e-06
-4.24569e-06
-2.03385e-06
-1.03041e-05
2.19473e-06
-2.43543e-06
-2.66725e-06
6.90721e-06
7.04404e-06
-1.90988e-06
-3.71362e-06
-2.5286e-06
-5.01086e-06
9.17729e-06
-2.03448e-06
-2.48126e-06
-3.89772e-06
8.41337e-06
-4.55573e-06
4.14067e-06
-2.02044e-06
3.57926e-06
-6.34198e-06
8.44811e-06
-5.29132e-06
-2.30873e-06
-4.24707e-06
-4.40453e-06
-2.6863e-06
1.93943e-06
-2.19191e-06
-3.36056e-06
4.29382e-06
-3.01158e-06
-3.19228e-06
2.11616e-06
-6.44545e-06
-6.57469e-06
1.82351e-06
-3.97524e-06
-2.81177e-06
3.50187e-06
-1.80882e-06
-5.40681e-06
-2.45786e-06
-7.67512e-06
-6.53074e-06
-2.45512e-06
5.99929e-06
-1.34685e-06
-8.03367e-06
8.98543e-06
1.73262e-06
-7.21622e-06
1.23623e-06
9.54021e-06
-1.80834e-06
1.54988e-06
4.17714e-06
1.88171e-06
-7.22944e-06
2.08793e-06
1.55812e-06
1.69734e-06
3.3993e-06
4.64649e-06
5.76806e-06
3.39283e-06
1.93142e-06
-1.39683e-05
-6.89293e-06
1.09798e-05
9.88153e-06
9.71048e-06
-1.42978e-05
-7.04343e-06
1.16308e-05
-8.51445e-06
-1.51566e-05
1.26642e-05
1.1007e-05
1.06271e-05
-1.22531e-05
-7.10556e-06
8.73151e-06
-1.74765e-06
-3.08909e-06
-9.13156e-06
-4.06664e-06
1.20295e-05
-1.43776e-06
8.97582e-06
-1.40188e-05
-9.22841e-06
8.55793e-06
-5.58886e-06
6.25931e-06
6.93691e-06
-3.78051e-06
3.08216e-06
-4.94415e-06
7.93513e-06
3.88484e-06
7.51508e-06
8.11496e-06
-8.0564e-06
-2.52431e-06
-1.14568e-06
-5.55839e-06
7.57002e-07
3.65553e-06
-1.95514e-06
8.32456e-06
-9.51427e-06
-6.93498e-06
6.85942e-06
9.58981e-06
7.7996e-06
-5.33524e-06
4.80551e-06
-5.65632e-06
5.56555e-06
7.46772e-06
7.38326e-06
-7.24054e-06
7.63287e-06
-2.42257e-06
-5.15587e-07
-6.5762e-06
1.09197e-07
5.26773e-06
-1.73679e-06
8.60437e-06
-1.34477e-05
1.07233e-05
-4.84865e-06
7.57303e-06
1.04144e-05
1.08102e-05
-8.89008e-06
-9.24568e-06
1.274e-05
8.90404e-06
1.03312e-05
-5.47339e-06
7.00356e-06
-1.27782e-06
-3.2631e-06
-8.90682e-06
-2.92931e-06
1.20659e-05
-7.83718e-07
7.8518e-06
-4.17902e-06
-1.18459e-06
-8.9342e-06
-9.4913e-06
-1.14087e-06
-4.52437e-06
-1.02563e-06
-3.97305e-06
-7.25442e-06
1.43515e-05
-1.34283e-06
-3.1295e-06
-9.87916e-06
1.03366e-05
-1.38826e-05
-6.32968e-07
-1.31735e-05
1.06374e-05
-1.01683e-05
-3.56174e-06
-1.33152e-06
8.70488e-06
7.54856e-06
-7.76432e-07
2.63769e-06
5.82999e-07
4.71446e-06
-9.51928e-06
1.84941e-07
8.19339e-06
-9.73856e-06
7.77408e-06
6.13455e-06
-8.50362e-06
6.7584e-06
2.68618e-07
-1.309e-05
-2.08487e-06
1.06505e-05
-1.68495e-06
8.43524e-06
9.81857e-06
-2.13782e-06
3.35575e-06
-9.69649e-07
1.03538e-05
-8.19606e-06
-1.37243e-05
8.83043e-06
-1.34427e-05
-8.44174e-06
-1.9268e-06
-8.83492e-06
9.67112e-07
5.49911e-06
2.15497e-06
-6.83592e-06
-8.57518e-06
-7.79562e-06
-6.1516e-06
4.74672e-06
-2.04383e-06
-1.01698e-06
-2.74438e-07
1.06758e-05
-8.82837e-06
-2.56659e-06
5.32568e-06
-1.04399e-06
-2.39477e-06
6.13986e-06
-3.34943e-06
-3.95807e-07
3.62452e-06
5.3327e-06
-4.2106e-06
5.1721e-06
3.5151e-06
-5.77248e-07
6.12056e-06
1.44161e-05
-3.28115e-07
-1.24878e-05
-5.36802e-07
5.84401e-06
-3.19135e-06
-8.69269e-06
-1.42656e-06
1.33424e-05
-4.05135e-06
-3.57423e-07
1.13436e-05
-6.9349e-06
9.78095e-06
1.45013e-05
-9.86626e-06
1.14388e-05
1.08014e-05
-3.5152e-07
1.35476e-05
5.67297e-06
-2.21621e-06
-1.43001e-06
-1.42044e-06
-6.58407e-06
9.79161e-06
3.023e-07
4.85037e-06
-2.45567e-06
-2.9909e-06
-1.36202e-06
6.02698e-06
-1.67393e-06
3.09761e-06
4.17116e-06
-1.59581e-06
3.56721e-06
2.97692e-06
-1.79657e-06
6.84644e-06
7.9149e-06
-3.45104e-06
-3.82508e-06
-6.38998e-07
-1.71829e-06
-3.68185e-06
1.46001e-05
-9.20008e-06
-2.61049e-06
-4.13766e-06
7.92364e-06
-1.17537e-06
-3.79708e-06
9.11014e-06
-4.16997e-06
-1.14327e-06
5.59392e-06
7.95375e-06
-5.63289e-06
7.76011e-06
-3.88456e-06
5.19101e-06
-1.03437e-06
1.03406e-05
1.3419e-05
1.07812e-05
-1.35245e-05
-3.33565e-06
3.68613e-06
4.97509e-06
4.40328e-06
7.0345e-06
-5.29804e-06
-1.31015e-05
1.09063e-05
1.25325e-05
-1.03374e-05
3.32731e-07
2.26066e-06
1.08256e-05
3.11758e-06
-3.97001e-07
-1.04439e-05
7.1238e-06
1.23348e-05
-2.97556e-06
1.35243e-05
-9.38062e-06
1.00419e-05
8.92245e-07
4.49124e-06
1.42626e-05
8.89773e-06
1.09355e-05
1.17214e-05
1.32763e-05
2.72745e-06
3.23033e-06
-9.82681e-07
4.16983e-06
-5.86428e-07
-7.96888e-07
9.64743e-06
-6.27264e-06
3.3403e-06
-1.20527e-06
-3.58831e-06
6.97321e-06
-6.57479e-07
7.70526e-06
-3.02382e-06
3.72434e-06
5.50531e-06
-6.86259e-06
8.84088e-06
9.20562e-06
1.39661e-05
-9.58884e-06
1.30467e-05
3.40992e-06
4.99526e-07
2.71649e-07
4.18691e-06
1.36642e-05
-1.18661e-05
1.04844e-06
3.92479e-06
4.43954e-07
-1.11842e-05
3.69682e-06
4.75573e-06
-1.305e-05
1.18894e-06
7.73257e-06
-1.20312e-05
9.45983e-07
3.35255e-06
-5.22238e-06
-1.13232e-05
4.67949e-06
-1.391e-05
-4.47454e-06
8.84001e-07
-1.36288e-05
-8.24481e-06
-5.803e-07
3.23625e-06
6.31051e-07
4.38863e-07
4.88949e-06
-3.15426e-06
3.71532e-06
1.1764e-06
1.13532e-06
-3.72818e-06
-7.11451e-06
2.59789e-06
-8.6555e-06
-3.08043e-06
-3.18716e-07
-8.12418e-06
4.35588e-06
-1.08035e-06
-2.6091e-06
7.0614e-06
4.00627e-06
-3.63563e-06
6.08707e-06
6.63141e-06
-1.37484e-06
-3.49721e-06
-1.05804e-05
5.95346e-06
-1.50131e-05
-2.54072e-06
-1.95258e-06
-1.14792e-05
7.36615e-06
7.15414e-07
3.39764e-06
4.16225e-07
5.44075e-06
2.06677e-06
5.40539e-06
1.06686e-05
-1.4738e-06
6.78477e-06
-1.53387e-07
2.47864e-06
-4.68189e-06
-1.08244e-05
4.02705e-06
-1.20832e-05
7.81753e-06
-3.66285e-06
-3.76729e-07
-1.10551e-05
-4.94011e-06
4.81093e-06
4.66327e-06
-3.74e-06
-1.39733e-05
-4.57816e-06
-1.09111e-05
3.45815e-06
1.06186e-05
-5.13632e-06
-9.70324e-06
4.22117e-06
-3.7824e-07
-6.78347e-06
-3.89332e-06
-9.34377e-06
4.63886e-07
3.37121e-06
-1.3458e-05
-1.44546e-05
7.19545e-06
-1.11553e-05
3.29656e-06
-1.63299e-05
1.94158e-06
-1.2936e-05
-1.23257e-05
-6.02215e-06
-5.44899e-06
-1.42489e-05
-1.64013e-05
-9.21409e-06
-4.36437e-06
-3.94912e-07
-4.19066e-06
6.45764e-07
-3.07409e-08
-4.2317e-06
1.53782e-05
-4.2341e-06
-4.75477e-07
5.21228e-06
-1.4596e-05
1.69674e-07
-1.24364e-05
4.64959e-06
-3.86736e-06
-1.29445e-05
1.63635e-05
-6.54615e-06
3.77819e-06
-9.6229e-06
2.63188e-06
2.8732e-06
-9.99121e-06
6.92176e-06
1.8824e-05
-1.60248e-05
-9.72094e-06
-1.29079e-05
1.77939e-06
1.62826e-05
-5.15419e-06
-9.71804e-06
2.06092e-06
1.17954e-05
-4.13842e-06
1.27032e-05
-1.10609e-05
8.46688e-07
-2.48926e-06
2.38873e-05
-8.42308e-06
-8.54241e-06
-7.05882e-06
1.80382e-05
1.22504e-05
-7.9703e-06
-4.52648e-06
-4.17648e-06
-3.60024e-06
8.05362e-06
-2.77353e-07
-7.54591e-07
-2.73214e-06
4.55786e-06
-1.07102e-06
1.22203e-06
1.12008e-06
-4.355e-06
2.01287e-06
6.05376e-06
7.48931e-06
-1.7581e-05
4.03786e-06
1.74829e-06
-6.89691e-06
9.71925e-07
-2.24867e-06
3.2423e-06
-5.17604e-06
4.33293e-06
-6.20278e-06
2.70007e-06
-4.71564e-06
5.76665e-06
-3.75123e-06
4.96642e-07
-2.43574e-06
-1.53346e-06
3.47257e-06
-2.92413e-06
-1.79528e-06
2.79932e-06
1.91977e-06
7.78418e-07
7.64814e-07
-3.86572e-06
2.32206e-06
4.14378e-06
1.96478e-06
-3.40857e-06
1.41666e-06
3.22375e-06
5.00625e-06
-2.26318e-06
3.49873e-06
-2.59951e-05
7.53638e-06
1.57126e-05
2.74586e-06
1.9459e-05
9.45892e-06
-3.49121e-05
5.99421e-06
5.35036e-06
2.41803e-06
-1.11265e-05
3.35815e-06
9.93517e-06
-5.99461e-05
3.97238e-05
1.02872e-05
-2.09145e-05
-1.00245e-05
4.94392e-06
-8.71284e-06
7.25726e-06
-1.9828e-05
1.97387e-05
-2.31904e-05
-5.09188e-06
7.46862e-06
-5.97582e-07
-5.283e-06
7.96705e-06
-6.23115e-07
-3.3211e-06
-8.15691e-06
4.17008e-07
1.23112e-05
-7.32239e-06
-8.71946e-06
3.73056e-06
7.2913e-07
-5.97753e-06
1.56382e-07
-9.08031e-06
4.43056e-06
1.90306e-06
-7.97089e-06
-4.37274e-06
8.24109e-06
3.49674e-06
-3.3298e-06
-8.42889e-07
-2.13632e-07
2.17693e-06
2.3723e-06
-7.98698e-07
6.39349e-06
-6.84607e-06
2.62977e-06
9.83619e-07
-1.56553e-06
6.5677e-06
-1.42476e-06
-2.34118e-06
2.75501e-07
1.44261e-06
-1.25581e-05
1.19375e-05
1.32407e-05
-1.25012e-05
3.11592e-06
-4.43114e-06
3.73334e-06
-5.05563e-07
-8.09984e-06
6.26429e-06
-2.10345e-05
5.36557e-07
-5.52038e-06
-5.23879e-06
3.39576e-06
-7.06197e-06
-1.80485e-06
-1.40261e-05
1.73587e-06
-4.385e-06
-4.36804e-06
-4.27924e-06
-6.49267e-06
-3.96815e-06
-1.22657e-05
-2.76354e-06
3.6278e-06
-2.65962e-06
-2.32665e-06
-2.19059e-06
2.98389e-06
2.50748e-06
-2.20898e-06
2.41181e-06
-2.71047e-06
2.72242e-07
-8.70057e-07
-3.2678e-06
6.37399e-07
9.78939e-08
-5.42332e-06
3.73411e-06
-8.6543e-07
1.23565e-06
-3.78129e-06
-2.66357e-06
-2.5689e-06
8.77522e-07
-3.87857e-06
1.9322e-06
-7.85553e-07
4.19861e-06
-2.89869e-06
-8.61382e-08
-1.21317e-06
1.19151e-06
-1.29317e-05
-5.84077e-06
-1.40153e-06
-7.46469e-06
-6.83711e-06
1.55717e-06
-1.22453e-06
-5.04865e-06
-3.86302e-06
-1.68162e-06
5.28938e-06
4.25207e-07
-4.03274e-06
-3.62148e-06
5.0102e-06
-4.85532e-07
-9.03029e-07
6.93676e-06
-1.02619e-06
-4.39603e-06
-1.51443e-06
-1.46793e-06
1.72548e-05
-9.47386e-06
-6.31301e-06
-2.74583e-06
-5.91668e-06
6.98099e-06
-5.50758e-06
-8.59677e-07
-2.58345e-06
-4.8011e-06
-1.15427e-06
-3.82354e-06
3.27539e-07
-7.63054e-06
-2.17235e-05
9.54368e-08
-1.3284e-05
2.67384e-05
-1.67292e-06
-1.53799e-05
-9.68547e-06
-3.66045e-06
-3.24472e-05
-2.38385e-05
-1.04414e-05
-1.65725e-05
-3.13759e-05
-7.88956e-07
-8.55942e-06
-1.16736e-05
-1.31969e-05
-5.64299e-06
-9.32646e-07
4.50256e-06
-1.31945e-06
-5.39199e-06
-8.2837e-07
-7.1036e-06
5.04731e-06
-4.7863e-06
-1.4287e-05
-3.11136e-06
-1.06412e-06
-1.46751e-06
-2.39005e-06
-8.28245e-06
-1.15008e-05
-4.50886e-06
1.00736e-06
3.74549e-07
-1.80925e-05
2.50502e-06
-5.59363e-06
1.89972e-07
3.0932e-06
-5.63916e-06
1.22658e-06
-2.20241e-06
-3.774e-06
-6.87649e-06
-1.88484e-06
1.204e-06
-6.25627e-06
-1.70109e-06
-1.22648e-06
-2.4643e-06
-1.19849e-06
-5.57736e-06
-9.13358e-06
-5.0579e-06
1.18006e-05
-5.92728e-06
-7.54616e-06
8.51994e-06
-3.55179e-06
-6.6691e-06
-4.17935e-06
1.41019e-05
-5.85302e-06
-1.57627e-06
1.81847e-05
-6.85716e-06
-1.81238e-05
-5.02663e-06
1.87556e-06
-2.45897e-06
5.55927e-07
4.84886e-06
1.28876e-05
4.68161e-07
-4.76809e-06
-8.6146e-08
-1.52955e-06
-1.32384e-06
-1.45256e-06
-1.27736e-07
-1.42569e-06
2.62115e-06
-2.75989e-07
-8.85263e-07
-1.46001e-06
-1.12486e-06
-5.96062e-07
-1.53041e-06
-9.43224e-07
-1.83718e-06
-1.45405e-06
-9.41807e-07
-1.40741e-06
-1.55467e-06
-2.40328e-07
-4.0817e-07
-1.97529e-06
-1.13107e-06
-2.81524e-06
-9.32533e-07
-6.84228e-07
3.76871e-06
-2.28043e-06
-8.98976e-07
-5.89331e-07
-4.41173e-07
-2.94383e-06
-1.35407e-06
-1.35316e-06
-3.06525e-06
-3.27581e-06
-8.92595e-07
-1.1903e-06
-2.31611e-06
-6.97411e-07
-5.32177e-07
3.14332e-06
-9.6149e-07
-1.64987e-06
-1.84098e-06
3.17034e-06
-8.41949e-07
-4.87476e-07
3.02043e-06
-9.48161e-07
-4.91286e-07
-1.58103e-06
-8.14736e-07
3.45902e-06
-7.96457e-07
-1.84792e-06
-1.28157e-06
-2.22643e-06
2.97568e-06
-2.26803e-06
-8.54578e-07
-1.31399e-06
-1.72722e-06
-5.61605e-07
-1.33153e-06
-7.06775e-07
-1.91345e-06
-3.03482e-06
-1.08438e-07
-1.75355e-06
4.18142e-06
-5.90349e-07
-1.36217e-06
-2.22883e-06
-2.54882e-08
-2.5942e-06
-2.89057e-06
-1.62639e-06
-4.17949e-06
-4.23636e-06
-4.24732e-07
-1.71542e-06
-2.4895e-06
-1.77035e-06
-2.28717e-06
-1.03288e-06
3.08919e-06
-1.57921e-06
-1.78618e-06
-1.44719e-06
-2.50939e-06
9.3124e-07
-1.37054e-06
-3.8079e-06
-1.78236e-06
9.17482e-07
-1.42233e-06
1.06652e-06
-2.1265e-06
-2.50713e-06
-1.99205e-06
-1.01611e-06
-7.08327e-07
-3.60603e-06
1.24253e-06
-2.71039e-06
-8.1261e-07
1.83361e-06
-2.26905e-06
-1.14393e-06
-2.6968e-07
-3.14469e-06
-3.2941e-06
-2.43699e-07
-1.0674e-06
-2.29527e-06
9.18578e-07
-1.23762e-06
-1.46725e-06
-1.42577e-06
-1.79035e-06
-2.50196e-06
-1.41438e-06
2.86477e-06
-1.4326e-06
-2.02262e-06
3.19503e-06
-5.96916e-07
-1.67952e-06
-7.37883e-07
3.66458e-06
-1.39676e-06
-3.63359e-07
2.9484e-06
-9.22031e-07
-3.84822e-06
-1.17213e-06
1.08675e-06
-6.26807e-07
7.1365e-07
1.89866e-06
2.26529e-06
6.90136e-07
-8.92777e-07
-8.47449e-06
3.23327e-06
2.41074e-06
2.83047e-06
2.29609e-06
-7.19467e-06
3.04091e-06
1.85759e-06
2.56655e-06
-9.44922e-06
2.73563e-06
4.14704e-06
2.98665e-06
-6.90439e-06
1.64524e-06
2.27233e-06
-4.93249e-06
-5.58002e-06
2.03798e-06
-5.60418e-06
2.96777e-06
-5.62847e-06
3.03511e-06
-8.66612e-06
-6.23016e-06
1.94467e-06
2.83273e-06
1.45265e-06
1.86812e-06
2.36943e-06
1.32797e-06
1.45757e-06
2.68128e-06
2.72051e-06
2.79924e-06
1.25723e-06
7.49004e-07
-3.10817e-06
-4.18847e-06
1.06629e-06
-3.88958e-06
2.64949e-06
-2.83572e-06
1.44631e-06
-1.28196e-05
4.77192e-06
1.37736e-06
6.67034e-06
6.69804e-06
4.41123e-06
1.55493e-06
4.52558e-06
1.70306e-06
4.75122e-06
1.19028e-06
4.33025e-06
6.1103e-06
-1.12323e-05
-5.82739e-06
4.24002e-06
-5.95075e-06
1.41647e-06
-1.06043e-05
5.96724e-06
-4.66627e-06
2.73735e-06
5.64797e-07
1.36396e-06
9.26095e-07
2.93071e-06
2.80169e-08
1.03565e-06
1.786e-06
3.43759e-06
2.87525e-06
-6.09752e-07
8.16652e-07
-1.08396e-06
-3.22647e-06
-3.56067e-07
-3.12945e-06
2.97153e-06
-1.56173e-06
1.21032e-06
-4.72443e-06
-4.24039e-06
1.77015e-06
3.19018e-06
-7.11747e-06
-5.52194e-06
-3.33389e-06
-4.56176e-06
9.91217e-07
5.56305e-06
-2.33746e-06
-3.95838e-06
7.32896e-07
2.59377e-06
-3.12154e-06
-4.19667e-06
-2.88218e-06
1.67504e-06
7.66424e-07
-4.54103e-06
-5.15157e-06
2.85586e-06
2.85637e-06
-3.9366e-06
5.79001e-06
-5.54275e-06
2.43394e-06
-3.45092e-06
-6.13466e-06
2.46809e-06
-6.44949e-06
-2.8988e-06
-2.14683e-06
-9.08708e-06
2.73734e-06
-5.44392e-06
-1.71256e-06
-9.12537e-06
5.316e-06
-4.03979e-06
2.21533e-06
1.09071e-06
-2.11834e-06
5.13612e-06
-7.9191e-06
4.56902e-06
2.97332e-06
-9.49448e-06
4.80861e-06
-5.60751e-06
1.54527e-06
-5.90365e-06
-1.04882e-05
5.11603e-06
-1.34049e-06
7.06181e-06
-2.16635e-06
-4.08181e-06
-2.95398e-06
-2.46393e-06
3.62464e-06
-2.0304e-06
-2.5424e-06
-2.58061e-06
3.62457e-06
-1.88602e-06
-2.05788e-06
3.80285e-06
-2.70666e-06
1.21961e-06
4.27376e-06
-1.987e-06
-3.50641e-06
4.46367e-06
9.60431e-07
-1.79961e-06
1.02847e-06
4.91157e-06
-2.73172e-06
3.88207e-06
4.01942e-06
-2.84631e-06
-2.07223e-06
-3.20493e-06
-2.15331e-06
-2.34013e-06
-3.09606e-06
1.52852e-06
-4.22959e-06
-2.90568e-06
5.09411e-06
1.03008e-06
-2.10502e-06
9.96601e-07
5.97168e-06
-3.41299e-06
3.96205e-06
-2.30572e-06
-2.54177e-06
-3.40014e-06
-2.89947e-06
-2.71463e-06
-3.00154e-06
2.34744e-06
-4.33406e-06
-4.56215e-06
5.35372e-06
9.679e-07
-2.35973e-06
1.01177e-06
6.71949e-06
-3.40417e-06
8.31637e-06
2.99469e-06
-4.34382e-06
-6.96726e-06
-7.59854e-06
3.36191e-06
-5.829e-06
-6.23389e-06
4.13818e-06
-8.8098e-06
4.50382e-06
-6.30181e-06
-7.77741e-06
1.24742e-05
1.73686e-06
-5.89473e-06
1.70677e-06
3.16894e-06
1.48312e-05
-8.59045e-06
9.38131e-07
4.54798e-06
-1.86167e-06
-2.16001e-06
5.04498e-06
9.17657e-07
6.09103e-06
8.9547e-07
-2.7128e-06
-4.95521e-06
7.0086e-06
1.14769e-06
-3.20149e-06
-3.14682e-06
-1.32869e-06
5.41347e-06
-1.42476e-06
-3.67367e-06
-2.61025e-06
9.92586e-07
8.89047e-07
1.41325e-06
1.36571e-06
-5.10986e-06
9.97486e-07
2.84133e-06
1.05966e-06
4.15756e-06
2.14482e-06
2.15776e-06
3.91868e-06
9.66559e-07
-1.7892e-06
5.68449e-06
-2.97782e-06
8.68693e-06
-4.7969e-06
-5.9781e-06
1.04875e-05
-1.18378e-06
1.13299e-05
-6.00798e-06
-3.18917e-06
5.84246e-06
-4.44253e-06
6.49031e-06
-3.68116e-06
8.33986e-06
4.43833e-06
-1.0378e-06
4.1781e-06
-7.30904e-06
-1.89495e-06
3.9735e-06
5.4071e-06
-2.36899e-06
-1.13604e-05
7.45097e-06
7.14263e-06
6.78304e-06
-1.05882e-05
6.54079e-06
6.59179e-06
-1.1026e-05
7.47518e-06
-2.2576e-06
-9.81962e-06
6.21729e-06
5.85994e-06
-1.38197e-05
-4.08873e-06
6.54798e-06
-4.06892e-06
-1.37007e-05
7.35416e-06
-1.11778e-05
-9.62388e-06
5.67869e-06
5.32261e-06
5.48616e-06
6.09845e-06
6.13202e-06
6.43004e-06
-1.29319e-06
4.57467e-06
5.45012e-06
-1.12808e-05
-4.1118e-06
5.76875e-06
-4.37814e-06
-1.07297e-05
5.32476e-06
-8.87516e-06
5.8642e-06
5.84372e-06
6.25129e-06
6.05905e-06
4.88019e-06
4.9569e-06
-1.98004e-06
5.16675e-06
4.44628e-06
-1.19754e-05
-3.05405e-06
6.15433e-06
-3.07466e-06
-1.04099e-05
5.3757e-06
-7.83425e-06
-1.38724e-06
4.61893e-06
4.60255e-06
3.83423e-06
-7.61324e-07
4.50007e-06
4.92561e-06
-1.59547e-06
5.57396e-06
-7.9101e-07
3.9238e-06
3.87086e-06
-8.62438e-06
-3.5908e-06
4.3809e-06
-3.69378e-06
-1.09637e-06
-9.08363e-06
4.70177e-06
-4.09235e-06
-1.23544e-05
5.85855e-06
6.65648e-06
-1.39787e-05
-3.70375e-06
-1.14011e-05
-3.88741e-06
5.46891e-06
8.90443e-06
-9.94611e-06
-3.99819e-06
5.0399e-06
6.63718e-06
1.59973e-06
-1.23292e-05
2.11588e-06
5.38198e-06
5.12221e-06
-3.90325e-06
-4.20758e-06
-1.34465e-06
-4.02677e-06
1.29682e-05
-4.10409e-06
-7.32019e-06
-3.80254e-06
-9.99997e-06
-6.53678e-06
-6.01983e-06
-1.11195e-05
-4.17119e-06
2.39625e-06
-1.2662e-05
6.56203e-06
-1.11727e-05
5.8979e-06
4.8599e-06
-9.61938e-06
3.89566e-06
-1.15952e-05
6.10406e-06
5.72707e-06
-9.84358e-06
6.51281e-06
-9.34884e-06
5.58531e-06
-1.15332e-05
-1.06003e-05
3.92542e-06
-5.21091e-06
1.26055e-05
2.2954e-06
-6.7414e-06
-5.31243e-06
1.69291e-06
4.88003e-06
-3.97542e-06
-1.93073e-06
-2.8542e-06
3.43991e-06
-1.07119e-06
-8.69618e-07
3.0557e-06
-1.761e-06
-8.91686e-07
1.5049e-06
-6.87805e-07
7.45299e-08
5.22799e-06
1.47922e-06
-1.82711e-06
1.51412e-06
4.1442e-06
-3.55672e-06
4.78868e-06
9.07753e-07
-7.86141e-07
-2.07672e-07
3.2489e-07
3.16763e-07
1.29054e-06
8.13443e-07
-2.91386e-07
3.55275e-07
-3.1503e-06
7.28278e-07
1.53891e-06
8.83219e-07
-1.94324e-06
7.73868e-07
2.07741e-06
-6.11589e-08
-2.84694e-07
-2.09165e-06
4.67554e-07
2.63036e-07
1.47706e-06
6.71709e-07
2.92643e-06
6.81209e-07
-6.23714e-07
2.4634e-06
-8.64028e-06
9.80464e-06
-7.81165e-06
7.58927e-06
-1.39889e-05
1.42113e-05
-3.77645e-06
2.61435e-06
1.42522e-06
2.8841e-06
-1.05979e-05
5.40064e-06
-5.25045e-06
-9.72433e-06
-3.21868e-06
7.82947e-06
5.11361e-06
1.15989e-05
-7.48112e-06
-1.22917e-05
8.17391e-06
8.53022e-06
-8.45415e-06
-1.35115e-05
1.34355e-05
-8.69381e-06
-1.0611e-05
1.11714e-05
8.13337e-06
-1.57493e-05
-6.09854e-07
6.63494e-06
2.79388e-07
-4.42977e-06
-2.18072e-05
1.25037e-05
-1.29976e-05
1.88103e-06
2.65271e-06
-1.09392e-06
-4.86194e-07
1.91091e-06
1.63085e-06
6.87531e-07
1.20016e-06
-3.82796e-07
-2.80671e-06
-1.4554e-06
2.161e-06
2.10117e-06
-2.70156e-06
1.40024e-06
3.18219e-06
1.60091e-06
-1.19408e-06
-2.12494e-07
1.09435e-06
2.05652e-06
-2.78672e-06
2.05959e-06
-1.21568e-07
8.37395e-07
5.31609e-07
2.60582e-06
4.87296e-06
3.65691e-07
-5.43333e-09
2.10126e-06
1.97428e-06
2.78352e-06
8.12064e-07
-1.96477e-06
-5.1522e-06
3.13361e-06
4.07652e-06
-9.39659e-06
-5.83272e-07
-1.99517e-05
1.20809e-05
2.50994e-06
-2.83821e-06
3.11179e-06
-1.5479e-06
1.90115e-06
-5.32254e-06
4.89496e-06
-2.11976e-06
-1.02426e-05
-4.07469e-06
-3.26233e-06
-1.28951e-06
2.80815e-06
3.02175e-06
3.29846e-06
-4.42054e-06
3.98324e-06
-4.51197e-06
-3.38354e-06
-2.45746e-06
2.63727e-06
2.11519e-07
6.64894e-06
-2.04891e-07
-6.77488e-07
-6.32099e-06
-1.75132e-06
-5.91656e-06
-4.23594e-06
-4.39809e-06
1.62502e-06
-7.94889e-06
-2.77021e-06
3.25087e-07
1.29488e-06
1.07342e-06
1.90243e-06
2.97207e-06
-2.61211e-10
2.6838e-06
5.36997e-06
-2.8039e-06
1.52418e-06
2.81853e-06
-1.24862e-06
3.01087e-06
3.89599e-06
-3.95899e-07
6.02881e-07
3.4998e-06
5.5811e-06
3.91341e-06
2.30071e-06
1.69443e-06
3.93112e-06
1.06571e-05
7.09305e-06
6.52205e-07
1.10788e-05
-1.46061e-05
1.14636e-05
-2.6126e-06
5.75503e-06
-7.80256e-06
6.06425e-06
7.31928e-06
1.19301e-05
-7.70054e-06
-8.41314e-07
1.13226e-05
-8.24026e-07
-6.7764e-06
-5.91109e-06
-6.5842e-06
-6.82607e-06
1.11856e-06
1.40003e-05
-1.20395e-05
-4.28982e-06
2.32896e-06
-5.84258e-06
-4.3397e-06
-4.28896e-07
-7.09549e-06
-6.72619e-06
-5.13725e-06
-8.54245e-06
-7.50032e-06
-5.06847e-06
1.36269e-06
4.63163e-06
-1.61192e-06
8.90613e-07
-2.46226e-06
1.36651e-06
-5.09794e-06
-6.89607e-06
3.81949e-07
-2.96127e-06
-6.83033e-07
3.4644e-06
3.1872e-06
-2.01994e-06
4.68015e-06
-9.42785e-07
-1.36051e-06
1.6384e-06
-3.7853e-06
2.34822e-06
2.96909e-06
7.95581e-06
-2.6096e-06
6.54077e-06
1.11873e-06
-1.50016e-06
-2.06372e-06
2.45791e-06
3.36326e-06
9.0083e-06
-6.70788e-06
-9.34066e-07
-7.74918e-06
-5.9233e-06
-2.68623e-06
-4.82286e-06
9.88687e-07
-8.70154e-06
-4.32664e-06
1.01104e-05
1.97416e-06
-3.07627e-06
1.00071e-06
1.0228e-05
-7.26513e-06
3.74627e-06
-2.25806e-06
5.02011e-06
-4.52852e-06
2.05387e-06
4.07522e-06
7.81171e-06
1.04043e-05
6.61235e-07
8.81124e-07
8.09972e-06
4.45233e-06
-7.49121e-06
1.22771e-05
-3.78536e-06
-1.00054e-06
-3.8141e-06
-6.94706e-06
1.68107e-05
-6.04958e-06
1.68431e-05
-1.08716e-05
-4.16064e-06
-1.811e-06
-7.33276e-06
-8.79949e-06
1.91699e-05
-3.03769e-06
-1.3934e-05
-1.37485e-05
2.01913e-05
-1.29309e-05
-4.81719e-06
-1.99082e-05
-1.17313e-06
-1.5996e-05
1.12528e-07
-3.11924e-06
6.57916e-06
-3.57241e-06
3.60704e-06
-9.22064e-06
2.81253e-06
2.80101e-06
-7.93886e-06
2.10672e-06
2.04005e-06
3.79208e-06
6.6979e-07
3.60768e-06
-1.00185e-05
5.74112e-06
6.62992e-06
4.85361e-06
-1.13709e-05
8.71364e-06
1.52336e-06
2.89912e-06
2.62429e-06
3.67389e-06
-1.77426e-05
2.2931e-05
-3.04262e-06
-2.14585e-06
-4.85014e-08
1.03056e-05
-1.07533e-05
4.96265e-07
2.67807e-05
-2.4319e-05
-2.71944e-06
2.57797e-07
-5.40103e-06
1.06751e-05
-7.57457e-06
2.3005e-06
-2.48605e-05
-1.86827e-05
2.58007e-05
-2.33092e-05
-1.59981e-06
-2.39214e-05
-1.62361e-07
-2.04499e-05
-4.06855e-06
-7.50449e-06
1.36573e-05
-2.0843e-06
-7.80716e-07
-6.68867e-06
5.5933e-06
1.87612e-06
6.64699e-06
2.72948e-07
-6.79215e-06
-1.27658e-07
-3.69828e-06
6.72597e-06
-1.45433e-06
-1.57346e-06
-5.60038e-06
-2.59133e-06
4.12331e-06
-3.89148e-06
-2.48957e-06
-5.69238e-06
-5.9726e-07
-2.93686e-06
-9.5547e-06
-1.27122e-05
1.53198e-05
2.56407e-05
-1.93567e-05
-1.71557e-05
-1.88368e-05
-9.793e-06
1.98304e-05
3.36744e-06
1.29096e-06
-3.30765e-06
-1.35065e-06
-2.07036e-06
5.73251e-06
-1.32169e-05
7.57441e-06
-1.74427e-06
1.08442e-05
-1.30066e-05
-9.85442e-06
-5.97703e-06
3.94109e-06
9.57494e-07
6.57138e-06
-2.06692e-06
-2.39777e-06
3.00837e-06
-1.83642e-05
-4.00099e-06
-5.41218e-06
-1.76591e-05
1.1532e-06
-9.22519e-06
-5.42557e-06
-1.50063e-06
8.19708e-06
-2.45574e-05
-7.95441e-07
-1.51111e-05
-2.18635e-06
-8.42847e-07
-9.15348e-06
5.33218e-06
-3.95519e-06
-1.10396e-06
1.92043e-05
-9.65703e-06
-1.3501e-06
-8.91341e-06
1.22458e-05
-1.65707e-05
-1.99906e-05
1.06047e-05
-3.88476e-06
-7.33599e-06
-8.60042e-07
8.67218e-06
-4.33566e-07
6.05167e-06
-2.41558e-07
8.56893e-08
6.92995e-06
-3.20388e-07
1.58953e-06
1.05083e-06
-1.55179e-06
-1.08847e-06
8.0328e-07
2.36853e-06
-1.91065e-06
-1.26096e-06
2.19563e-07
1.84842e-06
-3.39625e-07
-1.72827e-06
-3.00754e-06
4.63229e-06
-1.51652e-06
-1.0815e-07
-3.62735e-07
3.29451e-06
-1.34207e-06
1.68685e-06
-1.24624e-06
-1.26601e-07
4.13624e-07
1.77986e-06
-9.60678e-07
1.74326e-07
1.18289e-06
-3.96266e-07
-3.15678e-08
3.97337e-06
-4.49472e-06
5.53037e-07
5.85372e-07
-9.77863e-07
1.23769e-07
2.69244e-07
2.6998e-07
-3.59938e-06
1.85365e-06
1.47593e-06
3.67603e-08
-2.25587e-06
1.25858e-06
-2.13804e-06
2.14331e-06
-2.09701e-06
1.11234e-07
-3.64966e-06
3.67633e-06
4.18253e-07
-1.14686e-06
-2.94774e-06
-5.82176e-07
-1.28962e-06
5.20917e-07
1.35101e-06
5.4276e-08
-2.15637e-06
7.89084e-06
-5.78875e-06
-4.03441e-06
3.71972e-07
-4.23593e-06
7.89842e-06
1.30716e-07
2.7596e-06
7.8605e-07
2.58603e-06
-3.0375e-06
7.40206e-07
-2.015e-06
3.38053e-06
3.52553e-06
-2.07456e-06
-4.50962e-06
3.05866e-06
-6.5555e-06
-1.41397e-06
4.8934e-06
3.07614e-06
5.42264e-06
-1.81107e-06
-8.83077e-06
5.21924e-06
-1.30961e-06
-2.0232e-06
2.87347e-07
3.04556e-06
2.00515e-06
-1.84572e-06
3.36611e-06
-2.32101e-06
-2.22931e-06
1.66261e-06
-4.81793e-06
4.76424e-06
2.43551e-06
1.07788e-06
-1.14476e-06
4.28708e-07
-8.28103e-07
2.24782e-06
1.29413e-06
2.40917e-06
9.2907e-07
-3.9726e-06
1.97275e-06
8.71991e-07
1.12805e-06
4.7874e-07
2.15704e-06
-2.00192e-07
2.68734e-06
-1.66104e-06
-1.54497e-07
2.32045e-06
1.8296e-06
-5.77336e-07
-1.08951e-06
-5.371e-07
-4.33928e-07
4.78598e-08
-5.91757e-07
-1.10896e-06
1.67037e-06
-1.38953e-06
-2.88637e-08
1.65832e-06
-1.00713e-06
8.16616e-07
-2.67222e-07
-6.24474e-07
2.53063e-06
1.61642e-06
-1.89918e-06
2.44981e-06
-2.11518e-06
-3.80378e-06
3.26183e-06
-1.32054e-06
7.33546e-06
-7.82588e-06
7.20839e-07
5.76551e-06
-3.95563e-06
5.49113e-06
5.41958e-07
3.90302e-06
3.70506e-06
-2.26169e-06
9.96909e-06
-8.88262e-07
3.61308e-06
1.66543e-07
-1.40839e-06
2.35976e-06
2.13133e-06
4.00109e-06
1.67339e-06
4.78615e-06
3.17139e-07
-1.03081e-06
-1.31676e-06
2.06639e-06
1.49218e-07
-9.79018e-07
-1.23692e-06
-1.49756e-06
7.04631e-07
-1.09311e-06
-8.44196e-07
6.04346e-07
-1.74719e-06
-9.47783e-07
2.34819e-06
-1.08336e-06
2.31766e-06
-1.19907e-06
-2.95633e-07
5.2448e-07
4.75206e-08
2.30461e-06
-1.10314e-06
-1.24938e-06
2.17763e-06
-8.52117e-07
-5.93949e-08
-1.26644e-06
-1.52678e-06
2.11285e-06
4.57475e-07
-1.04382e-06
-6.61524e-07
2.62923e-06
-2.17836e-06
2.10544e-07
-8.92646e-07
2.28444e-06
-1.3445e-06
2.3719e-06
-1.08694e-06
-5.33567e-07
2.15663e-06
3.11495e-07
8.86626e-07
-1.82447e-06
-1.13439e-06
2.34805e-06
-1.84004e-06
7.17179e-07
-1.2254e-06
-2.16357e-06
1.23808e-06
-1.2279e-06
-1.06891e-06
-2.34903e-06
5.1221e-07
-3.68194e-07
3.21709e-06
-1.96241e-06
3.15189e-06
-1.17208e-06
4.2951e-08
1.03127e-06
6.25376e-07
-1.43276e-06
-3.53643e-06
5.24957e-06
-2.35541e-07
-5.69561e-06
6.81461e-07
-4.06308e-06
-1.55448e-06
-2.11518e-07
-2.13222e-06
-4.01743e-06
-1.52212e-07
-4.88409e-07
6.08964e-06
-4.97597e-06
5.92391e-06
-1.16282e-06
-1.93745e-06
-7.66149e-08
2.46612e-06
-1.12539e-06
-1.19166e-06
-1.75069e-06
-3.07941e-07
2.76314e-06
-4.05505e-07
3.41252e-06
-2.4028e-06
1.10214e-07
-3.96006e-07
3.91957e-06
-3.63384e-06
2.05854e-06
8.9802e-07
-4.90399e-07
8.32311e-07
2.17176e-06
-1.16362e-06
2.59855e-06
2.44049e-06
-1.26129e-06
-6.85951e-07
2.91917e-06
3.39154e-07
2.81966e-06
-1.04623e-06
-1.94128e-06
2.69462e-06
-1.06136e-06
3.85075e-07
1.56499e-06
1.85572e-06
6.95302e-07
-1.07171e-06
2.89018e-06
9.80063e-07
-7.84336e-08
-7.331e-07
4.09009e-06
-4.06221e-07
-4.12871e-06
-6.27413e-07
-1.96367e-06
3.33416e-07
-9.83095e-08
-2.82897e-06
-9.6637e-07
7.91707e-07
-3.34395e-06
3.67498e-07
2.28347e-06
2.29398e-07
4.67414e-07
5.12187e-07
1.20093e-06
-2.37163e-06
-3.10948e-06
9.85922e-07
1.59897e-07
1.66224e-06
4.37732e-07
5.35097e-06
1.9484e-07
1.83417e-06
5.44612e-06
-7.0533e-06
8.72558e-07
6.55413e-07
5.52536e-06
5.07714e-06
6.27049e-07
5.13045e-07
7.37564e-06
1.64073e-06
1.79224e-06
5.77823e-06
6.09272e-06
6.25169e-07
8.31653e-07
1.69241e-06
3.56356e-07
3.79501e-06
2.39685e-07
1.30155e-06
3.41567e-06
-5.10628e-06
5.24879e-07
7.3041e-07
3.851e-06
3.2651e-06
7.17569e-07
4.63704e-07
5.77468e-06
1.2935e-06
1.79411e-06
4.22024e-06
3.99533e-06
5.63093e-07
6.83112e-07
3.92119e-07
-6.47282e-06
8.36159e-07
5.24468e-06
1.12123e-06
-6.71652e-06
1.92569e-07
5.40283e-06
-5.86004e-06
4.25579e-07
7.21535e-07
4.71305e-06
4.4033e-06
-5.06551e-06
1.95733e-07
4.66622e-07
5.43072e-06
1.16943e-06
-6.20795e-06
1.28839e-06
5.26359e-06
5.09217e-06
4.80637e-07
5.20532e-07
-3.59833e-07
4.21938e-06
7.59449e-07
7.90238e-07
4.78464e-06
-8.48644e-10
-4.459e-06
4.06361e-06
6.41382e-07
-2.45797e-07
4.16222e-06
-1.39708e-07
-9.86485e-08
4.10147e-06
2.40606e-07
6.06632e-07
4.28507e-06
3.84098e-06
5.61917e-07
-1.13709e-08
1.8783e-06
6.51787e-06
-6.65276e-06
6.23716e-06
1.2882e-06
5.6733e-06
8.51566e-07
-8.22095e-07
5.69916e-06
1.2274e-06
6.96088e-07
-5.13499e-06
6.31723e-06
-5.12503e-06
5.55708e-07
1.10396e-06
2.00793e-06
4.8663e-06
5.21893e-06
1.19787e-06
-6.54874e-06
1.43491e-06
5.63883e-06
-7.60231e-07
1.38971e-06
5.60773e-06
1.17501e-06
7.15025e-06
6.95709e-06
1.13774e-06
5.25236e-06
1.5461e-06
-4.8122e-06
5.39531e-06
7.05232e-07
4.34232e-06
7.2856e-07
1.13654e-06
4.87564e-06
-7.78212e-07
4.14685e-06
6.95115e-07
-5.62226e-06
9.66171e-08
7.13299e-07
-1.76017e-07
-5.24559e-06
4.56386e-06
3.12204e-07
-1.08215e-06
1.6348e-07
6.10903e-06
-3.54871e-08
-5.29897e-06
1.74048e-08
-4.70306e-06
-1.1927e-06
-1.22133e-06
-4.94555e-06
-5.78731e-08
7.11848e-06
6.50063e-07
4.50854e-06
-1.70675e-05
1.12186e-05
4.92012e-08
5.79968e-06
5.68469e-06
9.51454e-06
1.61153e-06
2.04638e-06
1.11696e-05
5.95393e-06
9.99219e-06
-8.26162e-06
5.38789e-06
-7.70491e-06
6.29563e-07
1.39761e-05
1.19559e-05
1.24075e-05
-1.59812e-05
-1.32204e-06
4.89573e-06
-1.48057e-05
1.2563e-05
-1.64e-06
3.88273e-06
2.82651e-06
-8.8364e-06
4.32232e-06
1.68757e-06
-3.30201e-07
-1.54943e-05
1.01986e-05
5.62593e-06
1.13966e-05
-3.85159e-06