/*--------------------------------*- C++ -*----------------------------------*\
| =========                 |                                                 |
| \\      /  F ield         | OpenFOAM: The Open Source CFD Toolbox           |
|  \\    /   O peration     | Version:  2506                                  |
|   \\  /    A nd           | Website:  www.openfoam.com                      |
|    \\/     M anipulation  |                                                 |
\*---------------------------------------------------------------------------*/
FoamFile
{
    version     2.0;
    format      ascii;
    arch        "LSB;label=32;scalar=64";
    class       volVectorField;
    location    "1700";
    object      U;
}
// * * * * * * * * * * * * * * * * * * * * * * * * * * * * * * * * * * * * * //

dimensions      [0 1 -1 0 0 0 0];

internalField   nonuniform List<vector> 
45440
(
(0.143182 0.187825 1.30977)
(0.120248 0.155952 1.28993)
(0.102888 0.249669 1.16654)
(0.139133 0.448333 1.36592)
(0.113398 0.260902 1.26848)
(0.0924027 0.247679 1.25401)
(0.0596827 0.325822 1.24189)
(0.10546 0.26812 1.20039)
(0.132671 0.101999 1.27937)
(0.125308 0.0132858 1.26659)
(0.0373493 0.162221 1.15052)
(0.0329119 0.343544 1.30725)
(0.106981 0.145846 1.25196)
(0.0898362 0.116617 1.23451)
(0.0466207 0.232685 1.19122)
(0.0366862 0.153329 1.20405)
(0.0550299 0.26673 1.11023)
(-0.0145782 0.242387 1.10039)
(-0.0172095 0.217338 1.02936)
(-0.0408856 0.620457 1.19932)
(-0.0525733 0.374913 1.12004)
(-0.0180851 0.283679 1.08599)
(-0.0750999 0.371781 1.07988)
(-0.0372256 0.226205 1.05455)
(0.121797 0.82055 1.50763)
(0.0763095 0.83397 1.50779)
(0.0770689 1.02586 1.43264)
(0.319796 1.50864 2.06691)
(0.137285 0.726442 1.30802)
(0.107271 0.995381 1.5627)
(0.16834 1.10548 1.60452)
(0.0956531 1.02885 1.46558)
(0.117259 0.191996 1.26365)
(0.0598847 0.353053 1.21757)
(0.0589491 0.448766 1.2728)
(0.033478 0.440927 1.35337)
(0.0570761 0.272074 1.25574)
(0.0838764 0.328219 1.21164)
(0.0763957 0.39837 1.36081)
(0.0666273 0.507914 1.31549)
(0.109399 0.20823 1.2501)
(-0.00822676 0.461405 1.34108)
(0.0224385 0.236009 1.13358)
(0.0705748 0.304787 1.15355)
(0.0935125 0.25881 1.21032)
(0.0479785 0.303762 1.18731)
(0.0672936 0.222356 1.18147)
(0.013182 0.318589 1.19204)
(0.039012 0.360914 1.17699)
(0.105531 0.590945 1.27243)
(-0.0619798 0.505435 1.37073)
(-0.0249604 0.716688 1.30431)
(0.0817654 0.505455 1.25366)
(0.0777116 0.50445 1.28616)
(0.0141719 0.696731 1.33993)
(0.0562803 0.678307 1.30835)
(0.0825617 0.307951 1.13992)
(-0.0119573 0.597303 1.20336)
(-0.0190268 0.477686 1.3191)
(-0.0209916 0.227475 1.13324)
(0.00960703 0.400521 1.11077)
(-0.00787633 0.584481 1.22083)
(-0.0339645 0.316614 1.13802)
(0.0164825 0.536933 1.2304)
(-0.138311 0.636905 2.3654)
(-0.0514718 0.381975 1.75433)
(-0.0248795 0.638329 1.85081)
(-0.0705007 0.908968 2.33721)
(-0.284546 0.860559 2.37028)
(0.0457418 0.406118 1.7555)
(-0.42477 1.22103 2.73032)
(-0.0150205 0.619302 1.73765)
(0.0772602 0.232918 1.47449)
(0.159812 0.060612 1.3018)
(0.172413 0.154931 1.28875)
(0.0419203 0.418283 1.37577)
(0.051884 0.226422 1.46509)
(0.17283 0.0320318 1.35889)
(0.0956059 0.357702 1.43849)
(0.122301 0.19871 1.28618)
(0.162161 0.490201 1.49655)
(0.167996 0.216387 1.31196)
(0.172683 0.272759 1.33555)
(0.16547 0.498551 1.31856)
(0.144824 0.446814 1.53387)
(0.140436 0.20939 1.37146)
(0.165848 0.631947 1.51226)
(0.117513 0.3322 1.31641)
(-0.0505165 1.34855 2.2887)
(0.0956964 0.969815 1.60856)
(0.174762 0.841263 1.44622)
(0.166896 1.4936 1.85561)
(0.00867141 1.62088 2.50379)
(0.0323236 1.01602 1.70901)
(-8.64099e-06 2.08982 2.5138)
(0.186996 1.17254 1.75607)
(-0.048141 0.485553 1.721)
(-0.046218 0.707021 1.88003)
(-0.182312 1.22187 2.54139)
(-0.011847 0.644779 1.62869)
(0.00779576 0.584027 1.74622)
(0.00137928 0.581529 1.73316)
(-0.00742818 0.667241 1.67157)
(-0.0161356 0.738007 1.70052)
(0.0865359 0.195443 1.57534)
(-0.0369386 0.402492 1.44298)
(0.176362 0.144897 1.33593)
(0.0978378 0.330623 1.50086)
(0.0450058 0.384339 1.47484)
(0.0487509 0.373673 1.4571)
(0.0699122 0.346346 1.48272)
(0.0804725 0.352831 1.49463)
(-0.00244815 1.05957 2.02512)
(-0.220532 1.66515 2.83917)
(0.0908119 0.886937 1.66847)
(0.185276 1.18696 1.84573)
(0.107091 0.812606 1.76095)
(0.0412616 1.05567 1.72853)
(0.0945247 0.885482 1.84361)
(0.0709986 0.869735 1.70025)
(0.0907525 0.504872 1.439)
(0.149795 0.61462 1.37042)
(0.0191947 0.519014 1.36328)
(0.119546 0.253039 1.3268)
(0.101401 0.437244 1.42444)
(0.0160473 0.495696 1.41338)
(0.144484 0.41217 1.43453)
(0.0959569 0.469031 1.35256)
(-0.0561431 0.165803 1.0369)
(-0.0725885 0.583834 1.15838)
(-0.0759306 0.353201 1.1476)
(-0.137381 0.434616 1.11026)
(-0.105494 0.448783 1.07429)
(-0.0807006 0.406903 1.1144)
(-0.11488 0.430554 1.09721)
(-0.111682 0.462001 1.13386)
(-0.0745966 1.49676 1.63945)
(-0.00332722 1.94531 1.91746)
(-0.0325336 0.874832 1.52675)
(-0.144309 1.62315 2.22344)
(-0.0997902 1.69673 2.02228)
(0.111801 1.67453 1.98278)
(-0.273207 1.60771 1.86568)
(-0.157695 1.26903 1.96654)
(0.00496072 0.253496 1.1765)
(-0.00207198 0.390083 1.28662)
(0.0915516 0.0703199 1.21446)
(-0.000462204 0.265251 1.32334)
(-0.0352284 0.313519 1.25349)
(0.00359128 0.288354 1.22512)
(-0.00188886 0.257765 1.25715)
(-0.00302348 0.220383 1.28567)
(-0.230712 0.58293 1.27616)
(-0.314336 1.05831 1.84253)
(-0.106134 0.442298 1.40585)
(-0.240727 0.669238 1.60112)
(-0.263087 0.751301 1.45774)
(-0.229933 0.717697 1.4807)
(-0.223698 0.691472 1.4983)
(-0.215418 0.599281 1.50636)
(-0.175504 1.0657 1.39147)
(-0.0893338 0.429772 1.18957)
(-0.216791 0.658788 1.22663)
(-0.285056 1.26083 1.69787)
(-0.268378 0.951391 1.28164)
(-0.112653 0.446768 1.13246)
(-0.26861 0.980247 1.38246)
(-0.197316 0.604316 1.30262)
(-0.102992 0.987917 1.47361)
(-0.182191 1.16778 1.71601)
(-0.061834 0.752281 1.44778)
(-0.0789496 0.397407 1.19493)
(-0.11374 0.977642 1.403)
(-0.32117 0.864746 1.42805)
(0.013541 0.729033 1.38598)
(-0.161146 0.800454 1.47169)
(-0.0828417 0.382126 1.18856)
(-0.215464 0.617958 1.26083)
(-0.275245 1.16718 1.69757)
(-0.107771 0.448105 1.35766)
(-0.0851995 0.433794 1.25083)
(-0.187766 0.609852 1.30016)
(-0.138215 0.517508 1.34031)
(-0.229348 0.603506 1.39346)
(-0.0706862 0.394162 1.19316)
(-0.091474 0.413689 1.36367)
(-0.295163 0.950449 1.73865)
(-0.102271 0.59665 1.49643)
(-0.0917723 0.382055 1.26167)
(-0.136405 0.498336 1.32958)
(-0.144014 0.706524 1.404)
(-0.138026 0.694912 1.56346)
(-0.119378 0.181883 1.87004)
(-0.042426 0.430635 1.75882)
(-0.167541 0.721487 2.40924)
(-0.0966137 0.589736 1.96474)
(-0.0604877 0.523126 2.09661)
(-0.0842009 0.455017 1.96727)
(-0.124972 0.493258 2.05769)
(-0.11856 0.719573 2.17804)
(0.0844526 0.321944 1.53906)
(0.133297 0.137599 1.34482)
(0.00208715 0.481318 1.46951)
(-0.00347641 0.28503 1.36455)
(0.0496145 0.235208 1.43315)
(0.00674069 0.266613 1.39934)
(0.0671088 0.319631 1.49504)
(-0.00309089 0.295888 1.35318)
(-0.235468 1.39947 2.43561)
(-0.024023 1.1278 1.78521)
(-0.122625 2.19073 2.21405)
(-0.3042 1.55476 2.2869)
(-0.175512 1.56726 2.33241)
(-0.0552131 1.44493 2.12635)
(-0.238653 1.64697 2.25038)
(-0.0567036 1.79324 2.21167)
(-0.1576 0.625306 1.85657)
(-0.107226 0.4613 1.47003)
(-0.324 1.10273 1.9615)
(-0.201177 0.582791 1.59011)
(-0.154161 0.574684 1.79657)
(-0.244366 0.672182 1.61296)
(-0.191804 0.68007 1.92535)
(-0.234581 0.750008 1.67268)
(-0.0292259 0.415972 1.69911)
(-0.12913 0.853554 2.20967)
(-0.138219 0.58453 1.94359)
(-0.0545233 0.434565 1.59652)
(-0.036497 0.453141 1.70616)
(-0.0344535 0.634397 1.84293)
(-0.0590267 0.434807 1.65486)
(-0.151357 0.678311 1.97429)
(-0.0959226 0.489384 1.69413)
(-0.138569 0.47733 1.51779)
(-0.0478446 0.673613 1.58415)
(-0.0971917 0.89134 2.06109)
(-0.0883528 0.538723 1.63967)
(-0.0949708 0.443445 1.57032)
(-0.0776967 0.734479 1.83007)
(-0.0905184 0.663301 1.66348)
(-0.196066 0.901944 2.35266)
(-0.114593 0.6322 1.91842)
(-0.0616173 0.4872 1.63529)
(-0.290938 1.1152 2.1782)
(-0.215073 0.951231 2.23936)
(-0.172771 0.746104 1.89505)
(-0.205508 0.99779 2.07541)
(-0.213162 0.718489 1.79799)
(-0.164254 1.29924 2.26624)
(-0.263655 1.19846 1.96732)
(-0.146449 0.498552 1.46297)
(-0.0768423 0.755941 1.57028)
(-0.106861 1.0909 1.99251)
(-0.24371 1.02667 1.91418)
(-0.0769281 0.731005 1.81894)
(-0.231096 0.734341 1.62136)
(-0.614725 1.79158 1.68891)
(-0.330557 2.53415 1.22203)
(-1.51128 2.21473 0.899895)
(-1.48991 1.3595 -0.586414)
(-0.336115 2.45035 1.2422)
(-0.418311 2.40201 1.19202)
(-1.28832 1.97753 0.154632)
(-1.39789 2.45642 0.441699)
(-0.601328 2.4037 1.34337)
(-0.131719 1.7728 0.497714)
(0.599507 0.786043 -0.674484)
(-0.403762 1.19713 -1.11853)
(-0.601617 2.09662 0.146458)
(-0.7309 1.9224 0.474375)
(-0.838496 0.996901 -1.14286)
(0.113923 0.504773 -0.423079)
(-1.12214 0.61436 0.387543)
(-0.401044 0.709633 -0.580371)
(-1.0605 0.388764 0.233986)
(-0.329339 0.054167 -0.733463)
(-0.494349 0.38903 0.091302)
(-0.620015 0.492198 -0.104281)
(-0.722311 0.0803463 -0.0697869)
(-0.661472 0.459055 -0.223966)
(-0.851284 0.615066 -2.10681)
(-0.852582 0.819487 -3.58713)
(0.0279022 -0.491466 -0.819479)
(-0.920343 -0.145828 -4.9243)
(-0.66967 0.328058 -2.54413)
(-0.923196 0.568779 -2.86415)
(-0.457222 -0.0542544 -2.09946)
(-0.0758515 -0.293127 -1.90393)
(-0.326727 2.50146 0.583468)
(-1.20867 1.80082 0.265716)
(-1.21155 0.827777 -1.14076)
(-0.372876 0.787288 -1.34471)
(-0.543624 1.41598 -0.612429)
(-0.719662 1.72275 -0.323634)
(-0.499402 1.0465 -1.12637)
(-0.659692 0.991446 -1.35107)
(-0.545504 2.26418 0.577619)
(-0.725894 0.628682 -0.393034)
(-0.321961 1.1234 -0.588594)
(-1.12434 1.52512 0.511735)
(-0.99501 1.24179 -0.584317)
(-0.787784 0.281799 -0.827514)
(-0.799095 1.56742 -0.446635)
(-0.982445 0.172481 -0.191569)
(-0.553732 0.155156 -0.250064)
(-0.891949 0.473949 -1.953)
(-0.242215 0.804466 -2.23837)
(0.032843 -0.309927 -0.654643)
(-0.857424 0.377197 -0.876328)
(-0.699043 1.01253 -1.83468)
(-0.542457 -0.103164 -0.755072)
(-0.586363 0.67366 -2.42232)
(-0.48372 0.387093 -0.298218)
(-0.226867 -0.0552652 -1.14316)
(0.135314 0.123535 -1.02766)
(0.221948 0.950763 -0.655868)
(-0.239069 0.519135 -0.970469)
(-0.333253 0.377102 -1.31878)
(-0.00136838 0.450286 -0.763488)
(-0.348977 0.229666 -1.46025)
(-0.428294 0.752998 -0.305193)
(-0.501036 1.23302 -0.980857)
(-0.275917 0.718076 -1.48781)
(-0.244919 0.0523948 -0.946067)
(-0.496835 0.46645 -0.504102)
(-0.465979 1.0443 -0.982261)
(-0.439033 0.391348 -0.750296)
(-0.356582 0.945703 -1.22659)
(-0.0389799 1.03832 -1.1271)
(0.0267276 1.14208 -0.451793)
(0.0706857 0.17979 -0.831742)
(-0.260549 0.881055 -1.03395)
(-0.220597 1.05218 -0.539705)
(0.0386762 1.08762 -0.655772)
(-0.115665 0.531063 -1.13438)
(0.206011 1.14317 -0.939429)
(-0.0266392 0.399862 -1.9995)
(-0.144039 0.11837 -1.52298)
(0.00287463 -0.0111941 -2.05789)
(0.0213135 0.0725204 -1.82754)
(-0.017495 0.263929 -1.92294)
(-0.099974 0.164841 -1.7617)
(-0.0532393 0.174688 -2.02739)
(-0.0210559 0.0505048 -1.87557)
(-0.0232718 -0.11466 -1.29807)
(-0.542959 0.543485 -3.0889)
(-0.0795601 0.140306 -2.19098)
(-0.833758 0.0568306 -5.00055)
(-0.0982767 -0.32286 -2.29632)
(-0.541889 0.29293 -3.05659)
(0.234953 -0.380837 -1.7891)
(-0.465437 0.427517 -3.06219)
(-0.0168639 0.754842 -1.03193)
(-0.11046 0.592267 -1.61911)
(-0.0223027 -0.0535677 -1.20521)
(-0.105632 0.319616 -1.50312)
(-0.231667 0.328168 -1.27167)
(-0.0405016 0.587302 -1.32541)
(-0.301519 0.139206 -1.48203)
(-0.206446 0.186611 -1.58193)
(-0.33634 1.05094 -1.38071)
(-0.225592 0.464471 -1.42119)
(0.0486283 0.303865 -1.17987)
(-0.109532 0.726937 -1.6479)
(-0.383628 0.800622 -1.51362)
(-0.323373 0.426823 -1.42129)
(-0.22676 0.756512 -1.834)
(-0.167373 0.371558 -1.51233)
(-0.160736 0.277516 -1.76866)
(-0.138565 -0.0757707 -1.26654)
(-0.0560008 0.272165 -1.26144)
(-0.0784336 -0.0416679 -1.61798)
(-0.18169 0.122992 -1.63431)
(-0.222307 0.179126 -1.59451)
(-0.0851863 0.0202554 -1.63075)
(-0.122832 0.221836 -1.5042)
(-0.117179 0.337871 -2.05133)
(0.0507822 0.0831012 -1.78665)
(-0.0177984 0.469565 -1.43948)
(-0.043661 0.200624 -1.31534)
(-0.204608 0.31439 -1.89374)
(-0.0441203 0.211473 -1.80614)
(-0.176998 0.343424 -1.76933)
(-0.0588626 0.194555 -1.43837)
(-0.0871953 0.149612 1.08083)
(0.0349586 0.226798 1.10578)
(-0.0122624 0.0898883 0.99374)
(-0.0514004 0.139316 1.06159)
(0.00455191 0.214383 1.07173)
(0.00418811 0.160579 1.0027)
(-0.0333414 0.182754 1.04541)
(0.00615482 0.151991 1.04968)
(0.0821766 0.199486 1.12318)
(0.122576 0.132733 1.24774)
(0.0698934 0.191645 1.10683)
(0.139437 0.0850702 1.21554)
(0.0880598 0.157059 1.2083)
(0.0885384 0.222521 1.15439)
(0.0783012 0.154037 1.1573)
(0.108143 0.113171 1.17051)
(-0.00870141 0.0648821 1.04249)
(0.0600494 0.116554 1.05577)
(0.00177381 0.0592172 0.976017)
(0.0343018 0.0779384 1.0586)
(0.00857117 0.0860368 1.04102)
(0.0236975 0.0968474 0.991963)
(0.0303235 0.0804383 1.04272)
(0.0342232 0.0609276 1.01837)
(0.0263408 0.0881196 1.12854)
(0.135723 0.0140556 1.18268)
(0.0390728 0.0561988 1.11038)
(0.122388 -0.0431946 1.21139)
(0.112594 0.0449877 1.17673)
(0.0881702 0.0762099 1.17018)
(0.0868532 0.0560051 1.14596)
(0.0811154 0.0314382 1.13877)
(0.0375635 0.205298 1.10821)
(-0.00113431 0.127289 1.08608)
(0.0367758 0.162357 1.09489)
(0.109917 0.11664 1.17628)
(0.0345561 0.221414 1.14676)
(-0.00220391 0.186646 1.08635)
(0.0566679 0.153583 1.15863)
(0.0177528 0.182617 1.09737)
(0.0556873 0.199377 0.970853)
(0.0948634 0.146306 1.17651)
(0.0665776 0.125627 1.13128)
(-0.00173629 0.134833 1.16034)
(0.0626426 0.172934 1.10593)
(0.0578627 0.186376 1.14146)
(0.0293206 0.16647 1.01391)
(0.0342203 0.131841 1.09573)
(0.00880972 0.121306 0.963652)
(0.0164224 0.149717 1.07085)
(0.0949119 0.126919 1.14643)
(0.039243 0.086125 1.0677)
(-0.00651674 0.136933 1.01391)
(0.0282669 0.135562 1.0655)
(0.050077 0.10392 1.08923)
(0.0606636 0.126592 1.14642)
(0.000554176 0.0765916 1.01186)
(0.0455137 0.0770208 1.06159)
(0.109488 0.104918 1.14187)
(0.0492794 0.102112 1.04912)
(0.048454 0.137687 1.05556)
(0.0612554 0.105349 1.09782)
(0.0517766 0.150828 1.05868)
(0.073398 0.141057 1.09889)
(0.264701 0.121351 1.76687)
(0.266953 0.201831 1.67256)
(0.188054 0.11007 1.85476)
(0.232925 0.164293 1.64952)
(0.207651 0.161811 1.72229)
(0.241989 0.173126 1.67211)
(0.197422 0.147721 1.77675)
(0.229741 0.226819 1.68706)
(0.205407 0.231429 1.56791)
(0.139452 0.248631 1.35317)
(0.0711127 0.359657 1.50227)
(0.192839 0.165552 1.32413)
(0.202154 0.243835 1.46414)
(0.173431 0.264969 1.45863)
(0.179477 0.26547 1.49757)
(0.1349 0.266499 1.40204)
(0.0207979 0.264931 1.87615)
(-0.0167651 0.471097 1.75863)
(-0.41041 0.379227 2.04935)
(-0.0325556 0.334383 1.72719)
(-0.0217854 0.386884 1.85463)
(0.0338164 0.390861 1.88324)
(-0.0635128 0.395431 1.83791)
(-0.0407726 0.425808 1.79233)
(0.215188 0.0944277 1.48039)
(0.199916 0.0937102 1.30046)
(0.100134 0.217893 1.48969)
(0.183177 0.0210184 1.30001)
(0.221222 0.0176168 1.4435)
(0.223555 0.0775364 1.35622)
(0.184676 0.0824004 1.49553)
(0.165957 0.0679212 1.381)
(0.200388 0.229623 1.57308)
(0.161651 0.276184 1.79973)
(0.22873 0.0920429 1.58093)
(0.222155 0.172139 1.44398)
(0.225511 0.199598 1.57638)
(0.209963 0.250932 1.65179)
(0.218451 0.165947 1.48142)
(0.241096 0.17327 1.50434)
(0.209182 0.247586 1.58048)
(0.206693 0.168112 1.36206)
(0.169815 0.352205 1.62275)
(0.196577 0.263816 1.78284)
(0.191344 0.276407 1.58031)
(0.168988 0.27107 1.44784)
(0.233173 0.263681 1.73019)
(0.12566 0.332802 1.60643)
(0.0534681 0.25604 1.84786)
(0.204245 0.106587 1.61494)
(0.205291 0.210001 1.47533)
(0.0784789 0.248297 1.70152)
(0.0420124 0.179664 1.70314)
(0.195993 0.154789 1.52879)
(0.144769 0.188151 1.65391)
(0.235379 0.157352 1.47193)
(0.0786234 0.372063 1.77264)
(0.0729697 0.234992 1.57944)
(0.190122 0.198391 1.35833)
(0.0867609 0.399151 1.55071)
(0.0571143 0.372419 1.78106)
(0.119088 0.188657 1.61078)
(0.122591 0.378378 1.62135)
(0.203256 0.266028 1.53087)
(-0.0235345 0.0411231 0.986454)
(0.012702 0.126813 1.04863)
(-0.00950829 0.0846808 1.01602)
(0.0117857 0.229061 1.03885)
(-0.00212102 0.0990652 1.0152)
(-5.77809e-05 0.1175 0.985654)
(0.0447459 0.156672 1.03181)
(0.0155478 0.105559 1.02444)
(0.0307603 0.19128 1.11348)
(0.0744601 0.235729 1.25608)
(0.0440225 0.292073 1.14483)
(0.107345 0.516566 1.33111)
(0.0585625 0.237191 1.18353)
(0.0714337 0.245326 1.11696)
(0.0631802 0.350378 1.22402)
(0.0586585 0.342573 1.20991)
(0.00671366 0.0764502 1.00945)
(0.0200187 0.295287 1.09687)
(-0.0526305 0.273422 1.00132)
(-0.0130242 0.681018 1.15981)
(0.000750746 0.233912 1.05438)
(0.0138702 0.154755 1.04541)
(-0.0452836 0.381403 1.04943)
(-0.0589466 0.358651 1.05137)
(0.0488011 0.679845 1.14559)
(0.143089 0.926926 1.43359)
(0.144984 1.11178 1.42484)
(0.298602 1.60115 1.86132)
(0.138513 0.883911 1.31238)
(0.165342 0.906087 1.28595)
(0.189903 1.18646 1.55261)
(0.170305 1.14396 1.51595)
(0.0278332 0.183355 1.07531)
(0.00789352 0.123825 1.02024)
(0.036875 0.372009 1.07565)
(0.0963324 0.511084 1.22645)
(0.0508184 0.255872 1.07891)
(0.0671202 0.216188 1.0233)
(0.0127395 0.392449 1.17671)
(0.0292366 0.384587 1.07427)
(0.04757 0.204545 1.05109)
(0.0584315 0.529098 1.21547)
(0.0366723 0.175303 1.03697)
(0.0246239 0.170424 1.02025)
(0.0399179 0.222971 1.10206)
(0.0607913 0.331643 1.12121)
(0.0368399 0.109527 0.992366)
(0.0377187 0.248607 1.08443)
(0.0151076 0.236703 1.03908)
(0.097598 0.560606 1.13407)
(0.123999 0.636775 1.24046)
(0.00183581 0.760824 1.23256)
(0.00599789 0.43507 1.15149)
(0.0574502 0.438612 1.12368)
(0.0417243 0.502752 1.17456)
(0.163912 0.616255 1.15802)
(-0.0246261 0.224758 1.05925)
(-0.00422403 0.707705 1.23981)
(0.0968571 0.631327 1.25678)
(0.0241642 0.361002 1.13291)
(0.0202245 0.319686 1.06878)
(0.0876401 0.47585 1.17324)
(0.0406159 0.389199 1.15103)
(0.097723 0.597174 1.23684)
(0.197931 0.308759 1.82747)
(0.140673 0.415123 1.95938)
(0.227904 0.298295 1.63461)
(0.0894554 0.594668 1.80144)
(0.174139 0.360464 1.86384)
(0.19158 0.333946 1.86549)
(0.215158 0.431937 1.68646)
(0.218163 0.413638 1.72537)
(-0.00350443 0.532559 2.12253)
(-0.132787 0.555607 2.33278)
(0.174805 0.510598 1.83064)
(-0.181703 0.765619 2.17761)
(-0.0228225 0.588298 2.11187)
(-0.0545625 0.495902 2.13782)
(-0.0143135 0.770547 2.08282)
(0.0174736 0.739986 2.05201)
(0.180542 0.274169 1.42902)
(0.228975 0.437603 1.49899)
(0.166479 0.249462 1.333)
(0.141996 0.441351 1.30031)
(0.196941 0.371437 1.46033)
(0.188137 0.395864 1.50506)
(0.164528 0.398009 1.39369)
(0.169618 0.417355 1.41104)
(0.000288611 1.01574 1.91377)
(-0.203587 1.22232 2.23083)
(0.163699 0.672584 1.41369)
(0.285572 1.36823 1.73177)
(0.000231826 1.11108 2.10061)
(-0.106797 1.1175 2.10399)
(0.214516 1.12834 1.71559)
(0.144186 1.21957 1.89612)
(0.098889 0.500728 1.93457)
(0.202883 0.390255 1.66403)
(0.113307 0.720313 1.95709)
(-0.0216255 0.857121 2.13475)
(0.110819 0.561923 1.82004)
(0.204337 0.494395 1.77183)
(0.00275311 0.819755 2.11951)
(0.0856632 0.7015 1.90109)
(0.107356 0.434897 1.99141)
(-0.0569709 0.77787 2.14056)
(0.168398 0.456884 1.7917)
(0.211267 0.360578 1.72548)
(0.167505 0.553174 1.82329)
(0.111045 0.625857 1.90547)
(0.191525 0.461024 1.74142)
(0.152867 0.512818 1.73298)
(0.218292 0.47035 1.502)
(0.175827 0.780754 1.75636)
(0.0290025 1.10352 2.09953)
(0.206261 0.678822 1.46613)
(0.150916 0.446693 1.34281)
(0.17036 0.791258 1.81618)
(0.145567 0.686877 1.60527)
(0.160351 0.968451 2.04689)
(0.22292 0.447674 1.56922)
(0.177186 0.736033 1.52224)
(0.0384515 1.11703 2.1038)
(0.181467 0.626158 1.64849)
(0.230169 0.570952 1.60668)
(0.108926 0.690756 1.67115)
(0.150264 0.657668 1.66274)
(0.0854396 0.804601 1.68166)
(-0.217635 0.174414 -1.56203)
(-0.550913 0.0980899 -1.12871)
(-0.451425 0.254376 -1.56329)
(-1.02661 0.402441 0.732792)
(-0.378409 0.0688965 -1.15705)
(-0.588943 0.222686 -1.21846)
(-0.446586 -0.0679592 -1.31098)
(-0.294782 0.52959 -1.22453)
(0.064872 0.36285 -0.123022)
(-0.465284 2.09263 0.971639)
(-0.196838 1.28575 -0.623262)
(-0.832428 1.70119 2.09713)
(-0.0865299 1.66911 0.241894)
(-0.278857 1.52051 0.480355)
(-0.836186 1.0458 1.11966)
(-0.615101 1.4059 1.21854)
(-0.61658 0.873404 -1.04423)
(-0.224894 1.11357 -0.409391)
(-1.09557 1.13404 0.700844)
(-1.50014 1.07641 1.03313)
(-0.351238 1.16128 -0.651274)
(-0.57904 0.997333 -0.756193)
(-1.00899 1.08707 0.00298386)
(-1.06689 1.04408 0.264682)
(-0.766942 1.0006 2.49679)
(-0.548063 1.46928 2.46413)
(-1.0938 1.23176 2.41949)
(-0.427018 1.00702 1.89683)
(-0.618922 1.09601 2.53259)
(-0.728792 1.15226 2.44016)
(-0.582829 1.14204 2.27036)
(-0.668861 1.10637 2.23697)
(-0.219743 0.476156 -0.864525)
(-1.13846 0.151315 -1.02736)
(-0.635568 0.682799 0.851271)
(-0.643555 1.42665 1.78762)
(-0.853008 0.32394 -0.835772)
(-1.31497 0.40021 -1.39815)
(-0.832769 1.23071 1.22413)
(-1.21655 0.91877 0.894087)
(0.0574708 0.404204 -0.262806)
(-0.877813 1.36365 1.58332)
(-0.186986 1.15544 -0.836279)
(-0.531803 0.480664 -1.30448)
(-0.945914 0.927072 0.440919)
(-1.00665 1.09109 0.169386)
(-0.699316 0.559171 -1.27688)
(-0.294985 1.18302 -0.64373)
(-1.21035 0.465455 -0.967756)
(-1.07993 0.655886 2.2003)
(-0.797542 1.3662 2.45111)
(-1.34729 1.1295 2.16229)
(-1.46467 0.941055 0.555909)
(-0.990941 0.978641 2.11102)
(-0.976435 0.806267 1.44242)
(-0.960861 1.12828 2.43131)
(-0.429719 1.11761 -0.920629)
(-1.30025 1.2939 1.90061)
(-0.792278 1.4477 2.40893)
(-0.431311 1.58929 -0.0663832)
(-0.28392 1.1061 -1.11754)
(-1.34975 1.71617 0.776168)
(-0.385871 1.51463 -0.189301)
(-1.37628 1.68536 1.72446)
(-1.714 1.07757 1.20524)
(-0.172759 0.95081 -0.04809)
(-1.04986 0.762146 0.497808)
(-1.32702 0.738322 1.48939)
(-0.836024 0.341837 0.0747351)
(-0.556069 0.629479 -0.0921783)
(-1.02984 0.564881 0.45029)
(-0.925198 0.643831 0.282998)
(-0.831009 1.22757 0.27971)
(-0.718205 2.18058 1.36419)
(-0.52313 2.37115 1.42534)
(-0.767095 1.91843 2.28051)
(-1.01432 1.80085 1.45846)
(-0.849484 1.75078 1.06034)
(-0.764467 1.99159 1.76084)
(-0.549856 2.17056 1.55408)
(-1.67717 2.25198 1.18836)
(-0.0848858 2.59514 1.50669)
(-0.658459 1.42169 1.296)
(-0.74463 1.98296 1.72592)
(-0.798415 2.59155 1.45486)
(-0.19441 2.37527 1.27073)
(-0.674334 1.98811 1.78241)
(-0.138856 1.98433 1.58648)
(-1.06285 1.41965 2.46157)
(-0.444667 1.45211 2.40169)
(-0.646259 1.60194 2.03952)
(-0.364387 0.850464 1.79701)
(-0.604876 1.27117 2.23972)
(-0.788304 1.42171 2.27587)
(-0.544004 1.16256 1.95851)
(-0.523386 1.50751 2.07142)
(-0.35968 0.747546 0.388568)
(-1.04017 1.28453 1.00117)
(-1.30868 1.3992 2.19014)
(-0.546337 1.76805 2.47729)
(-0.921794 1.80921 0.226955)
(-1.10893 1.45525 0.785174)
(-1.1266 1.32129 2.01305)
(-1.38798 1.42294 1.58585)
(-0.734442 1.02087 -0.146959)
(-0.874721 1.72848 2.13981)
(-0.44378 1.93191 0.709377)
(-1.02887 1.85159 0.68248)
(-1.08525 1.70013 0.535734)
(-1.05933 1.78801 1.70104)
(-1.11421 1.89338 0.346478)
(-0.799524 2.1641 0.840824)
(-1.49548 2.01865 1.48143)
(-1.19908 1.69365 2.45776)
(-0.472988 2.05394 2.66792)
(-0.678549 1.70605 2.06166)
(-1.49926 1.96074 1.925)
(-1.34211 1.96421 2.22039)
(-0.808149 2.04641 2.08139)
(-0.94865 1.78862 2.31046)
(-1.4694 2.26961 1.18297)
(-0.599213 2.1469 2.02569)
(-0.502584 2.36234 2.48822)
(0.0523336 2.37186 1.64857)
(-1.151 2.39099 1.83193)
(-0.858902 2.15172 1.90755)
(-0.600011 2.39514 2.1266)
(-0.672352 2.45555 2.26712)
(-0.617776 -0.0517484 0.970061)
(-1.66796 -0.370102 1.72453)
(-0.546456 0.230616 0.779507)
(-1.624 0.224434 1.62989)
(-1.38844 0.0125346 1.4843)
(-1.02183 -0.197853 1.4497)
(-1.7443 0.0677074 1.47588)
(-2.07489 -0.00078656 1.56651)
(-2.06618 -0.880281 1.85344)
(-1.02507 -0.632832 0.588964)
(-1.39029 -1.02102 1.00984)
(-0.938929 -0.580409 0.589435)
(-1.422 -0.45755 1.00741)
(-1.16448 -0.695907 1.17076)
(-1.62895 -0.71841 1.05701)
(-0.954809 -0.720862 0.556285)
(-1.23365 0.166241 0.79823)
(-2.67861 -0.935032 1.11068)
(-2.50405 -0.0671085 1.6122)
(-2.60725 0.425731 1.54961)
(-3.30385 0.0161005 1.34147)
(-3.13493 -0.552567 1.18526)
(-2.94033 0.0528607 1.28655)
(-3.34873 -0.130289 1.25888)
(-1.84071 0.253593 1.71562)
(-1.0069 -0.4566 0.86165)
(-1.92855 0.132654 1.53623)
(-1.73283 0.205083 1.11689)
(-2.2039 0.209962 1.59396)
(-2.41635 0.00691727 1.58556)
(-1.71429 0.363164 1.4409)
(-2.01237 -0.037566 1.19662)
(-2.27455 -0.378148 1.8956)
(-2.32881 0.109801 1.54768)
(-2.54604 -0.0375234 1.92352)
(-1.59199 -0.259438 1.02277)
(-2.49711 -0.129747 1.85723)
(-2.98918 -0.233373 1.91009)
(-2.21991 -0.154891 1.75637)
(-2.77605 -0.226816 1.95018)
(-2.32023 -0.777822 1.99251)
(-1.34414 -0.375666 1.03517)
(-2.06166 -0.805343 0.645996)
(-1.79825 -0.177986 1.50251)
(-2.39951 -0.490596 1.51399)
(-2.4131 -0.574202 1.23691)
(-2.32301 -0.489737 1.72208)
(-2.30348 -0.458705 1.08774)
(-2.71533 0.0428959 1.65388)
(-1.85056 0.334753 1.60135)
(-1.77516 -0.479989 1.04725)
(-1.67492 0.346989 1.27865)
(-2.07199 0.154629 1.84456)
(-2.5878 0.0171473 1.67204)
(-2.7965 -0.142167 1.58463)
(-2.72052 -0.141096 1.61276)
(-3.12589 -0.0549005 1.66213)
(-2.64957 0.144391 1.3563)
(-1.08257 -0.686396 0.280665)
(-2.1847 -1.00388 0.57156)
(-3.85505 -0.246098 1.78724)
(-3.33818 -0.239381 1.6707)
(-2.47962 -0.57503 1.36832)
(-1.80163 -0.619665 1.18286)
(-0.0956894 0.0888338 -1.55954)
(-0.131743 -0.0726758 -1.08197)
(-0.395521 -0.593862 -1.1665)
(-0.0995173 0.290252 -1.83362)
(-0.294265 0.0758173 -1.67921)
(0.00871235 -0.158481 -1.08169)
(0.0830879 0.260105 -1.07064)
(-0.0431164 -0.24253 -1.14793)
(0.068594 -0.037298 -1.07666)
(-0.030976 0.0221989 -1.36276)
(0.00785679 -0.157671 -0.641193)
(-0.180622 0.103897 -1.41601)
(-0.0662625 0.0650592 -1.31625)
(-0.055374 -0.0761877 -1.0387)
(-0.0681087 -0.104216 -1.33067)
(-0.0344386 -0.0214576 -1.04178)
(-0.517679 -0.301428 -0.0932111)
(-0.168717 0.005572 -0.364301)
(-0.180431 -0.903681 0.110517)
(-0.282684 -0.529246 -0.0998826)
(-0.4444 -0.33879 -0.101586)
(-0.270926 -0.469623 0.133516)
(0.342419 -0.344004 -0.0629406)
(0.283089 -0.425533 0.074378)
(-0.32289 0.454634 -1.58439)
(-0.342563 0.343099 -1.00053)
(0.475059 -0.366361 -0.590054)
(-0.696133 0.586819 -0.293379)
(-0.736428 0.322456 -0.651953)
(-0.387118 0.0989359 -0.876693)
(-0.209309 0.307503 -0.772008)
(-0.214698 0.294496 -0.520766)
(-0.187745 -0.00565354 -1.27311)
(-1.09093 -0.301045 -0.522106)
(-0.342192 0.292736 -1.31759)
(-0.29611 0.0477469 -1.28671)
(-0.0964636 0.0284679 -1.10091)
(-0.158518 -0.0555315 -0.92007)
(-0.239468 0.0928846 -1.29754)
(-0.236149 0.0411256 -1.16901)
(-0.0768815 -0.17274 -0.851608)
(-0.185612 -0.19421 -1.09205)
(-0.151882 0.0851919 -0.529819)
(-0.271005 0.24643 -0.397937)
(-0.111474 -0.0743753 -0.636171)
(-0.00067309 -0.19289 -0.99993)
(-0.39929 0.0433304 -0.530048)
(-0.105637 -0.0165319 -0.834594)
(-0.261774 -0.0355308 -0.586295)
(-0.319444 0.259812 -1.32514)
(-0.339875 0.08881 -1.16554)
(0.129794 -0.339785 -0.397274)
(-0.468724 -0.292875 -0.960728)
(-0.540652 0.0743561 -1.00402)
(-0.853156 -0.333086 -0.505572)
(-0.378765 0.00603523 -0.945296)
(-0.579656 0.244395 -0.347028)
(0.0644417 -0.371858 -0.00410528)
(-0.17581 -0.00431885 -0.90319)
(-0.232731 0.183707 -0.509823)
(-0.269226 -0.231524 -0.435621)
(-0.173319 -0.227363 -0.337059)
(-0.230877 0.0906926 -0.613663)
(-0.310687 0.10462 -0.762612)
(0.000846991 0.100279 1.0318)
(0.00802354 0.107249 1.02181)
(0.0471228 0.16561 1.13092)
(0.0777538 0.430803 1.1182)
(-0.00217014 0.127986 1.04002)
(0.0107449 0.0995349 1.0136)
(0.0621632 0.193503 1.00335)
(0.0420421 0.160668 1.02528)
(0.00592686 0.115027 1.00723)
(0.0108216 0.118586 0.979855)
(0.0906705 0.251366 1.07327)
(0.112404 0.469143 1.09064)
(0.020784 0.293937 1.01041)
(0.057861 0.135722 1.00341)
(0.0722382 0.31362 1.02217)
(0.0808785 0.201666 1.03184)
(0.0553279 0.189501 1.22941)
(0.0990569 0.28149 1.18964)
(0.0969405 0.225252 1.33044)
(0.15887 0.425762 1.35661)
(0.0701964 0.293612 1.19997)
(0.0787956 0.265683 1.19548)
(0.134101 0.363911 1.23073)
(0.102307 0.300109 1.21801)
(0.23393 0.91598 1.53124)
(0.244109 0.98125 1.29035)
(0.183143 0.842509 1.556)
(0.194156 1.38078 1.99997)
(0.154545 1.20206 1.47858)
(0.224288 0.935869 1.33868)
(0.226324 1.25719 1.61821)
(0.217176 0.939292 1.42173)
(0.00120515 0.213062 1.03204)
(0.0466787 0.248201 1.12388)
(0.0414316 0.463307 1.16892)
(0.0938496 0.717257 1.18134)
(0.0487624 0.246051 1.03644)
(0.0440125 0.248616 1.05968)
(0.0719591 0.395752 1.12204)
(0.0830412 0.353235 1.1115)
(0.0201435 0.130029 1.025)
(0.110188 0.471403 1.09926)
(0.0800734 0.256789 1.11147)
(0.0648006 0.200765 1.07528)
(0.0509245 0.181239 1.03989)
(0.0629631 0.363536 1.04972)
(0.0622558 0.183984 1.06954)
(0.0678211 0.374363 1.11688)
(0.0951006 0.286588 1.06723)
(0.0876196 0.567868 1.14484)
(0.137158 0.699855 1.158)
(0.117276 0.712249 1.33521)
(0.173028 0.469809 1.29282)
(0.107048 0.446232 1.14995)
(0.063717 0.641088 1.28545)
(0.0343098 0.669815 1.26824)
(0.0739057 0.218308 1.08629)
(0.171329 0.539991 1.2544)
(0.13045 0.506863 1.15261)
(0.102123 0.282845 1.12775)
(0.0969497 0.355004 1.1571)
(0.136908 0.481775 1.26119)
(0.0920894 0.374482 1.12154)
(0.0919192 0.528404 1.21065)
(0.234413 0.298206 1.88386)
(0.231196 0.301529 1.66103)
(0.164735 0.472803 2.00403)
(0.214662 0.589079 1.9286)
(0.218982 0.394995 1.76776)
(0.200228 0.371628 1.80925)
(0.169189 0.56597 1.9257)
(0.188475 0.487527 1.88723)
(0.182825 0.29425 1.45135)
(0.161057 0.268354 1.33965)
(0.168722 0.444461 1.47475)
(0.129187 0.458502 1.30114)
(0.159052 0.38595 1.49182)
(0.178212 0.351843 1.49165)
(0.135069 0.473267 1.33364)
(0.172671 0.429672 1.4208)
(0.120026 0.718863 2.15425)
(0.109279 0.565766 1.71721)
(0.0541483 0.833295 2.24356)
(0.145311 0.899768 2.1798)
(0.0903929 0.78389 1.93866)
(0.0711017 0.711809 1.94371)
(0.107914 0.878061 2.15899)
(0.0888114 0.837858 2.12763)
(0.125069 0.950623 2.10397)
(0.100873 0.727523 1.35734)
(0.185433 1.00393 2.10545)
(0.264505 1.39236 1.74757)
(0.142386 1.00927 1.90743)
(0.00280215 0.919687 1.86253)
(0.249079 1.23801 1.89947)
(0.15172 1.09457 1.92863)
(0.21889 0.401712 1.67978)
(0.143794 0.70473 1.88079)
(0.164784 0.737068 1.88118)
(0.157021 0.604122 1.55583)
(0.210953 0.512063 1.43971)
(0.179478 0.6769 1.8101)
(0.224023 0.522345 1.42001)
(0.160648 0.719516 1.85441)
(0.20168 0.368571 1.65602)
(0.179502 0.58302 1.60321)
(0.20595 0.528716 1.63384)
(0.150959 0.648945 1.86867)
(0.216059 0.437622 1.52399)
(0.207332 0.556686 1.54669)
(0.184952 0.441886 1.62966)