/*--------------------------------*- C++ -*----------------------------------*\
| =========                 |                                                 |
| \\      /  F ield         | OpenFOAM: The Open Source CFD Toolbox           |
|  \\    /   O peration     | Version:  2506                                  |
|   \\  /    A nd           | Website:  www.openfoam.com                      |
|    \\/     M anipulation  |                                                 |
\*---------------------------------------------------------------------------*/
FoamFile
{
    version     2.0;
    format      ascii;
    arch        "LSB;label=32;scalar=64";
    class       surfaceScalarField;
    location    "600";
    object      phi;
}
// * * * * * * * * * * * * * * * * * * * * * * * * * * * * * * * * * * * * * //

dimensions      [0 3 -1 0 0 0 0];

oriented        oriented;

internalField   nonuniform List<scalar> 
111136
(
-8.31367e+07
1.82187e+08
-9.89343e+07
-8.4314e+07
-8.57319e+07
1.69684e+08
1.55439e+08
-8.23691e+07
-7.34335e+07
2.16242e+06
-7.41558e+07
1.52777e+08
-8.1172e+07
-8.85467e+07
-1.55023e+08
1.59953e+08
-1.73302e+08
-6.84917e+07
-8.47477e+07
-8.64862e+07
-1.02839e+08
-9.30092e+07
1.95816e+08
-1.01072e+08
2.52826e+08
-1.51533e+08
2.05374e+08
-8.22214e+07
-1.23196e+08
-681355
-7.47533e+07
1.98816e+08
-1.23237e+08
-1.14228e+08
-1.90011e+08
2.01355e+08
-2.1542e+08
-1.07352e+08
-8.34933e+07
-1.17321e+08
-9.41992e+07
1.61996e+08
-6.84423e+07
-6.55235e+07
1.81434e+08
-1.1606e+08
1.51148e+08
-9.82837e+07
-5.33075e+07
-740004
1.42927e+08
-8.97798e+07
-5.26821e+07
-8.89714e+07
-1.58076e+08
1.52549e+08
-1.54647e+08
-9.28232e+07
-6.62663e+07
-9.6333e+07
-8.26629e+07
-1.53152e+06
1.51192e+08
-6.75829e+07
-6.09103e+07
-4.20494e+06
1.88496e+08
-1.23467e+08
1.44598e+08
-3.27888e+06
-9.40565e+07
-4.78641e+07
-5.82429e+06
1.63415e+08
-1.09707e+08
-4.80869e+07
-8.81139e+07
-1.53336e+08
1.57858e+08
-1.48496e+08
-858423
-9.85933e+07
-6.10216e+07
-1.02455e+08
-1.55839e+08
-9.96997e+07
1.69181e+08
1.58762e+08
-8.63661e+07
-1.55863e+08
-8.39968e+07
-1.43847e+08
1.53152e+08
8.63098e+07
-9.6234e+07
-1.68652e+08
1.78507e+08
-7.49474e+07
-800874
-8.03323e+07
-2.689e+06
-6.8736e+07
1.53925e+08
-1.55515e+08
-1.93011e+08
1.82097e+06
-1.73002e+08
9.97809e+07
-1.8219e+08
7.66067e+07
-1.63601e+08
-9.85871e+07
-1.75189e+08
-1.80287e+08
-9.85902e+07
-1.79187e+08
-453191
-7.98805e+07
-7.59103e+07
-7.74858e+07
-6.83049e+07
-7.11532e+07
-1.01827e+08
1.58099e+08
-9.89143e+07
-6.26709e+07
1.38758e+08
-7.72331e+07
-6.22218e+07
-9.42967e+07
1.66308e+08
-8.5721e+07
-8.15184e+07
1.43936e+08
-1.00012e+08
-1.64979e+08
-1.09992e+08
1.08222e+08
-1.08987e+08
-451880
7.1433e+07
5.77277e+07
458355
-1.06802e+08
6.14279e+07
-1.37957e+08
7.55138e+07
-1.29673e+08
5.99496e+07
6.92622e+07
9.29435e+07
5.17296e+07
-1.45361e+08
-1.29212e+07
4.97848e+07
-1.12644e+08
7.50408e+07
5.65505e+07
-6.87059e+07
7.32897e+07
-7.31963e+07
2.69185e+07
-1.09189e+08
4.65545e+07
6.43105e+07
-1.383e+08
7.37627e+07
-1.4472e+08
6.6601e+07
7.74934e+07
7.69106e+07
-1.28898e+08
5.07658e+07
-188018
-1.30753e+08
5.42215e+07
7.6823e+07
7.09419e+07
-8.95845e+07
8.24879e+07
-7.38703e+07
4.99953e+07
-1.40321e+08
5.29744e+07
3.7504e+07
1.07462e+08
-1.45311e+08
-1.4683e+08
9.04107e+07
5.62728e+07
1.31476e+08
-1.80686e+08
4.87485e+07
-8.86052e+06
1.03037e+08
-1.30522e+08
3.63687e+07
4.06205e+07
-1.09851e+08
1.06459e+08
-1.06283e+08
2.94175e+07
-1.48158e+08
5.45469e+07
4.37624e+07
-9.49434e+06
-1.11993e+08
7.74899e+07
-1.22415e+08
-3.94199e+06
4.40394e+07
8.22357e+07
8.99183e+07
-4.19226e+06
-1.16959e+08
3.14728e+07
-7.67397e+06
-1.19264e+08
3.50715e+07
9.173e+07
4.0199e+07
-8.1647e+07
8.51225e+07
-7.71057e+07
-5.08822e+06
2.18865e+07
-1.1096e+08
3.47538e+07
-8.09269e+07
6.39926e+07
7.67039e+07
8.97587e+07
4.59275e+07
-8.42199e+07
4.39221e+07
-7.27159e+07
7.8425e+07
-5.65769e+07
5.79986e+07
-8.47932e+07
8.31211e+07
-1.29727e+08
4.61947e+06
4.35608e+07
6.57197e+06
-1.3177e+08
7.94713e+07
-8.13478e+07
-7.44351e+07
62300.6
-7.2862e+07
-5.42432e+07
-7.48578e+07
1.3165e+08
-8.62591e+07
4.81021e+07
-7.92985e+07
-9.229e+07
5.21731e+07
-9.44419e+07
1.36511e+07
2.01939e+07
-1.18323e+08
2.85906e+07
-1.11322e+08
-1.25215e+08
3.61032e+07
8.45993e+07
1.97202e+07
-1.08838e+08
9.50326e+07
3.5285e+07
-1.17031e+08
4.21445e+07
8.81588e+07
3.14496e+07
4.13543e+07
8.20275e+07
4.0637e+07
-8.05469e+07
4.36331e+07
-4.12621e+07
5.67153e+07
6.68697e+06
1.4091e+08
1.19861e+08
5.18603e+06
4.44703e+07
4.57125e+08
-3.43552e+08
-2.08672e+08
9.30529e+07
-8.27085e+07
4.03645e+08
-3.98949e+08
7.51173e+07
1.10785e+08
4.45842e+08
-4.4699e+08
-1.12598e+08
-4.28298e+08
5.27817e+08
-1.50152e+08
4.9163e+07
6.0176e+07
3.11427e+08
8.43739e+07
3.46813e+08
-3.7156e+08
3.60439e+07
-1.5356e+08
4.93249e+08
3.28314e+08
-1.74214e+07
-3.95374e+08
8.21611e+07
4.31497e+07
-3.86839e+08
2.47941e+08
9.2127e+07
1.19338e+08
3.55097e+07
-3.71738e+08
2.14129e+08
-5.29791e+08
4.40027e+07
3.67744e+08
1.16398e+08
-1.65449e+08
3.96762e+08
9.58584e+07
3.17117e+08
-4.42208e+08
-1.5504e+08
2.07324e+07
2.79737e+08
3.8391e+08
1.47436e+08
-5.13011e+08
-2.06415e+07
1.14431e+07
1.66284e+08
-3.7015e+08
1.91109e+08
1.95174e+08
-3.84854e+08
1.65512e+08
2.40191e+07
-6.6858e+08
1.55315e+08
4.16208e+08
9.61107e+07
-1.97532e+08
4.41134e+08
1.40557e+08
3.01488e+08
-4.89114e+08
-2.49179e+08
2.13843e+07
2.48565e+08
6.32049e+08
-6.28983e+08
-2.73812e+07
2.06212e+07
2.90685e+07
-6.61027e+08
5.4987e+08
7.91349e+07
7.48649e+07
-7.64853e+08
5.40404e+08
1.46744e+08
-7.80722e+08
7.08551e+08
7.12599e+07
-2.7773e+06
-7.09065e+07
6.79832e+08
2.24449e+07
5.87471e+08
-6.31567e+08
-1.17056e+08
1.50799e+07
5.45126e+08
3.82845e+08
-6.1717e+07
8.12352e+07
8.85876e+07
-7.95003e+07
4.37135e+08
-2.71988e+07
4.95062e+08
5.74399e+07
-4.59599e+08
-1.38742e+08
5.19188e+08
7.76551e+07
-4.18412e+07
5.0989e+08
-8.61718e+07
5.38158e+08
-2.47448e+07
7.34842e+07
4.8461e+08
3.71138e+08
-4.52278e+08
-5.49476e+08
4.5338e+08
1.79006e+08
3.2126e+08
-4.6739e+08
1.19885e+07
4.07051e+08
-5.00256e+08
4.14047e+08
-1.29828e+08
-1.15019e+08
3.36364e+08
-4.55947e+08
3.99994e+08
5.8271e+08
-1.11593e+08
-3.56843e+07
-3.6634e+07
-9.77263e+07
1.56241e+07
-1.58345e+08
-5.82094e+08
-2.12378e+08
2.87352e+07
7.38268e+07
4.97782e+08
9.03349e+06
5.21348e+08
9.45942e+07
-1.79168e+08
4.42676e+08
-4.83371e+08
4.26331e+08
-1.14913e+08
4.09182e+08
2.08101e+08
2.80076e+08
6.23007e+08
-3.99409e+07
-3.98673e+07
5.67191e+08
4.126e+08
9.02364e+07
-8.99261e+07
1.24833e+07
8.94049e+07
-1.02311e+08
3.26734e+07
7.17472e+07
-1.04735e+08
-1.12055e+08
1.12304e+08
-1.90701e+07
1.09179e+08
8.7046e+07
-9.38869e+07
-3.02585e+06
1.16528e+08
8.76945e+07
2.66468e+07
-1.15753e+08
3.6851e+07
8.77696e+07
-1.24046e+08
2.19404e+07
4.4004e+07
6.46241e+07
-1.30475e+08
-1.3928e+08
3.6803e+07
1.01385e+08
-4.74319e+07
1.35192e+08
1.12468e+08
-1.23218e+08
-2.08746e+07
1.71956e+07
1.14155e+08
7.01901e+07
4.07362e+07
-1.11787e+08
3.33154e+07
2.82254e+07
6.10459e+07
-1.24855e+08
3.54839e+07
7.03912e+07
-1.0656e+08
-1.40602e+08
3.43445e+07
1.05287e+08
-4.98475e+07
9.3121e+07
2.27693e+07
9.89784e+07
-1.16281e+08
-4.795e+07
8.66262e+07
1.35766e+08
-1.35736e+08
1.63193e+07
-1.42423e+08
1.24843e+08
2.39773e+07
-1.56186e+08
1.31799e+08
-1.67239e+08
1.67231e+08
-2.24693e+07
1.58551e+08
1.42237e+08
-1.48996e+08
-8.92605e+06
1.57274e+08
1.18839e+08
-3.12628e+07
-907962
-3.45046e+07
1.05518e+08
-1.75386e+07
1.29272e+08
-1.03844e+08
-4.36139e+07
1.46441e+08
3.8722e+06
1.14085e+08
-971030
1.19327e+08
9.01689e+06
1.09944e+08
9.88557e+07
-1.05825e+08
-1.35891e+08
1.29539e+08
5.01303e+07
1.05313e+08
-1.15726e+08
-3.06351e+07
9.281e+07
-9.94251e+07
1.2258e+08
-2.54394e+07
1.76345e+06
7.07008e+07
-1.2761e+08
1.17145e+08
1.22271e+08
-1.79164e+07
-7.05339e+06
1.55419e+07
-1.19433e+07
-1.37462e+08
-1.85058e+07
3.21494e+07
8.98068e+07
1.34911e+08
-1.45674e+06
-4.55724e+07
1.13874e+08
-1.12587e+08
1.29771e+08
-2.32872e+07
1.40933e+08
3.31195e+07
9.76004e+07
1.34542e+08
-6.1774e+06
-2.29697e+07
1.44222e+08
9.76345e+07
7.03467e+08
-1.67499e+09
9.58461e+08
-1.58394e+09
6.89398e+08
8.89159e+08
1.21169e+09
5.24595e+08
-1.75235e+09
-1.71093e+08
5.54513e+08
-1.34768e+09
9.5105e+08
6.37206e+08
-8.78848e+08
9.41337e+08
-9.48268e+08
2.33556e+08
-1.29392e+09
4.94764e+08
7.64858e+08
-1.73691e+09
9.74764e+08
-1.83188e+09
7.36937e+08
1.08874e+09
1.06824e+09
-1.69519e+09
6.18129e+08
-2.86609e+07
-1.61393e+09
6.3361e+08
1.00854e+09
8.04189e+08
-1.13023e+09
1.08631e+09
-1.02927e+09
4.68517e+08
-1.63871e+09
5.06494e+08
4.00835e+08
1.47194e+09
-1.88829e+09
-1.80862e+09
1.32271e+09
4.80433e+08
1.77498e+09
-2.12024e+09
2.99951e+08
-2.35033e+08
1.34523e+09
-1.41526e+09
3.02176e+08
3.8781e+08
-1.3908e+09
1.39609e+09
-1.42416e+09
3.24777e+07
-1.67616e+09
3.82585e+08
3.94964e+08
-1.63268e+08
-1.25122e+09
1.00507e+09
-1.43678e+09
-1.09386e+08
4.22427e+08
1.11633e+09
1.18691e+09
-1.70665e+08
-1.29559e+09
2.73502e+08
-1.65024e+08
-1.1619e+09
2.47015e+08
1.06573e+09
3.454e+08
-1.04323e+09
1.08543e+09
-9.88912e+08
-1.042e+08
-5.69104e+06
-1.21686e+09
1.90734e+08
-1.03882e+09
7.25413e+08
1.00073e+09
1.1831e+09
4.3669e+08
-1.10594e+09
4.4272e+08
-8.73166e+08
9.76129e+08
-5.97162e+08
5.84742e+08
-1.09081e+09
1.09532e+09
-1.57523e+09
8.47193e+07
4.36828e+08
1.02172e+08
-1.58633e+09
1.0632e+09
-1.04606e+09
-1.01452e+09
-2.9326e+07
-1.00368e+09
-4.93542e+08
-1.2082e+09
1.56876e+09
-1.15157e+09
5.26203e+08
-1.11227e+09
-1.14414e+09
4.52486e+08
-1.189e+09
2.21527e+08
9.15378e+07
-1.43086e+09
1.1606e+08
-1.1716e+09
-1.5188e+09
3.02067e+08
1.14011e+09
2.81362e+07
-1.35195e+09
1.32577e+09
3.75077e+08
-1.49388e+09
3.91522e+08
1.23147e+09
2.73832e+08
4.0975e+08
1.11697e+09
2.47287e+08
-1.10736e+09
4.00891e+08
-3.75299e+08
4.86212e+08
1.1141e+08
1.68055e+09
1.48844e+09
1.15016e+08
4.9043e+08
5.45267e+08
-4.92587e+08
-3.90638e+08
3.36459e+08
-3.69019e+08
4.74938e+08
-3.99622e+08
2.91321e+08
4.20535e+08
4.23187e+08
-3.87589e+08
-4.5456e+08
-5.82294e+08
7.70734e+08
-4.84272e+08
2.9234e+08
1.21111e+08
2.02697e+08
2.19459e+08
1.32669e+08
-3.81473e+08
1.20673e+08
-5.01606e+08
6.73532e+08
3.35653e+08
-3.75052e+08
-3.46262e+08
3.87494e+08
-2.27266e+08
1.57092e+08
-3.61514e+08
4.34281e+08
5.1349e+08
-2.05599e+08
2.81604e+07
-3.33267e+08
-6.97845e+08
-3.48288e+08
4.80453e+08
5.64316e+08
-2.05565e+08
9.609e+07
4.45576e+08
-4.7174e+06
-4.2609e+08
-2.49962e+08
-3.50896e+08
2.59247e+08
2.44279e+08
4.11018e+08
-3.03409e+08
-3.50598e+08
-2.12117e+08
4.68878e+08
2.40904e+07
-2.77936e+08
4.6955e+08
-5.27435e+07
-2.39115e+08
-1.77126e+08
-4.95924e+08
5.19341e+08
2.75084e+08
-2.99188e+08
-2.32288e+08
-8.50854e+07
5.64222e+08
-1.79192e+08
-2.63405e+08
-2.83253e+08
-2.97767e+08
7.02612e+06
1.04067e+09
-9.69953e+08
-4.10462e+08
3.42385e+08
-3.57467e+08
-9.13093e+08
7.77909e+08
4.94304e+08
5.38316e+08
-9.2318e+08
7.39166e+08
-3.55536e+08
-1.22851e+09
1.2423e+09
-3.23125e+08
3.12916e+08
9.88124e+06
7.3774e+08
2.97619e+08
4.71342e+08
-8.17127e+08
-3.01684e+07
-4.59253e+08
9.81175e+08
1.64374e+08
-1.61569e+07
3.26173e+08
3.84059e+08
-4.87574e+07
9.12162e+07
5.6342e+07
4.73722e+08
2.40209e+08
-6.50596e+08
-1.1923e+08
3.44413e+08
4.28352e+08
-5.05048e+08
7.29698e+08
-5.9154e+07
5.53198e+08
-3.62382e+08
4.44649e+08
2.48601e+08
2.30586e+07
-4.14298e+08
-5.86814e+08
1.19899e+08
2.11929e+08
-5.94387e+07
-3.55849e+08
3.81556e+08
-2.22275e+07
-4.03525e+08
3.76343e+08
-4.11223e+08
-5.60489e+08
3.49636e+08
-3.76995e+08
4.01392e+06
6.19469e+08
-7.97459e+07
-4.44139e+08
6.89212e+07
-5.65204e+08
-3.79527e+08
-1.88257e+08
-2.93623e+08
-2.06925e+08
-4.21731e+08
4.1636e+08
6.06548e+08
-4.02009e+08
7.34716e+08
4.61938e+08
-1.48237e+08
3.09572e+08
-5.94478e+07
3.73422e+08
-6.18623e+08
5.51318e+08
2.77127e+08
1.32749e+08
5.04649e+08
3.70933e+08
2.96836e+08
6.51948e+08
3.32206e+08
9.99028e+07
-3.60515e+08
1.23443e+08
1.36778e+08
8.19709e+07
1.02314e+08
-3.08563e+08
1.23556e+08
-2.32684e+08
1.21791e+08
4.82504e+07
6.20765e+07
6.77591e+07
1.49746e+08
-3.24192e+08
1.06274e+08
1.96727e+08
2.04883e+08
-3.0194e+08
1.75894e+08
1.0273e+08
1.89937e+08
8.23743e+07
1.3289e+08
1.11465e+08
6.0454e+07
-2.84177e+08
1.11539e+08
3.90956e+07
-2.36022e+08
1.00761e+08
9.50996e+07
-1.93994e+08
2.97869e+07
4.39321e+07
1.19042e+08
2.84694e+07
3.33741e+07
-2.0877e+08
1.44909e+08
1.87004e+08
1.64558e+08
-2.40749e+08
1.41046e+08
8.48552e+07
1.59964e+08
3.25807e+07
1.06684e+08
1.45029e+08
-1.35495e+08
-2.89412e+06
-7.15854e+06
-4.06194e+06
-1.26754e+08
2.54606e+07
1.03017e+08
-7.46366e+07
-2.54117e+07
-4.72321e+07
1.47175e+08
-7.64357e+07
-1.0147e+08
5.01722e+06
1.72009e+08
1.06744e+08
1.56109e+08
-1.18375e+08
1.27493e+08
-2.50897e+07
8.51585e+07
-5.71547e+06
1.37858e+08
1.99028e+08
-3.28377e+07
-2.31058e+08
6.44215e+07
2.18403e+07
-6.02209e+07
-1.51762e+08
1.89196e+08
-1.06394e+08
-9.86952e+07
2.74853e+07
1.77411e+08
-1.59881e+08
-6.1624e+07
1.04686e+07
2.10542e+08
1.34244e+08
2.36522e+08
-1.71715e+08
2.2004e+08
-6.39255e+07
5.68135e+07
1.9788e+07
1.70322e+08
1.88039e+08
1.99647e+08
-2.86128e+08
-2.06376e+08
1.55479e+08
1.72271e+08
1.87089e+08
2.0948e+08
-2.47641e+08
-1.49465e+08
1.70786e+08
1.93461e+08
-2.15852e+08
5.12278e+07
-5.27496e+07
1.88934e+08
-2.25875e+07
6.28196e+07
-2.65927e+08
2.27201e+08
1.68772e+08
9.10961e+07
1.44068e+07
1.89355e+08
-1.43878e+08
1.13372e+08
5.94096e+07
-3.59325e+07
1.43306e+08
4.76718e+07
1.34913e+08
2.2228e+08
1.8165e+08
1.16811e+08
6.92309e+07
1.54479e+08
6.61085e+06
1.34351e+08
3.09289e+07
1.30465e+08
4.59358e+07
3.02081e+07
1.0289e+08
-1.89962e+08
7.35442e+07
1.75128e+07
-1.87803e+08
1.60692e+08
3.32658e+07
1.6981e+08
-1.36093e+08
1.06687e+08
1.42085e+08
-1.74701e+08
1.46604e+08
1.65292e+08
1.26693e+08
-1.2429e+08
1.10575e+08
3.32575e+07
-9.77982e+06
-3.48804e+07
2.03168e+07
1.50544e+08
-4.76546e+08
9.41902e+08
-4.69132e+08
7.05357e+07
-1.58332e+08
7.25115e+08
-6.37564e+08
8.90311e+08
-3.98399e+08
-4.95586e+08
-5.16847e+08
-3.68171e+08
8.83642e+08
-8.62061e+08
-3.95777e+08
7.81009e+08
-3.20659e+08
-4.73253e+08
-9.13732e+08
-3.44821e+08
2.35658e+08
1.83093e+08
1.95707e+08
-6.17766e+08
4.13042e+08
-4.4251e+08
6.91015e+08
-6.64946e+08
1.60133e+07
1.87888e+08
3.89083e+08
-6.03122e+08
-6.81521e+08
1.53311e+08
2.44226e+08
2.88638e+08
-2.94256e+08
5.69101e+08
-4.01398e+07
7.06662e+08
-5.96547e+08
-3.13553e+08
1.9467e+08
4.0288e+08
-2.82425e+08
8.57116e+08
-5.75963e+08
5.91217e+07
5.24609e+08
1.61307e+08
-7.4654e+08
9.06234e+08
-1.72378e+08
-7.33576e+08
-6.1711e+08
8.23112e+08
-1.97082e+08
-8.12075e+08
-2.16269e+08
7.53056e+08
-1.57415e+08
-5.95018e+08
-8.34121e+08
-8.70176e+07
-2.58359e+08
-5.36853e+08
7.91587e+08
1.85457e+07
-7.89359e+08
7.86882e+08
-1.53108e+07
7.9795e+08
-5.49411e+08
-2.5777e+08
-5.54613e+08
7.82686e+08
-2.32259e+08
-7.31805e+08
-2.07874e+08
6.75246e+08
-2.01859e+08
-5.14921e+08
-7.6558e+08
-1.71671e+08
-6.16676e+06
-6.98878e+08
5.54608e+08
7.78198e+08
-8.77232e+08
-3.03841e+08
-7.83727e+08
-3.09374e+08
7.20114e+08
6.2693e+07
-6.47109e+08
5.48261e+07
5.22168e+08
5.20436e+07
7.23409e+08
-7.80312e+08
4.84274e+08
4.15993e+07
7.45993e+08
-2.59942e+08
1.23567e+08
-6.39489e+08
-6.34918e+08
1.38116e+08
5.83461e+08
2.39635e+08
-6.33693e+08
-5.54006e+07
-2.32252e+08
-5.91185e+08
-1.16694e+06
-6.49119e+08
-4.3729e+08
-5.49714e+07
-6.47642e+08
9.32028e+07
5.41635e+08
-8.46579e+08
-8.47877e+08
2.51264e+07
-7.62646e+08
1.80711e+08
-7.28687e+08
8.28244e+08
-2.88688e+08
-2.80207e+08
7.70002e+08
-8.77727e+08
-2.20588e+08
2.43018e+08
-1.47451e+08
-6.64162e+08
2.86928e+07
6.32704e+08
1.31126e+08
5.93115e+08
-5.96643e+07
-4.22635e+07
6.64017e+08
-4.64571e+07
5.48781e+07
-2.8876e+08
-1.55918e+08
-2.48295e+08
3.08536e+07
-1.55541e+08
3.44564e+08
1.92631e+07
-2.39417e+08
-1.28074e+08
-1.13924e+08
-8.93383e+06
-2.74679e+08
-1.44066e+08
-2.45304e+08
-2.32715e+08
-1.61691e+08
-1.14744e+08
-2.45896e+08
-3.70857e+06
1.88881e+07
-2.27047e+08
-1.63563e+08
-1.56153e+08
-1.43492e+07
-2.14939e+08
2.93909e+08
-1.38835e+08
-2.34249e+07
-1.33463e+08
-1.27733e+08
-3.17102e+08
-6.90366e+07
-1.89673e+08
-2.81292e+08
-1.87856e+08
-1.58829e+08
-1.89411e+08
-2.20724e+08
-8.36822e+07
-2.65893e+07
2.59582e+08
-1.5326e+08
-8.5633e+07
-9.98483e+07
2.26875e+08
-6.17046e+07
-7.05556e+07
1.00098e+08
-4.95468e+07
-6.85403e+07
1.26297e+07
2.82261e+07
2.21963e+08
-9.28246e+07
-1.62604e+08
-9.76267e+07
-1.995e+08
2.66871e+08
-1.41247e+08
-5.74946e+07
-6.23974e+07
-1.10611e+08
-1.04119e+08
-1.24497e+08
-2.04999e+07
-2.56466e+08
-2.89898e+08
-7.43748e+06
-1.52082e+08
2.89352e+08
6.12339e+07
-1.31158e+08
-2.22541e+08
9.02232e+07
-1.60622e+08
-2.7481e+08
-1.22517e+08
-3.74918e+08
-4.30562e+08
1.65706e+07
-8.31239e+07
-2.02282e+08
-2.24782e+08
-2.88313e+08
-1.49657e+08
3.8452e+08
-1.37396e+08
-2.31575e+08
-1.32014e+08
-3.30748e+08
3.69567e+07
-1.50117e+08
-3.88294e+08
-2.77448e+08
1.42458e+08
-1.55577e+08
1.03072e+08
-2.77174e+08
-3.06806e+08
-2.18252e+08
-1.59848e+08
-1.15285e+08
-3.53602e+08
1.55863e+08
-1.8519e+08
-1.11364e+08
1.84548e+08
-2.12472e+08
-1.12742e+08
-4.74631e+07
-3.2838e+08
-3.8455e+08
-2.44758e+07
-1.20256e+08
-2.54292e+08
5.71285e+07
-1.03695e+08
-1.87237e+08
-1.0579e+08
-2.46719e+08
-2.71678e+08
-1.25718e+08
3.03599e+08
-7.71986e+07
-1.66553e+08
3.35016e+08
-7.08449e+07
-2.09176e+08
-7.82398e+07
3.33347e+08
-1.02243e+08
-5.75166e+07
2.91697e+08
-1.48842e+08
-3.68419e+08
-1.12758e+08
1.26209e+08
-8.51686e+07
2.73576e+07
1.7896e+08
2.15176e+08
5.02455e+07
-1.0365e+08
2.48476e+08
-3.75273e+07
3.63134e+07
-2.84619e+08
2.7218e+08
-2.93486e+07
4.2155e+07
5.3715e+07
2.17039e+08
-5.528e+07
-1.82022e+07
3.36506e+08
4.7561e+07
2.2314e+08
-1.72209e+07
4.23647e+07
-3.3513e+07
-2.80559e+07
2.42557e+08
2.62953e+08
3.1802e+08
-3.46142e+08
-3.01992e+07
5.85185e+07
-3.92352e+08
-4.15073e+07
3.64074e+08
7.03609e+07
4.42473e+07
-3.34993e+08
-2.50041e+07
3.15184e+08
1.21909e+07
-4.89842e+08
4.32231e+08
4.86488e+07
2.98534e+08
-4.88472e+07
6.88914e+07
-5.67165e+07
-3.70305e+07
3.47856e+08
-3.84205e+08
3.35068e+08
1.95356e+08
6.83622e+07
-7.19092e+07
-2.35865e+08
6.22089e+07
-6.08288e+07
2.37119e+08
9.0516e+07
-9.5309e+07
1.72724e+08
-4.95666e+07
6.30613e+07
4.03719e+08
1.39581e+08
-4.68148e+06
6.27008e+07
-1.71463e+07
-7.87161e+07
1.95601e+08
2.69541e+08
4.52028e+08
6.18348e+07
3.41755e+07
-5.72783e+08
7.20613e+07
4.75163e+08
2.45176e+07
-2.69168e+06
3.31538e+07
5.10063e+08
1.25913e+08
5.90844e+08
-9.14721e+06
5.26146e+08
-1.02361e+08
2.8241e+07
-1.19548e+08
7.22592e+07
5.66807e+08
4.43432e+08
-3.26433e+07
2.54353e+08
5.09302e+07
5.50429e+07
1.88847e+08
-2.66791e+07
3.61784e+08
-7.71505e+07
5.10976e+07
-3.68321e+08
4.12053e+08
-8.73426e+07
4.57118e+07
-3.36044e+08
-1.70519e+07
3.21355e+08
-1.81422e+07
-4.38737e+08
5.2719e+07
-9.52183e+07
-5.72224e+07
-3.45552e+07
7.08335e+06
-8.44846e+07
-2.47488e+08
-3.53568e+07
-5.32824e+07
2.8453e+08
-3.8196e+07
-5.65948e+07
3.24443e+08
-5.97109e+07
-5.2688e+07
2.59631e+08
-3.48628e+07
-4.07458e+07
9.86338e+06
2.44635e+08
3.93202e+08
-4.62237e+08
4.47116e+08
5.00982e+07
4.09822e+08
5.2558e+07
3.68691e+08
3.50404e+08
3.95747e+07
3.80155e+08
2.74407e+08
6.51674e+07
4.07952e+08
-1.96018e+07
3.82571e+08
-3.08229e+08
3.3467e+08
2.52537e+06
3.34163e+08
4.47136e+08
-1.49957e+07
4.12324e+08
-1.18509e+07
2.19436e+07
-1.00678e+07
-1.32715e+07
-1.48556e+07
2.80813e+07
2.1255e+07
-1.33541e+07
-8.26176e+06
479458
-1.31677e+07
1.81463e+07
-5.8117e+06
-1.28692e+07
-2.03358e+07
2.09778e+07
-2.63251e+07
-9.28658e+06
-1.07115e+07
-1.44209e+07
-2.08339e+07
-1.68161e+07
3.76946e+07
-2.03765e+07
5.71043e+07
-3.67921e+07
4.29379e+07
-1.44054e+07
-2.86654e+07
848317
-1.38854e+07
4.57607e+07
-3.30166e+07
-2.45768e+07
-3.97128e+07
4.3256e+07
-4.50242e+07
-2.43793e+07
-1.44929e+07
-2.64937e+07
-1.81209e+07
2.49798e+07
-6.95688e+06
-9.14416e+06
3.3271e+07
-2.40165e+07
2.47584e+07
-2.19246e+07
-3.04645e+06
1.04734e+06
2.57339e+07
-2.34448e+07
-3.43302e+06
-1.80927e+07
-2.59457e+07
2.58001e+07
-2.72758e+07
-1.77707e+07
-7.21038e+06
-2.0304e+07
-1.76545e+07
241781
2.15096e+07
-4.63719e+06
-9.3143e+06
1.06576e+06
4.11598e+07
-3.32037e+07
2.70528e+07
893139
-2.53949e+07
-2.93464e+06
101472
3.1116e+07
-3.15903e+07
-214650
-1.94833e+07
-2.73976e+07
2.87251e+07
-2.99458e+07
950829
-2.17712e+07
-5.65391e+06
-2.47282e+07
-2.70157e+07
-1.88693e+07
3.08866e+07
2.49862e+07
-1.45636e+07
-2.41164e+07
-1.49416e+07
-2.20163e+07
2.33508e+07
1.83974e+07
-2.15239e+07
-3.43305e+07
3.71649e+07
-1.12335e+07
-538875
-1.53407e+07
-689312
-9.86364e+06
2.75734e+07
-2.56705e+07
-3.58019e+07
793038
-3.62883e+07
1.99128e+07
-3.4338e+07
1.20157e+07
-2.66335e+07
-1.83146e+07
-3.28441e+07
-3.21472e+07
-2.08729e+07
-3.31923e+07
251203
-1.43919e+07
-1.00805e+07
-1.42432e+07
-7.70015e+06
-1.04857e+07
-2.28566e+07
2.65235e+07
-1.95454e+07
-6.33723e+06
2.34089e+07
-1.78666e+07
-5.58034e+06
-1.65428e+07
2.60777e+07
-1.7612e+07
-1.60812e+07
2.72122e+07
-2.11574e+07
-3.43847e+07
-2.49591e+07
2.19066e+07
-2.30041e+07
-751452
1.04273e+07
8.7895e+06
-871292
-2.65483e+07
-3.04666e+06
-8.38235e+06
1.02521e+07
-1.34494e+07
-926334
1.36274e+07
1.91173e+07
229396
-1.95355e+07
-3.52167e+06
-2.79943e+06
-7.72943e+06
1.3906e+07
-1.84735e+06
-1.22033e+07
1.08094e+07
-1.5318e+07
-3.80045e+06
-1.20951e+07
-18199.4
2.21316e+06
-1.88705e+07
1.59704e+07
-2.12899e+07
4.03026e+06
1.65808e+07
2.05612e+07
-2.46655e+07
3.77837e+06
-859151
-2.13205e+07
3.81322e+06
1.80008e+07
4.27498e+06
-1.88755e+07
1.65566e+07
-1.70762e+07
944153
-2.0986e+07
4.39186e+06
671586
2.69337e+07
-2.78175e+07
-2.8289e+07
2.53839e+07
2.64883e+06
3.11785e+07
-3.49015e+07
3.60439e+06
1.01097e+06
2.98409e+07
-3.28273e+07
1.75386e+06
2.16117e+06
-2.42575e+07
2.26298e+07
-2.61397e+07
-325580
-2.28615e+07
4.70208e+06
-3.39186e+06
-2.97679e+06
-1.01612e+07
1.61969e+07
-2.24342e+07
-957107
2.97214e+06
2.01109e+07
2.88922e+07
1.07871e+06
-3.1282e+07
1.00133e+06
-86683.6
-2.03462e+07
-250696
1.96026e+07
-948341
-1.94173e+07
1.68663e+07
-2.36905e+07
260014
-2.5668e+06
-1.70853e+07
2.58068e+06
-1.55447e+07
971768
1.342e+07
1.81168e+07
469804
-1.85002e+07
-2.54654e+06
-1.46741e+07
1.43053e+07
-590516
3.01615e+06
-2.01531e+07
1.75279e+07
-1.66068e+07
1.6441e+06
-784563
1.48492e+06
-1.60582e+07
1.69446e+07
-1.7159e+07
-1.79679e+07
38287.2
-1.84169e+07
-3.70974e+06
-2.1096e+07
2.23843e+07
-2.21953e+07
1.68959e+06
-2.05841e+07
-1.93171e+07
1.71356e+06
-2.13916e+07
2.62502e+06
-3.41403e+06
-1.78718e+07
-4.51906e+06
-1.32908e+07
-2.05732e+07
-774570
2.33083e+07
-1.18362e+06
-2.12089e+07
2.10334e+07
-2.06721e+06
-1.65061e+07
-683585
2.09968e+07
151628
1.2645e+06
2.52559e+07
3.32224e+06
-2.30538e+07
3.74004e+06
-1.99638e+06
6.14982e+06
-404030
2.40272e+07
2.46978e+07
615856
2.18138e+06
-1.05138e+09
2.28808e+09
-1.23594e+09
-1.05702e+09
-1.1328e+09
2.18728e+09
1.94917e+09
-1.05657e+09
-8.93208e+08
2.22838e+07
-9.12277e+08
1.89444e+09
-1.00317e+09
-1.12423e+09
-1.91164e+09
1.98473e+09
-2.18418e+09
-8.74185e+08
-1.01836e+09
-1.11036e+09
-1.28795e+09
-1.14934e+09
2.43605e+09
-1.32785e+09
3.36279e+09
-2.03749e+09
2.6438e+09
-9.73562e+08
-1.67347e+09
1.05599e+07
-8.5617e+08
2.58556e+09
-1.73482e+09
-1.43961e+09
-2.34963e+09
2.49941e+09
-2.76872e+09
-1.33815e+09
-1.00332e+09
-1.46287e+09
-1.12068e+09
1.94517e+09
-8.33987e+08
-8.076e+08
2.27718e+09
-1.48195e+09
2.07373e+09
-1.34122e+09
-7.4332e+08
-1.2692e+07
1.83274e+09
-1.27185e+09
-5.5182e+08
-1.27139e+09
-1.95123e+09
2.09519e+09
-2.08509e+09
-1.16103e+09
-8.05629e+08
-1.17365e+09
-1.03091e+09
-3.20065e+07
1.91028e+09
-8.54746e+08
-6.97516e+08
-4.42617e+07
2.36119e+09
-1.62733e+09
1.91465e+09
-6.05094e+07
-1.32331e+09
-5.44916e+08
-9.34803e+07
1.83203e+09
-1.33718e+09
-4.06474e+08
-1.24258e+09
-1.76785e+09
1.96473e+09
-1.89909e+09
-4.92023e+07
-1.24408e+09
-6.24227e+08
-1.22939e+09
-1.9859e+09
-1.28625e+09
2.13244e+09
2.01887e+09
-1.17887e+09
-1.90946e+09
-1.0964e+09
-1.78887e+09
1.9654e+09
1.09422e+09
-1.21068e+09
-2.04054e+09
2.15109e+09
-9.36805e+08
-1.50804e+07
-1.03663e+09
-2.83634e+07
-8.55274e+08
1.93097e+09
-1.98102e+09
-2.43831e+09
2.47946e+07
-2.09504e+09
1.37858e+09
-2.35926e+09
9.44869e+08
-2.13385e+09
-1.3194e+09
-2.16095e+09
-2.30109e+09
-1.21673e+09
-2.14154e+09
6.0304e+06
-1.01552e+09
-9.0565e+08
-1.01287e+09
-8.11645e+08
-7.81386e+08
-1.30505e+09
1.86795e+09
-1.20257e+09
-7.27506e+08
1.89348e+09
-1.11008e+09
-7.80564e+08
-1.101e+09
1.93159e+09
-1.17693e+09
-1.20498e+09
1.84892e+09
-1.22032e+09
-2.04787e+09
-1.35323e+09
1.24587e+09
-1.32942e+09
-1.02883e+07
8.98933e+08
6.61316e+08
3.192e+06
-1.38338e+09
-1.31307e+09
1.22636e+09
8.58784e+08
1.04573e+09
-1.1901e+09
9.34318e+08
8.59152e+08
-1.71294e+09
1.63448e+09
-6.8845e+08
-1.36442e+09
1.23114e+09
8.10163e+08
-1.92096e+09
-1.12267e+08
7.15928e+08
-2.01007e+08
-2.13534e+09
1.32098e+09
-1.48115e+09
-1.14854e+09
9.1933e+08
1.12181e+09
7.69923e+08
1.37045e+09
-1.19489e+09
1.12578e+09
1.31157e+09
-1.70162e+09
-8.84736e+08
8.14146e+08
1.33664e+09
-1.27783e+09
-1.79692e+09
-3.75999e+08
1.02682e+09
-2.46284e+08
-2.43374e+09
1.16344e+09
-1.55735e+09
-1.8709e+09
8.89683e+08
1.22702e+09
1.04587e+09
1.1414e+09
-1.9935e+09
1.14819e+09
5.93271e+08
-2.17668e+09
-1.63459e+08
1.27213e+09
1.07966e+09
-2.20559e+09
-2.03003e+09
-8.72798e+08
1.03262e+09
-1.02341e+09
-2.18558e+09
1.14867e+09
-2.06106e+09
-1.41369e+09
-7.36465e+08
1.14323e+09
9.93037e+08
9.59527e+08
-9.25967e+08
1.38897e+09
-1.42406e+09
1.47384e+09
-6.48215e+08
1.09164e+09
-1.91597e+09
-1.04474e+09
1.2406e+09
1.32615e+09
-1.52686e+09
-2.25143e+09
-2.29794e+08
1.05913e+09
-4.04415e+08
-8.88086e+08
-2.63268e+09
1.3463e+09
-1.56216e+09
-2.03518e+08
-1.85671e+09
8.70016e+08
9.83063e+08
-2.33311e+09
-3.6146e+08
-2.02805e+09
-2.3783e+08
8.95232e+08
1.30982e+09
-1.98062e+09
-3.33401e+08
9.91184e+08
1.20034e+09
8.45221e+08
-2.26311e+09
7.01276e+08
1.02653e+09
1.12325e+09
-3.00572e+08
-2.18044e+08
-7.70728e+08
-3.97121e+08
2.36208e+09
-4.9198e+08
-1.44171e+09
-3.64806e+08
-1.46508e+09
-1.01833e+09
-1.07194e+09
-1.71133e+09
-4.21353e+08
5.64316e+08
-2.31407e+09
1.37349e+09
-2.23698e+09
1.27157e+09
1.19597e+09
-2.46157e+09
5.98645e+08
-2.45444e+09
1.21826e+09
9.43825e+08
-1.80512e+09
1.41258e+09
-1.5952e+09
1.28732e+09
-2.50361e+09
-1.78975e+09
7.11594e+08
-1.89318e+09
-1.32569e+09
-1.54014e+09
2.45249e+09
-1.80347e+09
5.42577e+08
-1.30223e+09
-1.24521e+09
7.29943e+08
-1.84978e+09
-1.34384e+08
9.30803e+07
1.41585e+07
-1.14544e+08
7.45743e+07
3.57334e+07
-1.16564e+08
8.02656e+07
8.29353e+07
-1.13332e+08
-3.14056e+07
-1.40628e+08
-1.17194e+08
9.96859e+07
-5.80036e+07
-1.39752e+08
-1.06578e+08
-182936
4.60327e+07
-4.96991e+06
1.61485e+07
-1.06738e+08
8.83091e+07
-9.55199e+06
2.40978e+07
-1.03404e+08
2.47289e+07
-4.36637e+06
-9.29844e+07
-6.71443e+07
-1.18673e+08
-1.11256e+08
3.87512e+07
-8.46045e+07
-9.70828e+06
-1.07867e+08
-1.18785e+08
6.30661e+07
5.56712e+07
-1.47486e+07
9.93054e+07
2.76224e+07
-1.12352e+08
9.96783e+07
2.99683e+07
-1.30256e+08
4.11947e+07
6.49509e+07
-1.06158e+08
-8.19386e+07
-1.2818e+08
9.05571e+07
-1.39427e+08
4.23994e+07
-8.72768e+07
-1.27146e+08
-9.00761e+07
6.08204e+07
2.54323e+06
3.34937e+07
-9.1756e+07
5.08269e+07
5.00618e+07
-1.01464e+08
4.44149e+07
-8.2686e+07
-3.12154e+07
-8.74562e+07
-8.55306e+07
5.6394e+07
-4.33789e+07
-7.82753e+07
-1.10044e+08
-5.91346e+07
6.09887e+07
-6.37514e+07
-1.15139e+08
-3.95426e+07
-1.08458e+08
9.15838e+07
-5.18145e+07
-9.63353e+07
3.45344e+06
-5.12483e+07
-6.27812e+07
-7.53556e+07
5.45162e+06
-1.09487e+08
-1.30222e+08
7.01808e+07
4.4205e+07
-1.00701e+08
7.52127e+07
-1.27641e+08
4.22742e+07
-171073
-1.38033e+08
7.4031e+07
-1.26318e+08
-6.76301e+07
-9.24701e+07
-1.08092e+08
4.01361e+07
-1.2564e+08
-6.10652e+07
-5.42286e+07
-4.76687e+07
237136
-6.31681e+07
1.1473e+08
-6.46356e+07
4.3904e+07
-1.05039e+08
-1.13305e+08
5.66735e+07
-4.71147e+07
-1.29209e+08
9.85736e+07
-9.82083e+07
-7.32383e+07
-9.10852e+07
8.6609e+07
-1.15017e+08
-4.69008e+07
8.16498e+06
4.53365e+06
-3.09123e+07
-9.97531e+07
9.18809e+07
-4.68115e+07
-4.50149e+07
-4.40755e+07
9.74585e+07
-5.37187e+07
-5.07272e+07
1.00414e+08
-4.9716e+07
1.42617e+07
1.14592e+08
-5.97432e+07
-6.9412e+07
9.36694e+07
4.37965e+07
-4.58911e+07
4.9509e+07
1.00835e+08
-4.30341e+07
9.95221e+07
1.12122e+08
-5.10037e+07
-6.11105e+07
-7.48121e+07
-6.1732e+07
1.36093e+08
-6.65024e+07
-5.95985e+07
1.25209e+08
1.75734e+07
-5.2478e+07
-6.36112e+07
9.90931e+07
1.26663e+08
5.03755e+07
-6.50069e+07
5.17046e+07
1.321e+08
-6.45683e+07
1.17015e+08
1.15344e+08
-6.11469e+07
-5.43873e+07
-5.60677e+07
-7.24349e+07
1.27259e+08
-7.94749e+07
-5.12211e+07
1.29228e+08
1.62496e+07
-9.52587e+07
-5.18453e+07
1.29443e+08
1.25431e+08
6.24554e+07
-7.30306e+07
6.90313e+07
1.32147e+08
-5.45163e+07
1.21275e+08
1.16183e+08
2.84988e+07
-5.64522e+07
-8.83636e+07
-5.88793e+07
2.80487e+07
-8.00853e+07
1.10356e+08
-9.95145e+07
2.6563e+07
-4.17023e+07
1.13242e+08
4.53735e+07
-6.03995e+07
-8.84629e+07
1.03509e+08
1.47158e+08
5.20063e+07
-8.32516e+07
6.07883e+07
2.72719e+07
1.44172e+08
-4.74611e+07
1.05161e+08
4.54913e+07
1.0434e+08
-5.24721e+07
-6.17623e+07
1.06464e+08
5.57546e+07
1.29096e+08
5.47086e+07
-6.94786e+07
-1.14864e+08
1.36645e+08
4.81955e+07
-6.97506e+07
-5.25908e+07
-1.70622e+07
1.15038e+08
-1.4846e+07
-5.44496e+07
-7.76721e+07
5.97113e+07
5.33302e+07
2.29083e+07
6.12895e+07
-1.22659e+08
6.26629e+07
4.94316e+07
5.69731e+07
1.11176e+08
5.71214e+07
6.94642e+07
1.06452e+08
5.3139e+07
-1.63484e+07
1.19897e+08
-4.80306e+07
1.27382e+08
-4.44702e+07
-4.98261e+07
1.25844e+08
-5.9224e+07
1.33979e+08
-4.95277e+07
-7.81214e+07
1.16989e+08
-5.58222e+07
1.08674e+08
-8.61195e+07
1.43471e+08
1.15619e+08
-7.14058e+07
1.09733e+08
8.29665e+07
1.03698e+08
-1.31623e+08
1.21006e+08
-1.84344e+07
6.07467e+07
5.31075e+07
-1.77952e+07
1.181e+08
1.04327e+10
-2.73855e+10
-2.28946e+10
4.01968e+10
5.68742e+10
8.33966e+09
-1.47357e+10
-5.14407e+10
-8.40332e+09
-7.55453e+08
-1.36029e+10
2.2497e+10
-2.83629e+10
-2.20156e+09
-1.71737e+10
4.74139e+10
-2.37974e+10
3.32195e+09
3.11579e+10
5.6276e+10
-2.33217e+10
-4.34619e+10
1.84117e+10
4.38439e+09
1.30594e+10
4.11639e+10
6.49648e+09
-6.12334e+10
1.58519e+10
1.97054e+10
-3.56568e+10
-3.0208e+10
2.13547e+10
8.77177e+09
-7.03723e+08
3.32431e+10
-3.26155e+10
1.77317e+10
3.48995e+10