/*--------------------------------*- C++ -*----------------------------------*\
| =========                 |                                                 |
| \\      /  F ield         | OpenFOAM: The Open Source CFD Toolbox           |
|  \\    /   O peration     | Version:  2506                                  |
|   \\  /    A nd           | Website:  www.openfoam.com                      |
|    \\/     M anipulation  |                                                 |
\*---------------------------------------------------------------------------*/
FoamFile
{
    version     2.0;
    format      ascii;
    arch        "LSB;label=32;scalar=64";
    class       surfaceScalarField;
    location    "100";
    object      phi;
}
// * * * * * * * * * * * * * * * * * * * * * * * * * * * * * * * * * * * * * //

dimensions      [0 3 -1 0 0 0 0];

oriented        oriented;

internalField   nonuniform List<scalar> 
95136
(
6.58922e-06
-6.31838e-06
-1.82901e-06
1.55811e-06
-6.19565e-06
6.31255e-06
-1.78028e-06
1.66339e-06
1.65953e-06
6.67029e-06
-6.55705e-06
-1.77286e-06
-2.04232e-06
6.24536e-06
-5.86046e-06
1.65753e-06
4.57782e-06
3.75798e-07
1.63557e-06
4.25275e-07
-2.04311e-06
4.63886e-06
-6.30544e-06
6.72361e-06
5.77111e-06
-5.8142e-06
-1.63484e-06
1.67799e-06
-5.3988e-06
5.40718e-06
-1.67485e-06
1.66646e-06
1.69756e-06
-6.16155e-06
6.40938e-06
-1.94535e-06
-2.14747e-06
-6.11026e-06
6.59689e-06
1.66079e-06
3.78928e-06
3.78669e-07
1.60316e-06
3.87619e-07
-1.99714e-06
4.31437e-06
-6.08311e-06
6.39956e-06
5.13337e-06
1.42955e-06
-4.81403e-06
-1.74914e-06
-5.1479e-06
1.46488e-06
5.56678e-06
-1.88381e-06
1.14104e-06
-4.03786e-06
4.10633e-06
-1.20946e-06
-1.20993e-06
1.08967e-06
-3.94283e-06
4.06317e-06
3.58256e-06
1.73687e-07
1.37713e-06
1.29083e-07
-1.69445e-06
2.90384e-06
-3.93985e-06
4.17399e-06
4.34766e-06
-1.38398e-06
-4.28134e-06
1.31764e-06
-4.55407e-06
-1.71817e-06
4.92081e-06
1.35139e-06
1.07976e-06
-1.1774e-06
-3.89714e-06
3.99483e-06
-1.116e-06
-3.91976e-06
3.98272e-06
1.05307e-06
3.10712e-06
2.37888e-08
1.21675e-06
4.06542e-08
-1.48762e-06
2.78626e-06
-3.87839e-06
3.9067e-06
4.32736e-07
4.25444e-06
1.62537e-06
1.64126e-06
4.5691e-06
4.59895e-07
4.30266e-06
2.28055e-07
1.71467e-06
-6.53199e-06
4.40218e-06
4.41654e-07
1.68808e-06
-6.27417e-06
2.20127e-06
4.50558e-06
2.09071e-06
-6.02496e-06
1.69425e-06
3.68405e-07
4.32616e-07
-1.99237e-06
-2.18585e-06
4.77758e-07
-4.49034e-06
4.82707e-07
-2.15391e-06
6.28137e-06
4.3183e-07
-2.1441e-06
6.61556e-06
-1.67733e-06
-1.6534e-06
6.59195e-06
-1.98787e-06
4.48211e-07
1.64056e-06
4.04865e-06
-5.22914e-06
3.73204e-06
-4.88793e-06
-5.28517e-06
4.00847e-06
-1.27871e-07
2.81147e-06
-3.86092e-06
1.35914e-06
4.87141e-06
-4.58998e-06
5.45949e-06
1.31329e-06
3.43022e-06
5.91004e-06
-1.52972e-07
4.05413e-06
-1.42271e-06
5.90893e-06
-4.17978e-06
6.12738e-06
1.71313e-06
5.57404e-06
4.99039e-06
1.84247e-06
5.41016e-06
7.00894e-06
-6.19357e-06
1.32145e-06
-2.13681e-06
-6.47552e-06
6.89459e-06
1.54702e-06
-1.96608e-06
-1.78825e-06
5.72672e-06
-5.09321e-06
1.15471e-06
1.20829e-06
5.4823e-06
-4.96547e-06
-1.72528e-06
8.39477e-06
6.00059e-07
-1.98589e-06
7.14194e-07
1.20505e-06
7.51945e-06
-5.71112e-06
6.44543e-06
6.60432e-06
-6.32977e-06
1.58023e-06
-1.85471e-06
-6.07474e-06
1.40931e-06
-1.65302e-06
-1.92676e-06
-5.80977e-06
1.17941e-06
1.42986e-06
-5.61243e-06
-1.6778e-06
7.99813e-06
4.03012e-07
-1.79685e-06
4.72444e-07
1.45097e-06
7.75975e-06
-5.92686e-06
4.64434e-06
-1.31849e-06
-4.49798e-06
1.17208e-06
-4.5586e-06
-1.36309e-06
1.10754e-06
-1.05803e-06
-3.96182e-06
9.81999e-07
9.54754e-07
-1.07875e-06
-3.81883e-06
5.80924e-06
1.54809e-07
-1.31982e-06
8.6175e-08
1.16453e-06
4.91171e-06
-3.80196e-06
4.24571e-06
1.05345e-06
-4.09342e-06
-1.20578e-06
-4.19866e-06
1.16738e-06
-1.25005e-06
-1.07412e-06
9.31803e-07
-3.75481e-06
9.8887e-07
-3.7869e-06
-1.12172e-06
5.39717e-06
8.41121e-08
-1.2356e-06
5.62556e-08
1.14226e-06
4.89626e-06
-3.82321e-06
4.56565e-07
8.3648e-06
-1.92674e-06
-1.80352e-06
7.23058e-06
2.99597e-07
6.84994e-06
3.02935e-07
-1.6707e-06
-5.66229e-06
7.18669e-06
1.41273e-07
-1.66556e-06
-5.96006e-06
-1.31271e-06
7.72948e-06
-1.31816e-06
-5.26735e-06
-1.70773e-06
2.6443e-07
5.00904e-07
1.53413e-06
1.29151e-06
2.82766e-07
-7.38171e-06
2.97884e-07
1.27408e-06
5.54547e-06
4.1643e-07
1.26867e-06
6.48926e-06
1.74116e-06
1.85391e-06
6.03423e-06
1.25241e-06
5.06443e-07
-1.06136e-06
5.76824e-06
-4.40706e-06
5.80163e-06
-4.4454e-06
-4.56155e-06
5.8703e-06
-1.50643e-07
4.76066e-06
-3.67819e-06
-1.34175e-06
4.59061e-06
-4.31039e-06
4.7243e-06
-1.30502e-06
5.74499e-06
4.86626e-06
-1.7901e-07
1.26514e-06
-6.29416e-06
-1.14748e-06
4.69405e-06
4.4185e-06
-1.09367e-06
6.31084e-06
-6.0711e-06
-1.79316e-06
1.55343e-06
-6.04062e-06
6.27708e-06
-1.8634e-06
1.62687e-06
1.56617e-06
6.58991e-06
-6.05885e-06
-2.09727e-06
-1.96808e-06
6.0745e-06
-5.60035e-06
1.49402e-06
4.40639e-06
3.50104e-07
1.55431e-06
4.0861e-07
-2.04286e-06
4.47307e-06
-6.09105e-06
6.44786e-06
5.70403e-06
-5.77327e-06
-1.56884e-06
1.63803e-06
-5.23396e-06
5.28113e-06
-1.62717e-06
1.57993e-06
1.70891e-06
-6.25212e-06
6.63107e-06
-2.08791e-06
-2.06183e-06
-5.86496e-06
6.34628e-06
1.58043e-06
3.77318e-06
3.67865e-07
1.56295e-06
3.73676e-07
-1.83447e-06
4.32902e-06
-6.02307e-06
6.41159e-06
5.3189e-06
1.42227e-06
-4.82131e-06
-1.91994e-06
-5.24054e-06
1.53924e-06
5.81864e-06
-2.11728e-06
1.24095e-06
-4.47479e-06
4.62209e-06
-1.38824e-06
-1.41787e-06
1.14578e-06
-4.12841e-06
4.40062e-06
3.65276e-06
2.688e-07
1.39736e-06
2.23573e-07
-1.81135e-06
3.41118e-06
-4.56029e-06
4.87576e-06
4.79878e-06
-1.62842e-06
-4.40429e-06
1.23393e-06
-4.95829e-06
-1.83719e-06
5.41936e-06
1.37613e-06
1.12427e-06
-1.29599e-06
-3.97937e-06
4.15117e-06
-1.22988e-06
-3.85984e-06
4.02586e-06
1.06391e-06
3.41655e-06
1.01951e-07
1.2803e-06
1.43273e-07
-1.68502e-06
3.1408e-06
-4.26867e-06
4.40838e-06
4.23054e-07
4.21692e-06
1.6371e-06
1.62097e-06
4.45252e-06
5.16441e-07
4.17143e-06
3.43476e-07
1.55961e-06
-6.26802e-06
4.23263e-06
4.55937e-07
1.5794e-06
-6.04848e-06
2.08912e-06
4.3824e-06
2.02035e-06
-5.76816e-06
1.58928e-06
4.23625e-07
4.55293e-07
-2.01165e-06
-2.12943e-06
4.97092e-07
-4.53976e-06
5.62152e-07
-2.27455e-06
6.14278e-06
5.38995e-07
-2.22929e-06
6.4796e-06
-1.64197e-06
-1.67291e-06
6.74725e-06
-2.24647e-06
5.34585e-07
1.87553e-06
4.18632e-06
-5.5455e-06
4.08665e-06
-5.37154e-06
-5.50687e-06
4.1255e-06
-2.0167e-07
3.15418e-06
-4.24845e-06
1.37268e-06
4.77121e-06
-4.26858e-06
5.8829e-06
1.309e-06
3.26052e-06
6.1476e-06
-1.98115e-07
4.49811e-06
-1.42789e-06
6.05049e-06
-4.29143e-06
6.39285e-06
1.81317e-06
5.73181e-06
4.87557e-06
1.97496e-06
5.42265e-06
-5.67428e-06
1.33404e-06
-1.73085e-06
-1.82275e-06
-5.37635e-06
1.1402e-06
6.26918e-06
-6.12426e-06
1.75534e-06
-1.90032e-06
1.25928e-06
-5.10315e-06
-1.75638e-06
-4.53063e-06
-7.2347e-06
-7.79224e-06
1.43881e-06
-4.22899e-06
-1.74645e-06
-5.75211e-06
-4.41164e-06
-1.44655e-06
1.03677e-06
-1.29765e-06
-4.21717e-06
1.04004e-06
4.94871e-06
-1.568e-06
-4.59298e-06
1.21227e-06
9.60544e-07
-1.15695e-06
-3.93197e-06
-3.38501e-06
-5.58701e-06
-6.01768e-06
1.33503e-06
-3.39031e-06
-1.23618e-06
-4.45928e-06
-6.49803e-06
6.91628e-06
1.65377e-06
-2.07209e-06
-1.8961e-06
5.90477e-06
-5.33109e-06
1.32244e-06
6.93596e-06
-6.16422e-06
1.32267e-06
-2.09443e-06
1.23592e-06
4.9114e-06
-4.54423e-06
-1.60317e-06
-5.01189e-06
-7.64305e-06
6.15685e-06
-8.17087e-06
1.26286e-06
-4.43077e-06
-1.97636e-06
-5.6657e-06
-4.17797e-06
1.19061e-06
-1.41693e-06
-1.15355e-06
9.80063e-07
-3.80584e-06
4.35609e-06
1.12402e-06
-4.22532e-06
-1.25484e-06
1.05626e-06
-3.80681e-06
-1.10928e-06
-3.01185e-06
-5.43483e-06
-5.15759e-06
9.92148e-07
-3.12326e-06
-1.25532e-06
-3.92476e-06
-6.83745e-06
-4.08463e-06
6.38479e-06
-4.83694e-06
-7.67225e-06
-3.73797e-06
-6.7367e-06
4.0213e-06
-2.9889e-06
-5.28085e-06
-1.71909e-06
-1.04648e-06
-4.07193e-06
-1.08642e-06
-1.29377e-06
-6.11817e-06
-6.66014e-06
1.1288e-06
8.80848e-07
-5.02669e-06
4.10764e-06
-7.10932e-06
1.43372e-06
1.92233e-06
-8.07835e-06
1.31905e-06
-4.53459e-06
-6.19767e-06
-4.88995e-06
-5.65962e-06
1.38424e-06
-6.44196e-06
-1.37071e-06
-4.43176e-06
-1.86979e-06
-3.83884e-06
-1.70724e-06
-1.2984e-06
-3.00238e-06
6.45325e-06
-3.61303e-06
-1.71631e-06
5.41208e-06
-5.02743e-06
-1.75542e-06
-4.54496e-06
4.85121e-06
-3.42544e-06
-5.59386e-06
5.63173e-06
-4.33348e-06
-4.17027e-06
-3.85878e-06
3.87382e-06
-5.07838e-06
-9.68689e-07
1.53167e-06
1.2376e-06
-1.03647e-06
-3.96916e-06
-3.40378e-06
2.55111e-06
-2.35556e-07
1.08828e-06
2.8357e-06
-4.52552e-06
-7.89349e-07
2.47907e-06
2.39987e-06
-4.95865e-06
3.5914e-06
-1.03257e-06
-1.28111e-06
-4.57548e-06
3.47633e-06
2.38025e-06
-4.54599e-06
-1.13857e-06
2.28075e-06
-1.21912e-06
-4.91154e-07
-6.27442e-06
3.85486e-06
-5.09363e-06
-4.69294e-06
3.34671e-06
-1.0669e-06
2.41304e-06
3.5812e-06
-1.27292e-06
-4.5361e-06
2.2278e-06
2.51793e-06
3.90196e-06
-1.55286e-06
-4.86703e-06
-1.10735e-06
3.01257e-06
-3.62784e-06
1.72261e-06
-5.94748e-06
-1.08497e-06
2.33948e-06
-1.24817e-06
-1.11811e-06
-5.85915e-06
3.66683e-06
-4.58937e-06
-5.12968e-06
2.50699e-06
3.94023e-06
-1.3175e-06
4.06047e-06
2.69387e-06
-1.70477e-06
-5.04957e-06
2.45984e-06
4.171e-06
-1.44372e-06
-5.18719e-06
-1.33795e-06
2.09997e-06
3.5313e-06
-4.29334e-06
-6.78747e-06
-1.09274e-06
2.75052e-06
-1.19517e-06
-1.53185e-06
-6.51643e-06
4.08569e-06
-5.25182e-06
-3.59187e-06
-1.10896e-06
2.81611e-06
1.88467e-06
2.52484e-06
-8.47697e-07
-3.13785e-06
1.46077e-06
1.51811e-06
-9.17717e-07
2.59395e-06
-3.1943e-06
-6.41204e-07
1.95158e-06
-2.65539e-06
1.34504e-06
-4.459e-06
-7.86973e-07
1.65417e-06
-8.59317e-07
-1.07483e-06
-3.97195e-06
2.54387e-06
-3.31311e-06
-1.27284e-06
-5.7004e-06
2.44766e-06
2.62287e-06
-6.38762e-06
-1.19389e-06
-5.82689e-06
-1.04243e-06
2.29385e-06
4.25491e-06
-5.3401e-06
-9.1909e-07
2.00432e-06
3.86194e-06
1.30356e-06
-6.43827e-06
1.39118e-06
3.38372e-06
2.17475e-06
-1.052e-06
-1.32234e-06
-1.03134e-06
-1.31945e-06
-1.00808e-06
6.7586e-06
-1.23933e-06
-1.61737e-06
-3.88665e-06
-1.25208e-06
-1.24892e-06
-5.11433e-06
-2.64632e-06
-2.76698e-06
-5.13296e-06
-1.40005e-06
-1.14134e-06
1.3669e-06
-6.45683e-06
3.89608e-06
-5.41445e-06
3.26302e-06
3.06308e-06
-4.82988e-06
9.56961e-07
-5.39236e-06
3.51761e-06
2.27357e-06
-4.36831e-06
3.46165e-06
-4.19288e-06
2.20462e-06
-5.61593e-06
-5.20188e-06
9.77317e-07
-4.26971e-06
-2.00027e-06
-3.83761e-06
6.30871e-06
-4.85417e-06
1.46073e-06
-3.91207e-06
-3.17786e-06
1.2553e-06
-3.92279e-06
-2.22233e-06
5.76085e-07
4.19742e-06
5.01244e-06
-2.13446e-06
7.13486e-07
-3.44873e-06
-2.02989e-06
6.7527e-07
4.80328e-06
5.84406e-07
-1.89352e-06
4.78546e-06
-1.49454e-06
3.12708e-06
2.80412e-06
7.13755e-07
-1.33979e-06
5.05126e-06
-1.98442e-06
-2.1217e-06
5.28496e-06
7.77028e-07
5.44565e-06
7.54002e-07
-2.02859e-06
-3.96038e-06
5.42621e-06
7.03609e-07
-2.16937e-06
5.52552e-07
5.00283e-06
-2.02415e-06
-1.40419e-06
3.3682e-06
3.28803e-06
7.5345e-07
-1.36589e-06
5.28667e-06
-2.03823e-06
-1.98307e-06
-3.58566e-06
6.36526e-07
4.93217e-06
5.36505e-06
-3.96321e-06
6.91789e-07
-2.09371e-06
-3.93753e-06
7.19776e-07
5.1525e-06
-1.93477e-06
5.6616e-07
-3.58384e-06
5.11531e-06
-2.09768e-06
-1.42705e-06
3.0782e-06
-3.63423e-06
3.23502e-06
7.02981e-07
-1.42978e-06
5.07413e-06
-2.13229e-06
-1.58401e-06
4.68463e-07
3.93161e-06
3.94031e-06
4.64885e-07
-1.81125e-06
-2.63876e-06
4.58222e-07
3.84016e-06
-1.65971e-06
4.70869e-07
2.67593e-06
-1.19522e-06
-1.20155e-06
2.16141e-06
2.28909e-06
4.49642e-07
-1.19744e-06
3.82966e-06
-1.54716e-06
3.19119e-06
-1.42957e-06
-3.68475e-06
-1.39989e-06
3.0547e-06
-1.39921e-06
2.76865e-06
1.94368e-06
-1.4695e-06
3.04337e-06
5.14838e-06
-5.88518e-07
-1.36872e-06
-5.20794e-07
4.81671e-06
2.8967e-06
3.0958e-06
7.59587e-07
4.81271e-07
3.05205e-06
1.41784e-06
3.2909e-06
7.17468e-07
-5.04054e-06
2.96664e-06
6.73975e-07
-1.9906e-06
3.71768e-06
3.77735e-06
-2.03004e-06
7.07179e-07
3.16515e-06
-5.437e-07
-1.36837e-06
4.96676e-06
-1.34046e-06
4.57754e-06
4.98068e-06
-1.47243e-06
-3.06764e-06
-1.59037e-06
5.11622e-06
-3.46832e-06
-2.05808e-06
4.98268e-06
-1.91208e-06
-3.51825e-06
-1.60746e-06
-1.98738e-06
-3.13124e-06
-2.04297e-06
3.47765e-06
-1.89802e-06
1.41637e-06
-2.08867e-06
-4.98387e-07
-5.12321e-06
-5.23708e-06
-5.41686e-07
-2.30112e-06
1.59983e-06
-3.2919e-06
-6.28064e-07
2.32015e-06
2.4727e-06
1.52241e-06
-3.2928e-06
-7.02289e-07
-3.67406e-06
2.05138e-06
-1.22138e-06
2.84407e-06
-5.05968e-07
1.49908e-06
-3.18063e-06
2.18759e-06
9.83647e-07
3.83406e-06
-3.21785e-06
4.46887e-06
-1.0125e-06
9.42223e-07
2.38588e-06
1.73703e-06
1.4473e-06
2.39216e-06
-3.20307e-06
-6.36378e-07
2.23905e-06
-3.08697e-06
-4.93555e-07
1.34149e-06
-3.22516e-06
2.45082e-06
-7.19965e-07
1.49429e-06
-5.27596e-07
2.19041e-06
-3.04243e-06
1.37963e-06
8.57779e-07
3.66198e-06
-3.07245e-06
3.78218e-06
-6.85349e-07
8.65123e-07
2.26927e-06
1.42215e-06
2.45789e-06
-4.00321e-06
-1.56014e-06
3.10547e-06
2.94402e-06
-3.68743e-06
-1.35075e-06
2.09416e-06
-4.12115e-06
-1.62549e-06
3.16049e-06
2.58616e-06
-1.27121e-06
-3.49116e-06
2.66584e-06
2.0965e-06
9.70912e-07
5.14595e-06
-3.65896e-06
5.41601e-06
-1.50107e-06
1.03094e-06
2.84381e-06
2.3258e-06
1.43897e-06
-4.78696e-07
-3.04955e-06
2.08932e-06
2.16069e-06
-5.10962e-07
-3.00803e-06
1.35831e-06
-3.13689e-06
-7.32054e-07
2.33162e-06
1.53737e-06
-4.88022e-07
-3.01216e-06
2.10293e-06
1.39728e-06
8.79506e-07
3.58641e-06
-3.02692e-06
3.58862e-06
-5.48401e-07
9.09116e-07
2.1893e-06
1.36087e-06
3.79126e-06
9.0394e-07
-3.1728e-06
-3.38989e-06
9.7654e-07
4.46474e-06
9.73081e-07
3.64651e-06
-3.1205e-06
-1.40805e-06
8.62033e-07
3.56891e-06
-3.02288e-06
2.32346e-06
5.45501e-07
9.22311e-07
6.70593e-07
2.20236e-06
-3.06491e-06
3.84603e-06
4.1246e-06
-8.2851e-07
-5.82232e-07
3.63469e-06
-8.76946e-07
4.45429e-06
-1.12654e-06
-2.67299e-06
5.01247e-06
-1.36292e-06
1.58844e-06
3.45848e-06
3.27547e-06
1.65519e-06
-8.69712e-07
4.05373e-06
9.23597e-07
9.61536e-07
2.57961e-06
9.34912e-07
2.23291e-06
2.20237e-06
8.55576e-07
-3.96865e-06
9.1745e-07
2.31909e-06
-3.29824e-06
1.74526e-06
2.47657e-06
1.4827e-06
-3.13667e-06
9.13286e-07
1.9708e-06
-4.03855e-06
1.46479e-06
3.05568e-06
1.43462e-06
-8.96828e-07
1.6637e-06
8.52356e-07
-2.54052e-06
-2.27291e-06
6.16385e-07
1.39915e-06
-4.43157e-06
3.84625e-06
-1.6489e-06
2.23422e-06
2.21425e-06
-4.09591e-06
3.58124e-06
-1.69957e-06
3.64956e-06
-4.07744e-06
-1.44065e-06
1.86854e-06
-1.25959e-06
-3.517e-06
3.17489e-06
1.60172e-06
-5.96451e-06
-2.10764e-06
3.64059e-06
-2.10602e-06
-1.64425e-06
-5.29393e-06
1.9267e-06
-3.75039e-06
-3.66859e-06
1.9019e-06
3.05313e-06
-1.28643e-06
1.54481e-06
2.49753e-06
-3.29242e-06
-7.49894e-07
2.55861e-06
1.48515e-06
-3.19252e-06
-8.51175e-07
-6.20489e-07
1.31282e-06
2.40869e-06
-3.10101e-06
-4.54018e-06
-1.87777e-06
2.74936e-06
-1.92763e-06
-1.06772e-06
-3.80045e-06
1.30221e-06
-3.16947e-06
-3.40853e-06
2.80166e-06
-9.30803e-07
1.53769e-06
1.39262e-06
2.44634e-06
-3.13912e-06
-6.99831e-07
2.29859e-06
-2.9961e-06
-5.48413e-07
1.24594e-06
-4.8077e-07
2.27797e-06
-2.95563e-06
1.15844e-06
-4.13806e-06
-1.82094e-06
2.55047e-06
-1.90955e-06
-8.35884e-07
-3.34812e-06
1.04644e-06
-2.95908e-06
-2.98973e-06
-5.81778e-07
2.3344e-06
1.23711e-06
1.22077e-06
-5.28575e-07
2.28133e-06
-2.97352e-06
2.24748e-06
-4.98047e-07
-2.91334e-06
1.16392e-06
-4.76131e-07
2.22036e-06
-2.90427e-06
1.16005e-06
-3.49305e-06
-1.76823e-06
2.27156e-06
-1.75764e-06
-5.14633e-07
-3.41494e-06
1.17058e-06
-2.9251e-06
-1.85064e-06
-5.37875e-06
3.13351e-06
3.13309e-06
-5.28411e-06
-1.92641e-06
-4.25132e-06
-1.836e-06
2.57031e-06
3.13443e-06
-3.72545e-06
-1.80296e-06
2.39398e-06
1.62541e-06
7.40331e-07
-4.21637e-06
1.0081e-06
1.43332e-06
2.44146e-06
-1.8099e-06
-1.94666e-06
-1.5302e-06
-6.27718e-07
-1.78491e-06
4.35448e-06
-1.88726e-06
-9.82077e-07
-1.85856e-06
-2.02555e-06
-1.4e-06
-3.30126e-06
-2.86176e-06
-2.62676e-06
-3.56615e-06
-1.15417e-06
-1.83843e-06
7.41577e-07
-3.91662e-06
1.24864e-06
-3.66781e-06
1.25004e-06
1.21152e-06
-3.54305e-06
1.71919e-06
-3.39122e-06
1.17398e-06
2.48473e-06
-3.1142e-06
1.37104e-06
-2.99298e-06
2.2961e-06
-3.6911e-06
-3.14051e-06
1.81697e-06
-2.93022e-06
-2.32348e-06
-3.00447e-06
3.60132e-06
-3.04222e-06
6.24891e-07
-1.21493e-06
-1.24924e-06
5.47966e-07
-3.02475e-06
5.45696e-06
-4.28902e-06
7.64483e-07
-1.93237e-06
-2.21255e-06
5.50024e-06
-4.12868e-06
8.41018e-07
-3.8649e-06
5.06025e-06
6.28103e-07
-1.82355e-06
4.79441e-07
4.92348e-06
-3.58159e-06
-1.8214e-06
6.17222e-06
3.37127e-06
-4.08651e-06
3.25629e-06
7.03349e-07
5.90256e-06
-2.05191e-06
5.29385e-06
5.50274e-06
-2.32795e-06
-3.85309e-06
6.78272e-07
-2.46622e-06
-3.3974e-06
7.32321e-07
5.13129e-06
-3.51032e-06
-2.0975e-06
6.30983e-07
4.97683e-06
4.71217e-07
-2.01904e-06
-3.49129e-06
5.03911e-06
6.15816e-06
3.01107e-06
-3.66643e-06
2.93923e-06
7.52714e-07
5.52606e-06
-2.04374e-06
4.95496e-06
4.74884e-06
-3.61413e-06
5.66274e-07
-1.70102e-06
-1.86858e-06
-3.4118e-06
6.06896e-07
4.67348e-06
-3.51776e-06
4.92928e-07
4.76424e-06
-1.73939e-06
5.52788e-07
-3.4261e-06
4.7407e-06
-1.86737e-06
5.31038e-06
2.99777e-06
-3.55934e-06
2.85039e-06
5.91416e-07
5.35479e-06
-1.8042e-06
4.68742e-06
3.7222e-06
4.84873e-07
-2.59807e-06
-1.60897e-06
-1.59977e-06
4.79502e-07
-2.63352e-06
3.7538e-06
-2.61674e-06
4.99445e-07
3.78886e-06
-1.67155e-06
4.89703e-07
-1.89095e-06
2.3584e-06
-9.57122e-07
4.14011e-06
2.07317e-06
-2.49104e-06
2.10033e-06
4.40022e-07
4.25085e-06
-1.68794e-06
3.73443e-06
3.18866e-06
6.24657e-06
-3.93508e-06
-3.71963e-06
5.62091e-06
3.15882e-06
5.37563e-06
2.92489e-06
-3.37698e-06
-4.90386e-06
5.43988e-06
2.89061e-06
-3.42647e-06
-2.038e-06
-4.50513e-07
5.67703e-06
-4.63777e-07
-1.90238e-06
-3.45195e-06
3.00947e-06
3.12322e-06
7.95368e-07
4.74013e-07
2.94681e-06
-5.60683e-06
2.81999e-06
6.89299e-07
2.00379e-06
3.00307e-06
6.14023e-07
5.09419e-06
3.706e-06
3.52446e-06
5.01101e-06
6.98752e-07
2.92863e-06
-5.39139e-07
5.60246e-06
-1.90453e-06
5.33231e-06
-1.92257e-06
-1.88083e-06
5.25089e-06
-2.89644e-06
5.28144e-06
-1.88551e-06
-3.57033e-06
5.06505e-06
-2.03387e-06
4.77144e-06
-3.33063e-06
5.49922e-06
4.99138e-06
-2.99805e-06
4.85338e-06
3.35382e-06
4.84385e-06
-5.35602e-06
4.76421e-06
-5.24673e-07
1.95671e-06
1.97648e-06
-4.70681e-07
4.8596e-06
4.03653e-06
-1.25171e-06
-5.36946e-06
2.58467e-06
-5.50369e-06
3.83275e-06
-8.21605e-07
2.49255e-06
2.63647e-06
3.93249e-06
-1.4967e-06
-5.07229e-06
-1.06999e-06
2.92107e-06
-3.80424e-06
1.95311e-06
2.84695e-06
-1.14919e-06
2.33876e-06
-1.33405e-06
-1.32269e-06
2.2043e-06
-4.4235e-06
3.5067e-06
3.67887e-06
-5.23425e-06
-9.79915e-07
2.53529e-06
-4.87654e-06
-3.56273e-07
1.83544e-06
2.64705e-06
-5.55433e-06
-9.45805e-07
-1.32586e-06
-4.67998e-06
2.51458e-06
2.53288e-06
-1.4611e-06
2.6071e-06
-1.42011e-06
-9.23539e-07
2.43949e-06
-5.22642e-06
4.11967e-06
2.86316e-06
-1.50915e-06
-5.47368e-06
-5.39744e-06
2.7073e-06
-1.43851e-06
2.76102e-06
-1.42557e-06
-5.62452e-06
-1.47494e-06
2.47848e-06
-4.58511e-06
2.60701e-06
-1.21446e-06
2.7271e-06
-1.26508e-06
-1.52535e-06
2.59057e-06
-5.27992e-06
2.33475e-06
-7.27137e-07
-3.12816e-06
1.52054e-06
-3.491e-06
-9.49604e-07
1.80708e-06
1.68083e-06
-7.90921e-07
-3.48795e-06
-6.28391e-07
-2.74625e-06
1.48368e-06
1.71946e-06
-9.12949e-07
1.52821e-06
-9.076e-07
-8.63941e-07
1.71781e-06
-3.25917e-06
-1.42007e-06
2.59846e-06
2.65436e-06
2.65459e-06
2.50817e-06
-1.2303e-06
2.03943e-06
-1.03208e-06
1.9137e-06
-3.27557e-06
2.19091e-06
-1.19509e-06
2.27978e-06
-5.05662e-06
1.25811e-06
2.3784e-06
1.10466e-06
-4.25047e-06
2.23297e-06
-1.10638e-06
-1.42905e-06
-1.20674e-06
-1.2846e-06
-1.20445e-06
-2.75735e-06
-1.36441e-06
-1.43257e-06
5.37096e-06
-1.32192e-06
-1.54089e-06
3.77961e-06
-2.83025e-06
-2.73142e-06
4.09877e-06
-1.55807e-06
-1.39e-06
1.26928e-06
2.44255e-06
-4.94215e-06
2.00411e-06
-3.7633e-06
-4.30656e-06
2.16199e-06
1.04972e-06
2.06782e-06
-3.90838e-06
2.12491e-06
3.12087e-06
-3.97642e-06
3.02267e-06
2.14783e-06
2.0228e-06
3.98379e-06
1.16933e-06
-2.46891e-06
-2.5922e-06
1.31749e-06
5.39338e-06
4.50968e-06
1.41118e-06
2.65259e-06
-2.18673e-06
4.26108e-07
-8.91964e-07
-8.53233e-07
2.6998e-06
-2.28787e-06
4.4131e-07
4.70796e-07
2.68626e-06
-2.28408e-06
-8.7298e-07
-2.26685e-06
2.69392e-06
4.52768e-07
-8.79839e-07
4.23808e-07
1.79621e-06
4.32568e-07
1.82116e-06
-2.25058e-06
4.07716e-07
-8.78351e-07
2.69967e-06
2.81766e-06
-8.22408e-07
-2.46774e-06
4.72502e-07
-8.5257e-07
-2.69751e-06
3.06463e-06
4.85438e-07
5.82863e-07
-8.71433e-07
-2.60219e-06
2.89077e-06
-2.5522e-06
-8.45466e-07
2.8671e-06
5.30587e-07
3.034e-07
2.02392e-06
4.90349e-07
2.07178e-06
-2.62095e-06
3.14865e-07
-8.43149e-07
2.9695e-06
2.76155e-06
5.57522e-07
-2.43015e-06
-8.88918e-07
-8.65802e-07
6.13322e-07
-2.5655e-06
2.81802e-06
6.21637e-07
-2.53085e-06
2.81519e-06
-9.05922e-07
-2.54018e-06
6.1565e-07
2.8407e-06
-9.16144e-07
2.7581e-07
1.91309e-06
5.72665e-07
1.94988e-06
-2.53985e-06
2.77354e-07
-9.04416e-07
2.84888e-06
2.75423e-06
-2.3567e-06
4.99216e-07
-8.96745e-07
-8.7483e-07
-2.49633e-06
2.84189e-06
5.29269e-07
5.91468e-07
-2.49674e-06
2.81677e-06
-9.11486e-07
-2.46076e-06
2.83551e-06
5.51037e-07
-9.25768e-07
3.54233e-07
1.88422e-06
5.15787e-07
1.91517e-06
-2.43576e-06
3.27659e-07
-9.04193e-07
2.8343e-06
1.88566e-06
3.57554e-07
4.56585e-07
4.92166e-07
3.55626e-07
1.83847e-06
3.842e-07
1.83996e-06
4.69776e-07
-2.76932e-06
3.35577e-07
1.93551e-06
4.98242e-07
-8.44825e-07
2.38266e-06
3.47835e-07
2.34702e-06
-8.59088e-07
4.72427e-07
1.87213e-06
1.93516e-06
-2.40002e-06
-2.47874e-06
1.96886e-06
-3.11126e-07
1.9865e-06
-2.54679e-06
8.61341e-07
1.8726e-06
-2.37831e-06
2.79734e-06
-5.14339e-07
-5.24544e-07
2.77213e-06
-2.42512e-06
1.93647e-06
2.38728e-06
3.35662e-07
-8.84464e-07
3.66194e-07
-8.82928e-07
-8.72158e-07
3.11353e-07
-1.88401e-06
2.8619e-07
-8.98902e-07
5.27684e-07
2.74953e-06
-8.89928e-07
2.76601e-06
5.41911e-07
3.23619e-07
2.76579e-06
-1.92239e-06
2.82423e-06
-5.8095e-07
2.86117e-06
-2.74041e-07
2.87387e-06
2.47124e-06
8.67226e-07
8.72473e-07
2.52966e-06
2.82118e-06
6.50574e-06
1.37999e-06
-5.85241e-06
-2.03331e-06
-1.85061e-06
5.28656e-06
1.46778e-06
-4.90371e-06
-5.91733e-06
6.26488e-06
1.54286e-06
-1.89042e-06
1.32661e-06
4.96511e-06
-4.38374e-06
-1.90799e-06
7.59772e-06
4.06045e-06
-5.15243e-06
4.39601e-06
1.35111e-06
7.23763e-06
-1.85054e-06
5.71631e-06
4.48358e-06
-1.47639e-06
1.25111e-06
-4.25831e-06
-1.26096e-06
4.17362e-06
1.00212e-06
-3.91477e-06
-3.96507e-06
-1.33996e-06
4.27136e-06
1.03364e-06
9.62968e-07
-1.06894e-06
3.50011e-06
-3.39422e-06
5.59273e-06
2.81106e-06
-3.92041e-06
3.11958e-06
1.21214e-06
4.9705e-06
-1.19656e-06
4.12504e-06
5.70056e-06
-5.55346e-06
1.55243e-06
-1.69949e-06
-1.68444e-06
-4.85141e-06
5.43108e-06
1.10485e-06
-5.24635e-06
5.59237e-06
1.18708e-06
-1.53289e-06
1.32266e-06
-4.99758e-06
5.40997e-06
-1.73503e-06
7.06539e-06
3.85701e-06
-5.22177e-06
3.99743e-06
1.38354e-06
6.81152e-06
-1.6318e-06
5.5626e-06
4.00211e-06
1.18688e-06
-3.84819e-06
-1.34091e-06
-1.10409e-06
1.04595e-06
3.42846e-06
-3.37035e-06
-4.05642e-06
1.35476e-06
4.21198e-06
-1.51033e-06
1.08006e-06
3.53352e-06
-3.47458e-06
-1.13898e-06
4.97734e-06
2.68678e-06
-3.66209e-06
2.71785e-06
1.15538e-06
5.08251e-06
-1.3157e-06
3.7439e-06
3.31985e-06
6.35266e-06
-4.38593e-06
-5.27394e-06
7.60206e-06
3.9368e-06
5.66138e-06
3.25616e-06
-3.95254e-06
-3.86966e-06
4.76426e-06
2.66469e-06
-3.55941e-06
-1.56973e-06
-1.11259e-06
6.00225e-06
-1.12736e-06
-1.351e-06
-3.63127e-06
3.183e-06
3.62126e-06
1.25505e-06
9.41874e-07
2.75346e-06
-6.15134e-06
3.58992e-06
1.22162e-06
1.80637e-06
4.34252e-06
1.45319e-06
4.46601e-06
5.1576e-06
4.21138e-06
5.56951e-06
1.3945e-06
3.62958e-06
-1.32127e-06
6.95008e-06
-1.69199e-06
6.16952e-06
-1.72658e-06
-1.38533e-06
5.09593e-06
-3.58219e-06
6.66611e-06
-1.7292e-06
-4.71492e-06
5.10995e-06
-1.71646e-06
4.63752e-06
-4.40757e-06
5.93515e-06
5.73914e-06
-3.40756e-06
5.07607e-06
3.99889e-06
3.8506e-06
-6.40138e-06
5.13997e-06
-1.14328e-06
1.66064e-06
1.38432e-06
-1.11115e-06
4.27209e-06
5.64106e-06
-4.4588e-06
7.35113e-07
-1.91704e-06
-2.33673e-06
5.53712e-06
-4.09618e-06
8.95839e-07
-3.91723e-06
5.12985e-06
7.13588e-07
-1.92643e-06
5.19185e-07
4.69378e-06
-3.35934e-06
-1.85366e-06
6.48543e-06
3.32536e-06
-4.16967e-06
3.31525e-06
8.33414e-07
5.9418e-06
-2.09741e-06
5.33959e-06
5.46327e-06
-2.44645e-06
-3.90107e-06
8.84325e-07
-2.52176e-06
-3.60197e-06
7.66212e-07
5.35755e-06
-3.51842e-06
-2.14906e-06
7.16673e-07
4.9508e-06
4.7549e-07
-2.0188e-06
-3.38797e-06
4.93122e-06
6.2376e-06
3.03563e-06
-3.80993e-06
2.93174e-06
7.84118e-07
5.70574e-06
-2.19463e-06
5.119e-06
4.86898e-06
-3.65506e-06
6.50129e-07
-1.8641e-06
-1.93828e-06
-3.4084e-06
6.37322e-07
4.70935e-06
-3.5511e-06
5.86689e-07
4.91125e-06
-1.94683e-06
5.46205e-07
-3.31024e-06
4.76769e-06
-2.00365e-06
5.42253e-06
2.98087e-06
-3.53445e-06
2.84959e-06
6.34658e-07
5.51322e-06
-1.98613e-06
4.81171e-06
3.77848e-06
4.40489e-07
-2.57643e-06
-1.64258e-06
-1.62404e-06
4.21386e-07
-2.55177e-06
3.75442e-06
-2.54175e-06
4.75328e-07
3.69726e-06
-1.63078e-06
4.4842e-07
-1.86889e-06
2.39045e-06
-9.69919e-07
4.14415e-06
2.06395e-06
-2.42959e-06
2.11108e-06
4.09054e-07
4.11941e-06
-1.607e-06
3.68887e-06
3.13369e-06
6.37855e-06
-3.97523e-06
-3.68746e-06
5.70217e-06
3.11489e-06
5.19882e-06
2.70557e-06
-3.2105e-06
-4.75529e-06
5.32858e-06
2.72863e-06
-3.30204e-06
-2.14307e-06
-4.60117e-07
5.73666e-06
-4.90928e-07
-1.90537e-06
-3.30999e-06
2.80252e-06
3.16682e-06
7.65255e-07
4.80278e-07
2.82948e-06
-5.61161e-06
2.81296e-06
6.49475e-07
2.05644e-06
3.00064e-06
6.45027e-07
5.25926e-06
3.64409e-06
3.54487e-06
5.00253e-06
6.97923e-07
2.93579e-06
-5.42185e-07
5.71392e-06
-2.05686e-06
5.10595e-06
-1.95991e-06
-1.82273e-06
4.97265e-06
-2.78888e-06
5.26682e-06
-2.00258e-06
-3.34922e-06
4.94947e-06
-2.14249e-06
4.55919e-06
-3.14551e-06
5.30597e-06
5.05947e-06
-2.80804e-06
4.76459e-06
3.18824e-06
4.61384e-06
-5.43307e-06
4.83759e-06
-5.16336e-07
2.04135e-06
1.98156e-06
-4.55933e-07
4.71385e-06
4.38992e-06
-1.26677e-06
-5.85246e-06
2.72925e-06
-6.09821e-06
4.13598e-06
-7.97071e-07
2.75919e-06
2.71117e-06
3.79777e-06
-1.52768e-06
-4.98127e-06
-1.21261e-06
2.95391e-06
-3.76702e-06
2.02573e-06
3.18894e-06
-1.5396e-06
2.74055e-06
-1.50927e-06
-1.40001e-06
2.41334e-06
-5.16555e-06
3.61524e-06
3.83153e-06
-5.54401e-06
-9.80101e-07
2.6925e-06
-5.27817e-06
-4.37859e-07
2.11401e-06
2.86368e-06
-5.56482e-06
-1.19991e-06
-1.30644e-06
-4.54364e-06
2.46209e-06
2.64808e-06
-1.51765e-06
2.70104e-06
-1.5781e-06
-1.05199e-06
2.52436e-06
-5.3485e-06
4.12752e-06
2.91414e-06
-1.47763e-06
-5.56399e-06
-5.50826e-06
2.8251e-06
-1.41299e-06
2.94597e-06
-1.41276e-06
-5.99198e-06
-1.40123e-06
2.42553e-06
-4.38367e-06
2.61231e-06
-1.29661e-06
2.81178e-06
-1.41414e-06
-1.4818e-06
2.63785e-06
-5.33565e-06
2.29927e-06
-7.43046e-07
-3.09465e-06
1.53843e-06
-3.45337e-06
-9.07037e-07
1.80864e-06
1.68804e-06
-8.26821e-07
-3.43767e-06
-5.55802e-07
-2.67452e-06
1.36146e-06
1.69574e-06
-8.82964e-07
1.48649e-06
-9.15236e-07
-8.42409e-07
1.65679e-06
-3.0956e-06
-1.45801e-06
2.80583e-06
2.78815e-06
2.57582e-06
2.43548e-06
-1.21354e-06
1.99323e-06
-1.10135e-06
2.06203e-06
-3.16877e-06
2.07597e-06
-1.22356e-06
2.31636e-06
-5.11916e-06
1.24458e-06
2.41654e-06
1.07189e-06
-4.17792e-06
2.25372e-06
-1.1128e-06
-1.47983e-06
-1.25835e-06
-1.24099e-06
-1.22668e-06
-2.66311e-06
-1.4626e-06
-1.43911e-06
5.30305e-06
-1.38286e-06
-1.48466e-06
3.77122e-06
-2.8345e-06
-2.81828e-06
3.99404e-06
-1.5255e-06
-1.48737e-06
1.15408e-06
2.40799e-06
-4.77561e-06
1.92595e-06
-3.77033e-06
-4.2011e-06
2.07054e-06
1.10704e-06
1.94313e-06
-3.8769e-06
2.06721e-06
3.01525e-06
-3.92832e-06
2.88038e-06
2.16313e-06
1.95918e-06
3.93921e-06
1.15818e-06
-2.45817e-06
-2.61275e-06
1.27224e-06
5.47867e-06
4.38962e-06
1.37855e-06
-4.65475e-06
-1.58856e-06
4.82943e-06
1.41382e-06
4.96211e-06
-4.89669e-06
-1.50341e-06
1.43788e-06
1.78054e-06
-5.70193e-06
-2.10796e-06
6.02924e-06
-2.17284e-06
-5.43922e-06
5.89632e-06
1.71578e-06
-6.50906e-06
3.72153e-07
1.48204e-06
3.41733e-07
-1.8887e-06
-7.48617e-06
5.68542e-06
-5.36388e-06
-5.30138e-06
5.42083e-06
-1.77554e-06
1.65621e-06
5.69975e-06
-1.74332e-06
1.63608e-06
1.63766e-06
5.89011e-06
-2.09669e-06
-2.03787e-06
5.78548e-06
1.66232e-06
-7.34442e-06
3.58214e-07
1.68501e-06
3.22061e-07
-1.96673e-06
-7.52232e-06
5.84264e-06
-4.87185e-06
1.65621e-06
-2.24083e-06
5.45635e-06
4.94939e-06
1.46468e-06
-2.14274e-06
1.29017e-06
-1.4459e-06
4.32936e-06
-1.29799e-06
1.09299e-06
3.70514e-06
-6.61505e-06
1.91885e-07
1.55129e-06
2.18819e-07
-1.88449e-06
-5.63403e-06
4.52797e-06
-4.7021e-06
-1.98288e-06
5.21108e-06
1.47388e-06
4.55109e-06
-1.6012e-06
1.26207e-06
1.05899e-06
-1.18827e-06
3.55777e-06
-1.14688e-06
3.6421e-06
1.03828e-06
-6.20792e-06
1.30948e-07
1.37485e-06
1.65684e-07
-1.82251e-06
-4.96857e-06
3.95253e-06
4.10974e-07
-6.93469e-06
1.62701e-06
1.73904e-06
-7.96855e-06
5.27597e-07
-7.61986e-06
4.78842e-07
1.70186e-06
5.5033e-06
-7.53021e-06
3.53253e-07
1.67364e-06
5.81362e-06
2.13042e-06
-7.53303e-06
2.18878e-06
5.92241e-06
1.71134e-06
4.91328e-07
4.03292e-07
-1.91718e-06
-2.06574e-06
3.21003e-07
7.61318e-06
3.99493e-07
-2.12262e-06
-6.0753e-06
4.43039e-07
-2.33633e-06
-5.39352e-06
-1.73624e-06
-1.61662e-06
-5.51223e-06
-2.29935e-06
4.84328e-07
2.07698e-06
-7.33892e-06
5.78954e-06
-7.33935e-06
5.83532e-06
5.56142e-06
-6.80932e-06
-1.74997e-07
-5.15318e-06
4.14007e-06
1.56105e-06
-4.72742e-06
5.24336e-06
-5.28695e-06
1.54805e-06
-6.45042e-06
-5.23969e-06
-2.09582e-07
-1.41224e-06
7.00417e-06
1.92296e-06
-5.61134e-06
-4.73702e-06
1.87716e-06
-2.33e-06
-2.65726e-06
6.76617e-07
4.31073e-06
5.09174e-06
-2.16923e-06
-3.65172e-06
7.29468e-07
-3.38399e-06
-2.0119e-06
6.82734e-07
4.71312e-06
5.83006e-07
-1.85049e-06
-3.38821e-06
4.65571e-06
-1.55838e-06
3.12218e-06
-3.89376e-06
2.80331e-06
7.30055e-07
-1.46438e-06
5.1696e-06
-2.04508e-06
-2.16663e-06
5.34893e-06
-4.05881e-06
8.76513e-07
5.52311e-06
-4.18875e-06
7.57069e-07
-2.09126e-06
-3.97079e-06
5.52433e-06
5.47001e-07
-2.10047e-06
5.39548e-07
4.95399e-06
-3.57697e-06
-1.91651e-06
-1.43484e-06
3.35685e-06
-4.0886e-06
3.32598e-06
7.62318e-07
-1.42303e-06
5.31951e-06