/*--------------------------------*- C++ -*----------------------------------*\
| =========                 |                                                 |
| \\      /  F ield         | OpenFOAM: The Open Source CFD Toolbox           |
|  \\    /   O peration     | Version:  2506                                  |
|   \\  /    A nd           | Website:  www.openfoam.com                      |
|    \\/     M anipulation  |                                                 |
\*---------------------------------------------------------------------------*/
FoamFile
{
    version     2.0;
    format      ascii;
    arch        "LSB;label=32;scalar=64";
    class       surfaceScalarField;
    location    "500";
    object      phi;
}
// * * * * * * * * * * * * * * * * * * * * * * * * * * * * * * * * * * * * * //

dimensions      [0 3 -1 0 0 0 0];

oriented        oriented;

internalField   nonuniform List<scalar> 
87200
(
2.64273e-06
5.15732e-06
-3.61499e-06
-4.18507e-06
-4.11682e-06
2.59241e-06
5.16429e-06
-3.63988e-06
4.94867e-06
2.4356e-06
-3.39078e-06
-3.9935e-06
-3.41467e-06
2.52664e-06
5.02123e-06
-4.1332e-06
-9.01612e-07
-1.55332e-06
5.09766e-06
-1.54859e-06
-3.46984e-06
-9.12082e-07
-4.05591e-06
2.488e-06
2.50954e-06
-4.00455e-06
5.09398e-06
-3.59896e-06
-4.021e-06
5.20467e-06
2.54057e-06
-3.72424e-06
4.94305e-06
-3.9035e-06
2.38359e-06
-3.42313e-06
-3.42588e-06
-4.00255e-06
4.98734e-06
2.4411e-06
-1.03455e-06
-1.52997e-06
5.07406e-06
-1.53892e-06
-3.51663e-06
-9.99322e-07
-3.95653e-06
2.4048e-06
2.32408e-06
4.82611e-06
-3.25473e-06
-3.89546e-06
-3.84619e-06
4.82149e-06
2.30488e-06
-3.28018e-06
4.78009e-06
2.26723e-06
-3.20779e-06
-3.83954e-06
-3.21405e-06
4.79815e-06
2.30035e-06
-3.88445e-06
-9.24941e-07
-1.56209e-06
4.81111e-06
-1.55622e-06
-3.21492e-06
-9.22251e-07
-3.85389e-06
2.30162e-06
2.49488e-06
-3.34113e-06
4.9741e-06
-4.12785e-06
-4.06234e-06
-3.3656e-06
4.97324e-06
2.45469e-06
4.85801e-06
-3.24289e-06
2.35367e-06
-3.96879e-06
-3.27879e-06
4.92971e-06
2.45136e-06
-4.10228e-06
-8.55744e-07
-1.62378e-06
4.97441e-06
-1.6134e-06
-3.30468e-06
-8.649e-07
-4.03767e-06
2.37971e-06
-1.52676e-06
-9.79502e-07
5.09868e-06
4.91189e-06
-9.16687e-07
-1.5596e-06
-8.88589e-07
-1.59529e-06
5.01053e-06
-2.50628e-06
-9.34055e-07
-1.57374e-06
5.01408e-06
-4.01211e-06
3.43103e-06
-9.4569e-07
3.38778e-06
-4.09519e-06
5.01994e-06
-1.596e-06
-1.54419e-06
-3.43987e-06
-3.37592e-06
-1.56069e-06
9.64383e-07
-1.54507e-06
-3.32282e-06
3.93155e-06
-1.54863e-06
-3.29961e-06
2.42982e-06
-4.9197e-06
-4.90263e-06
2.401e-06
-3.38915e-06
-1.53725e-06
3.28663e-06
-9.19446e-07
-3.92678e-06
-8.78242e-07
-4.05819e-06
-4.01912e-06
-9.20228e-07
1.58233e-06
-8.993e-07
-3.92591e-06
4.9046e-06
2.41138e-06
-4.02935e-06
2.43035e-06
4.89345e-06
-8.99745e-07
2.35803e-06
1.57463e-06
2.32422e-06
-4.87796e-06
2.39704e-06
9.41459e-07
2.33496e-06
3.26632e-06
3.90282e-06
3.9412e-06
3.30703e-06
2.37027e-06
-5.23832e-06
-2.38111e-06
3.39137e-06
4.22806e-06
4.22599e-06
-5.2103e-06
-2.35376e-06
3.33807e-06
-2.35035e-06
-5.23469e-06
3.37661e-06
4.20844e-06
3.40961e-06
-5.16589e-06
-2.3421e-06
4.09838e-06
-1.85098e-06
-1.05805e-06
-2.32929e-06
-9.93415e-07
3.36842e-06
-1.79622e-06
4.14779e-06
-5.13998e-06
-5.18994e-06
4.25104e-06
-2.35037e-06
3.28927e-06
4.29718e-06
-2.36382e-06
3.27131e-06
-2.30756e-06
4.1794e-06
3.22214e-06
3.22979e-06
4.02019e-06
-2.26264e-06
-1.92894e-06
-9.44338e-07
-2.31666e-06
-9.23183e-07
3.29141e-06
-1.84332e-06
4.12877e-06
-5.1839e-06
-2.29059e-06
3.33197e-06
4.14252e-06
4.15511e-06
-2.27663e-06
3.28581e-06
-2.25872e-06
3.3119e-06
4.10414e-06
3.28738e-06
-2.20594e-06
3.93979e-06
-1.87531e-06
-1.05019e-06
-2.2584e-06
-1.03371e-06
3.3135e-06
-1.80523e-06
4.04241e-06
-5.07084e-06
3.37514e-06
-2.27166e-06
3.96736e-06
3.92846e-06
3.27858e-06
-2.2338e-06
-2.20802e-06
3.3181e-06
3.86403e-06
3.32695e-06
-2.21278e-06
3.81554e-06
-1.7163e-06
-1.11354e-06
-2.24099e-06
-1.07901e-06
3.29117e-06
-1.68737e-06
3.90077e-06
-9.90528e-07
-1.88541e-06
-2.33436e-06
-2.30239e-06
-1.86615e-06
-1.06614e-06
-1.79093e-06
-1.07735e-06
-2.29761e-06
5.08084e-06
-1.787e-06
-1.03653e-06
-2.2573e-06
4.12489e-06
-3.30111e-06
-1.81431e-06
-3.31748e-06
4.05682e-06
-2.27709e-06
-1.05159e-06
-9.61325e-07
3.32696e-06
3.25168e-06
-1.01848e-06
1.88203e-06
-9.76813e-07
3.27419e-06
-4.17788e-06
-1.01587e-06
3.32759e-06
-5.09141e-06
2.31578e-06
2.28904e-06
-5.17421e-06
3.31212e-06
-1.00315e-06
-3.36357e-06
-1.8113e-06
4.10872e-06
-1.73392e-06
4.03171e-06
4.01029e-06
-1.76825e-06
1.09502e-06
-1.73894e-06
3.96202e-06
-2.27316e-06
-5.11667e-06
4.02626e-06
-5.05867e-06
-2.24279e-06
-1.77886e-06
-5.11776e-06
1.06565e-06
2.22735e-06
1.84523e-06
-3.27369e-06
-4.10247e-06
-3.9869e-06
-3.26039e-06
4.49573e-06
-9.15282e-07
-1.31322e-06
-1.32261e-06
4.54101e-06
-9.18037e-07
-8.86738e-07
4.53714e-06
-1.34552e-06
-2.28654e-06
4.52893e-06
-9.0267e-07
-1.33973e-06
2.2241e-06
3.17932e-06
-9.07688e-07
3.20311e-06
2.22808e-06
-1.3353e-06
4.54445e-06
4.59312e-06
-1.30359e-06
-9.35856e-07
-1.25891e-06
4.66233e-06
-9.52055e-07
-9.03973e-07
-1.32224e-06
4.6809e-06
-2.41318e-06
-1.32364e-06
4.66706e-06
-9.30233e-07
2.20798e-06
3.32065e-06
-9.35512e-07
3.32878e-06
2.2335e-06
-1.32603e-06
4.65831e-06
4.65038e-06
-8.55852e-07
-1.41094e-06
-1.40465e-06
-8.59516e-07
4.70527e-06
-8.04961e-07
4.842e-06
-1.49647e-06
-2.42029e-06
-8.52244e-07
4.74961e-06
-1.47707e-06
2.26603e-06
3.23924e-06
-8.54893e-07
3.26618e-06
2.27777e-06
-1.45882e-06
4.73899e-06
4.58096e-06
-2.31863e-06
-8.95409e-07
-1.36693e-06
-1.35883e-06
-2.37833e-06
4.64698e-06
-9.09824e-07
-8.65965e-07
-2.38141e-06
4.67824e-06
-1.43086e-06
-2.35396e-06
4.65677e-06
-8.97472e-07
-1.40535e-06
2.25729e-06
3.2223e-06
-8.98631e-07
3.23843e-06
-2.33998e-06
2.27401e-06
-1.40567e-06
4.64648e-06
3.23359e-06
2.2221e-06
-9.14677e-07
-8.7936e-07
2.22778e-06
3.18871e-06
2.23713e-06
3.19476e-06
-9.02968e-07
-4.5933e-06
2.23897e-06
3.26488e-06
-9.10555e-07
-1.34076e-06
2.34083e-06
2.23353e-06
2.32433e-06
-1.34578e-06
-9.06687e-07
3.21568e-06
3.24273e-06
-2.36733e-06
3.28266e-06
-2.22128e-06
3.29608e-06
1.34876e-06
3.21398e-06
4.58688e-06
8.89381e-07
8.93517e-07
4.60841e-06
3.28065e-06
2.32764e-06
2.23843e-06
-1.37737e-06
2.24554e-06
-1.36942e-06
-1.36476e-06
2.25132e-06
-3.21985e-06
2.27769e-06
-1.43926e-06
-8.77105e-07
4.59483e-06
-1.39008e-06
4.58411e-06
-8.79375e-07
2.25435e-06
4.59656e-06
-3.24783e-06
4.67328e-06
8.85591e-07
4.64838e-06
-2.2412e-06
4.67776e-06
2.36554e-06
1.37612e-06
1.37207e-06
2.41556e-06
4.67321e-06
-4.88533e-06
1.10089e-06
1.40335e-06
1.11979e-06
-4.82494e-06
1.35138e-06
1.41595e-06
-4.82593e-06
1.06789e-06
2.35572e-06
-4.80457e-06
1.08719e-06
1.36166e-06
-2.52469e-06
-3.76754e-06
1.4069e-06
-3.73419e-06
-2.5106e-06
1.09877e-06
-4.82883e-06
-4.8061e-06
1.13867e-06
1.31705e-06
1.18184e-06
1.29634e-06
1.34308e-06
1.09955e-06
2.33004e-06
1.14956e-06
1.27001e-06
-2.48753e-06
-3.6495e-06
1.33093e-06
-3.62235e-06
-2.45972e-06
1.14026e-06
-4.75039e-06
1.44676e-06
1.03197e-06
1.04379e-06
1.40331e-06
1.45812e-06
9.91439e-07
2.25617e-06
1.38936e-06
1.02153e-06
-2.4705e-06
-3.69384e-06
1.41396e-06
-3.6677e-06
-2.44873e-06
1.01106e-06
-4.71604e-06
2.32037e-06
1.06275e-06
1.33293e-06
1.09372e-06
2.3136e-06
1.27092e-06
1.34208e-06
2.26485e-06
1.04006e-06
2.30628e-06
1.06026e-06
1.29024e-06
-2.41364e-06
-3.63545e-06
1.33306e-06
-3.61153e-06
2.29161e-06
-2.37702e-06
1.04785e-06
-3.69987e-06
-2.48937e-06
1.36429e-06
1.39703e-06
-2.49871e-06
-3.72424e-06
-2.47679e-06
-3.69486e-06
1.36708e-06
4.76184e-06
-2.45604e-06
-3.63234e-06
1.32656e-06
1.11734e-06
-2.32593e-06
-2.49128e-06
-2.31446e-06
1.11864e-06
1.31728e-06
-3.67262e-06
-3.68506e-06
2.29767e-06
-3.60415e-06
2.46432e-06
-3.62207e-06
-1.08241e-06
-3.71392e-06
-4.79313e-06
-1.3832e-06
-1.35521e-06
-4.7427e-06
-3.6336e-06
-2.29371e-06
-2.4869e-06
1.05637e-06
-2.44533e-06
1.07084e-06
1.09106e-06
-2.4098e-06
3.6384e-06
-2.41019e-06
1.03664e-06
1.38e-06
-4.72852e-06
1.05481e-06
-4.73795e-06
1.35528e-06
-2.4454e-06
-4.75405e-06
3.62756e-06
-1.34068e-06
2.459e-06
-2.26037e-06
-1.07972e-06
-1.07822e-06
-2.25432e-06
5.61028e-06
-6.62506e-07
-3.6332e-06
-1.31457e-06
-3.6491e-06
5.6501e-06
-6.54072e-07
-1.34693e-06
-1.33859e-06
5.64361e-06
-6.63725e-07
-3.64131e-06
-6.2736e-07
5.65559e-06
-3.66127e-06
-1.36697e-06
4.98255e-06
1.97759e-06
-1.34987e-06
1.98442e-06
-6.50965e-07
4.98777e-06
-3.63755e-06
5.6336e-06
5.7084e-06
-3.67473e-06
-6.40552e-07
-1.39313e-06
-3.70314e-06
5.78945e-06
-6.22708e-07
-1.46361e-06
-1.43739e-06
-3.70386e-06
5.79385e-06
-6.52605e-07
-5.75016e-07
-3.72689e-06
5.79202e-06
-1.49012e-06
5.13263e-06
2.03037e-06
-1.45462e-06
2.0559e-06
-6.26414e-07
5.16529e-06
-3.70995e-06
5.7838e-06
5.69383e-06
-1.34579e-06
-6.79606e-07
-3.66845e-06
-3.70103e-06
-1.38936e-06
5.77388e-06
-6.83496e-07
-1.34735e-06
5.77527e-06
-7.10264e-07
-3.71766e-06
-6.40853e-07
-1.40716e-06
5.77051e-06
-3.72251e-06
5.04796e-06
2.00772e-06
-1.36185e-06
2.03193e-06
-6.85011e-07
5.09097e-06
-3.72411e-06
5.77555e-06
5.72799e-06
-5.71854e-07
-3.70719e-06
-1.44896e-06
-3.7392e-06
-5.34027e-07
5.79775e-06
-1.52453e-06
-1.4853e-06
-5.73634e-07
5.79365e-06
-3.73473e-06
-5.05056e-07
5.8268e-06
-3.7817e-06
-1.54007e-06
5.22559e-06
2.01326e-06
-1.51088e-06
2.03646e-06
-5.50079e-07
5.26415e-06
-3.75595e-06
5.81531e-06
1.99832e-06
5.04934e-06
-1.39758e-06
-1.35763e-06
5.01006e-06
1.99118e-06
5.08345e-06
1.98829e-06
-1.41616e-06
-5.72186e-06
5.18552e-06
2.01857e-06
-1.48224e-06
-3.67014e-06
6.04119e-07
5.06434e-06
6.05828e-07
-3.6911e-06
-1.42664e-06
1.99817e-06
2.01727e-06
-6.42662e-07
-5.8804e-07
2.04667e-06
-5.09176e-06
2.04527e-06
-6.57373e-07
3.66832e-06
2.00294e-06
-6.61201e-07
5.70183e-06
1.37977e-06
1.40385e-06
5.705e-06
-6.5691e-07
2.01709e-06
6.26945e-07
5.03677e-06
-3.67254e-06
5.10289e-06
-3.68645e-06
-3.73109e-06
5.21563e-06
-2.00619e-06
5.16447e-06
-3.73191e-06
-1.39325e-06
5.69975e-06
-3.67956e-06
5.70781e-06
-1.42665e-06
5.12021e-06
5.69391e-06
-2.02475e-06
5.78207e-06
1.4661e-06
5.7962e-06
-5.11738e-06
5.7733e-06
6.26405e-07
3.70566e-06
3.72185e-06
6.05363e-07
5.79332e-06
1.34111e-06
6.71084e-07
3.76307e-06
3.7849e-06
1.28032e-06
7.08658e-07
-5.86814e-06
1.31392e-06
7.18466e-07
3.83575e-06
7.44067e-07
1.27741e-06
3.74903e-06
2.03662e-06
5.08003e-06
5.10711e-06
7.14414e-07
2.04667e-06
3.77743e-06
1.28563e-06
1.23375e-06
3.81059e-06
7.49502e-07
3.81053e-06
7.87057e-07
1.19186e-06
-5.87728e-06
3.88222e-06
8.13691e-07
1.18138e-06
8.35607e-07
3.79769e-06
1.15871e-06
2.00985e-06
5.0077e-06
5.03419e-06
7.86208e-07
2.03057e-06
3.81273e-06
1.18747e-06
1.27257e-06
-5.97225e-06
7.73889e-07
3.92581e-06
3.94939e-06
-5.97077e-06
8.30046e-07
1.19135e-06
-6.08538e-06
8.28914e-07
4.02061e-06
1.23587e-06
8.66904e-07
-5.98112e-06
3.9379e-06
1.17633e-06
2.0683e-06
5.20588e-06
-6.0016e-06
5.20668e-06
8.1101e-07
2.09709e-06
3.97571e-06
1.21839e-06
1.21029e-06
8.1309e-07
3.77027e-06
3.78795e-06
8.78802e-07
1.131e-06
-5.89265e-06
8.95802e-07
3.85954e-06
1.13732e-06
8.98633e-07
3.78878e-06
1.13939e-06
2.05763e-06
4.96798e-06
4.96194e-06
8.83636e-07
2.06462e-06
3.80199e-06
1.1339e-06
5.03089e-06
2.02273e-06
-5.87731e-06
2.05669e-06
5.13454e-06
2.04611e-06
5.01337e-06
-1.21192e-06
2.03115e-06
4.97697e-06
3.79459e-06
-7.92365e-07
2.02866e-06
-7.97084e-07
3.78903e-06
5.03806e-06
5.08042e-06
7.52894e-07
8.38958e-07
4.98989e-06
-2.04116e-06
5.11855e-06
8.04831e-07
-3.86183e-06
5.15033e-06
7.68202e-07
1.22875e-06
5.88032e-06
5.88044e-06
1.24982e-06
7.68662e-07
5.0891e-06
-8.02294e-07
2.06932e-06
3.86753e-06
2.04817e-06
3.7783e-06
3.81145e-06
2.04433e-06
-5.07707e-06
2.0784e-06
3.89449e-06
-5.87979e-06
1.23523e-06
3.84228e-06
1.20643e-06
-5.90152e-06
2.05969e-06
1.24739e-06
-5.06673e-06
1.16401e-06
5.87582e-06
1.15839e-06
-2.0582e-06
1.20598e-06
-8.57062e-07
-3.89714e-06
-3.8641e-06
-8.66233e-07
1.14548e-06
-6.5908e-07
-9.60527e-07
-1.58818e-06
-1.5899e-06
-6.97029e-07
-9.67803e-07
3.18662e-06
-6.50712e-07
-9.53607e-07
-1.58231e-06
-9.43778e-07
-7.14996e-07
-1.62141e-06
-1.58834e-06
-2.28566e-06
-2.23216e-06
-9.46078e-07
-1.62256e-06
-1.60688e-06
-6.68095e-07
-7.82818e-07
-1.61578e-06
-9.92177e-07
-1.68118e-06
-1.02018e-06
-9.13635e-07
3.3935e-06
-1.63095e-06
-9.94402e-07
-7.68151e-07
-9.60104e-07
-1.73783e-06
-9.41943e-07
-1.76736e-06
-2.4853e-06
-2.45464e-06
-9.93893e-07
-1.78862e-06
-1.65678e-06
-8.4976e-07
-6.58527e-07
3.20514e-06
-9.58301e-07
-1.58832e-06
-1.61658e-06
3.2594e-06
-9.45889e-07
-6.96927e-07
3.17963e-06
-9.54474e-07
-6.37684e-07
-1.58747e-06
-9.40362e-07
3.27893e-06
-7.12929e-07
-1.62564e-06
-1.60262e-06
-2.2747e-06
3.2188e-06
-2.26341e-06
-9.55796e-07
-1.60805e-06
-1.60701e-06
-6.91832e-07
-8.12941e-07
-9.19191e-07
-1.691e-06
-1.76573e-06
-9.03428e-07
-9.29806e-07
3.45918e-06
-9.17976e-07
-8.36273e-07
-1.70493e-06
-9.1358e-07
-1.01463e-06
-1.79603e-06
-1.73654e-06
-2.59303e-06
-2.58073e-06
-9.21526e-07
-1.73052e-06
-1.77609e-06
-8.52072e-07
-2.36403e-06
-1.63261e-06
3.24003e-06
-1.62886e-06
-2.26189e-06
-1.64921e-06
-2.3886e-06
7.74319e-07
-1.71469e-06
-2.4995e-06
-1.62325e-06
9.48627e-07
-1.6894e-06
9.48688e-07
-1.66621e-06
-2.36673e-06
-2.28858e-06
-9.59817e-07
-9.6588e-07
-2.48664e-06
1.71807e-06
-2.38147e-06
-9.67554e-07
1.60401e-06
-2.2727e-06
-9.60169e-07
-7.2042e-07
-3.25756e-06
-3.34307e-06
-6.99192e-07
-9.54353e-07
-2.32419e-06
9.38196e-07
-1.60329e-06
-1.5968e-06
-1.64627e-06
-1.66152e-06
-1.70366e-06
-1.69927e-06
2.41639e-06
-1.65725e-06
-1.67712e-06
3.26746e-06
-7.09499e-07
-1.61977e-06
-7.45538e-07
3.37072e-06
-1.66383e-06
-6.70847e-07
2.3746e-06
-7.52916e-07
-3.35053e-06
-8.35384e-07
1.65849e-06
-7.80558e-07
9.36328e-07
1.61163e-06
1.64709e-06
9.45922e-07
-7.57514e-07
-3.39175e-06
1.16175e-06
4.67575e-07
1.76243e-06
1.71089e-06
-3.39988e-06
1.13484e-06
5.54142e-07
5.11999e-07
-3.38656e-06
1.14844e-06
1.72613e-06
1.16225e-06
-3.41717e-06
5.68524e-07
1.68639e-06
-2.21743e-06
-1.69119e-06
5.16867e-07
-1.65892e-06
1.15238e-06
-2.24657e-06
1.71764e-06
-3.39349e-06
-3.38993e-06
1.73628e-06
1.09191e-06
5.61736e-07
1.72956e-06
1.0464e-06
5.35943e-07
5.30255e-07
1.72711e-06
1.0746e-06
1.11697e-06
1.67531e-06
4.93527e-07
-2.27123e-06
-1.65222e-06
5.33514e-07
-1.61153e-06
1.06985e-06
-2.23223e-06
1.69697e-06
-3.39989e-06
5.55808e-07
1.12409e-06
1.71999e-06
1.71603e-06
5.60982e-07
1.09959e-06
5.6492e-07
1.10242e-06
1.72403e-06
1.12474e-06
5.42411e-07
1.67092e-06
-2.28119e-06
-1.68363e-06
5.64923e-07
-1.67487e-06
1.10971e-06
-2.25847e-06
1.69958e-06
-3.38351e-06
1.19045e-06
5.38818e-07
1.65423e-06
1.61915e-06
1.13824e-06
4.64749e-07
4.84553e-07
1.16335e-06
1.64137e-06
1.20998e-06
4.47658e-07
1.61368e-06
-2.14694e-06
-1.68746e-06
4.5089e-07
-1.67461e-06
1.14681e-06
-2.10136e-06
1.62387e-06
-1.66925e-06
-2.27572e-06
5.45093e-07
5.60034e-07
-2.25786e-06
-1.68873e-06
-2.20699e-06
-1.72949e-06
5.19308e-07
3.34105e-06
-2.19468e-06
-1.65096e-06
5.04595e-07
1.70159e-06
-1.14476e-06
-2.22608e-06
-1.13186e-06
1.67781e-06
5.18474e-07
-1.66104e-06
-1.66154e-06
1.1221e-06
1.11796e-06
-1.63733e-06
2.26182e-06
-1.6484e-06
1.11369e-06
-1.71197e-06
-1.67783e-06
1.13193e-06
-3.3539e-06
-5.33724e-07
-5.38963e-07
-3.37767e-06
1.13198e-06
-1.65481e-06
-1.14428e-06
-2.26375e-06
1.7193e-06
-2.19416e-06
1.65512e-06
1.64261e-06
-2.15533e-06
1.69908e-06
-2.20441e-06
1.66868e-06
5.21702e-07
-3.3781e-06
1.71212e-06
-3.3335e-06
5.44082e-07
-2.22311e-06
-3.38577e-06
1.66496e-06
-5.18472e-07
2.24017e-06
-1.12315e-06
-1.69769e-06
-1.68131e-06
-1.11234e-06
3.84066e-06
-2.20222e-06
-2.59292e-06
-2.60092e-06
3.912e-06
-2.25697e-06
-2.21286e-06
3.84268e-06
-2.58812e-06
9.68787e-07
3.92604e-06
-2.29067e-06
-2.60416e-06
4.8098e-06
1.25563e-06
-2.22478e-06
1.25308e-06
4.82489e-06
-2.60047e-06
3.86511e-06
4.04154e-06
-2.64836e-06
-2.38759e-06
-2.73244e-06
-2.47281e-06
-2.33887e-06
-2.64681e-06
1.02575e-06
-2.73069e-06
-2.42826e-06
5.06754e-06
1.35637e-06
-2.38238e-06
1.34121e-06
5.05356e-06
-2.67144e-06
3.83829e-06
-2.2037e-06
-2.5882e-06
-2.60427e-06
-2.259e-06
-2.21007e-06
-2.59e-06
9.71882e-07
-2.25534e-06
-2.60099e-06
4.79689e-06
1.25162e-06
-2.21023e-06
1.24655e-06
4.81741e-06
-2.59391e-06
4.02927e-06
1.01044e-06
-2.36705e-06
-2.67267e-06
-2.73846e-06
1.04965e-06
-2.43905e-06
-2.33005e-06
1.00079e-06
-2.63953e-06
1.05113e-06
-2.40524e-06
-2.74817e-06
5.08351e-06
1.31715e-06
-2.37138e-06
1.3202e-06
1.02484e-06
5.04751e-06
-2.67923e-06
1.30255e-06
4.90651e-06
-2.29706e-06
-2.21892e-06
4.80999e-06
1.25162e-06
4.92718e-06
1.29487e-06
-2.29601e-06
-4.0344e-06
5.07008e-06
1.33997e-06
-2.37566e-06
-2.6175e-06
-9.90686e-07
4.91073e-06
-9.71315e-07
-2.6661e-06
-2.35898e-06
1.28977e-06
1.2906e-06
1.00222e-06
1.33717e-06
-4.89015e-06
1.28351e-06
2.59959e-06
1.25023e-06
3.94667e-06
2.25465e-06
2.27745e-06
3.89988e-06
1.28718e-06
-9.60458e-07
4.80229e-06
-2.59021e-06
4.93921e-06
-2.6339e-06
-2.69324e-06
5.08284e-06
-1.27892e-06
4.9019e-06
-2.62219e-06
-2.26235e-06
3.90407e-06
-2.60218e-06
3.96662e-06
-2.29823e-06
4.92338e-06
3.84883e-06
-1.27935e-06
2.36183e-06
-4.90227e-06
-9.72085e-07
2.61068e-06
2.67194e-06
-1.00442e-06
-4.32917e-06
2.49507e-06
2.99585e-06
2.4788e-06
-4.29447e-06
2.96412e-06
2.94885e-06
-4.27528e-06
2.46127e-06
-1.09581e-06
-4.18756e-06
2.39124e-06
2.89212e-06
-5.45823e-06
-1.82919e-06
2.95826e-06
-1.82706e-06
-5.37585e-06
2.45082e-06
-4.25406e-06
-4.25267e-06
2.45107e-06
2.9257e-06
2.43406e-06
2.89642e-06
2.87092e-06
2.43711e-06
-1.04651e-06
2.33669e-06
2.80821e-06
-5.34153e-06
-1.79453e-06
2.88339e-06
-1.79776e-06
-5.22095e-06
2.37992e-06
-4.14943e-06
2.86697e-06
2.37438e-06
2.37549e-06
2.84163e-06
2.81634e-06
2.3342e-06
-1.00745e-06
2.71813e-06
2.22911e-06
-5.21966e-06
-1.7652e-06
2.83542e-06
-1.77431e-06
-5.08444e-06
2.31179e-06
-3.99171e-06
-9.96492e-07
2.2416e-06
2.74658e-06
2.23294e-06
-9.85172e-07
2.71959e-06
2.65822e-06
-9.58058e-07
2.16387e-06
-9.22879e-07
2.12895e-06
2.60948e-06
-4.95698e-06
-1.73006e-06
2.69532e-06
-1.73484e-06
-9.89198e-07
-4.82415e-06
2.1712e-06
-1.81098e-06
-5.39772e-06
2.91423e-06
2.91999e-06
-5.3938e-06
-1.80147e-06
-5.24042e-06
-1.77843e-06
2.83129e-06
4.1306e-06
-5.16724e-06
-1.77094e-06
2.80758e-06
2.42162e-06
1.07114e-06
-5.30374e-06
1.08754e-06
2.36944e-06
2.8323e-06
-1.78344e-06
-1.81472e-06
-1.06277e-06
-1.76779e-06
5.343e-06
-1.7922e-06
-2.46356e-06
-1.80814e-06
-4.19596e-06
-2.9225e-06
-2.87881e-06
-4.25408e-06
-1.78988e-06
1.04327e-06
-5.1938e-06
2.34907e-06
-5.0603e-06
2.28538e-06
2.27006e-06
-5.02617e-06
1.74486e-06
-4.93041e-06
2.22749e-06
2.79859e-06
-4.06304e-06
2.30772e-06
-4.04515e-06
2.7643e-06
-5.08247e-06
-4.13497e-06
1.74974e-06
-2.76225e-06
5.15816e-06
1.03939e-06
-2.33894e-06
-2.29334e-06
1.02934e-06
-4.10284e-06
3.26416e-06
1.66761e-06
3.21756e-06
-4.03177e-06
1.64426e-06
1.64518e-06
-4.03373e-06
3.16244e-06
-7.40703e-07
-4.0295e-06
3.1438e-06
1.6264e-06
-4.88788e-06
-8.72879e-07
1.65792e-06
-8.59311e-07
-4.81987e-06
3.20629e-06
-4.034e-06
-3.95868e-06
3.15594e-06
1.61643e-06
3.09618e-06
-3.90436e-06
1.59524e-06
1.57944e-06
3.05979e-06
-3.88974e-06
-7.19323e-07
3.05365e-06
-3.90056e-06
1.56625e-06
-4.71857e-06
-8.41172e-07
1.60106e-06
-8.36177e-07
-4.63564e-06
3.07515e-06
-3.89239e-06
-3.95633e-06
1.60595e-06
3.06885e-06
3.0304e-06
1.57457e-06
-3.89631e-06
1.5752e-06
-3.89281e-06
2.98869e-06
-6.49404e-07
1.55884e-06
-3.88879e-06
2.97936e-06
-4.64033e-06
-9.0872e-07
1.59271e-06
-8.95522e-07
-4.56565e-06
3.00752e-06
-3.88597e-06
-3.95716e-06
-6.6059e-07
3.04272e-06
1.57503e-06
3.01184e-06
-6.54112e-07
-3.90123e-06
1.54351e-06
1.54508e-06
-6.19859e-07
-3.89813e-06
2.97291e-06
-5.92433e-07
-3.89695e-06
2.95453e-06
1.53486e-06
-4.584e-06
-9.28002e-07
1.55485e-06
-9.17643e-07
-6.54516e-07
-4.52183e-06
3.00139e-06
-3.89439e-06
-8.48941e-07
-4.80849e-06
1.62566e-06
1.633e-06
-4.77192e-06
-8.94819e-07
-4.73214e-06
-9.05617e-07
1.60826e-06
3.96391e-06
-4.65194e-06
-8.84382e-07
1.57242e-06
3.1313e-06
7.39151e-07
-4.71939e-06
7.30289e-07
3.10787e-06
1.59519e-06
-8.93986e-07
-8.47716e-07
-7.16729e-07
-8.81569e-07
4.68451e-06
-8.71825e-07
-3.12273e-06
-8.80987e-07
-3.95334e-06
-1.61377e-06
-1.59493e-06
-3.96784e-06
-8.78261e-07
6.83478e-07
-4.67618e-06
3.09789e-06
-4.66112e-06
3.09491e-06
3.03764e-06
-4.57613e-06
9.22416e-07
-4.5352e-06
2.99292e-06
1.59042e-06
-3.95768e-06
3.05074e-06
-3.96468e-06
1.58156e-06
-4.61683e-06
-3.95121e-06
9.12827e-07
-3.88919e-06
-1.5619e-06
-3.8958e-06
4.59488e-06
-3.89214e-06
6.79224e-07
-3.03773e-06
-3.02478e-06
6.78894e-07
-3.90779e-06
-1.59873e-06
-3.00436e-06
-2.97436e-06
-1.60545e-06
3.84562e-06
-1.57539e-06
-2.94985e-06
7.30075e-07
-1.61423e-06
-3.00464e-06
-8.8938e-07
-4.59532e-06
-4.54876e-06
-8.82798e-07
-2.98245e-06
-1.58593e-06
-1.59845e-06
-2.94389e-06
-2.92335e-06
-1.60372e-06
3.84092e-06
-2.91075e-06
-1.57072e-06
6.7624e-07
-2.95855e-06
-1.61825e-06
-9.42104e-07
-4.54873e-06
-4.49187e-06
-9.32593e-07
-2.9399e-06
-1.58354e-06
-1.55571e-06
3.80796e-06
-2.91599e-06
-2.9037e-06
3.80278e-06
-1.55315e-06
3.78188e-06
-2.90109e-06
-1.5433e-06
6.77099e-07
3.8098e-06
-2.92725e-06
-1.55966e-06
-8.90537e-07
-4.47021e-06
3.80503e-06
-4.4452e-06
-8.83595e-07
-2.90952e-06
-1.54691e-06
-1.63728e-06
7.60349e-07
-3.0212e-06
-2.99972e-06
7.34804e-07
-1.63631e-06
3.85412e-06
7.2318e-07
-2.97909e-06
-1.59822e-06
7.85158e-07
-3.03319e-06
-1.64891e-06
-8.72629e-07
-4.65905e-06
-4.61043e-06
7.38077e-07
-8.69609e-07
-3.00428e-06
-1.62591e-06
-4.58306e-06
-9.14531e-07
3.84191e-06
-8.94181e-07
-4.52313e-06
-8.80882e-07
-4.62255e-06
1.62842e-06
-9.06196e-07
-4.61802e-06
-2.96143e-06
-7.15096e-07
-9.06536e-07
-7.05452e-07
-2.99447e-06
-4.5808e-06
-4.5158e-06
6.82787e-07
-4.54754e-06
9.1097e-07
-4.46438e-06
2.92561e-06
-4.48099e-06
-1.58381e-06
-3.83853e-06
-3.84092e-06
-1.56983e-06
-4.49979e-06
-6.97017e-07
-8.89793e-07
-2.93633e-06
-8.73833e-07
-2.98837e-06
-2.98089e-06
-9.02332e-07
4.54974e-06
-8.81602e-07
-2.94497e-06
3.84785e-06
-1.58858e-06
-2.95629e-06
-1.60679e-06
3.8496e-06
-8.88434e-07
-1.56282e-06
4.50524e-06
-1.57704e-06
-3.84457e-06
-1.6053e-06
9.01313e-07
-1.56291e-06
-6.79411e-07
2.92162e-06
2.93739e-06
-6.7686e-07
-1.58404e-06
2.45217e-06
1.60861e-06
-2.63534e-06
-1.42544e-06
-1.41255e-06
2.47748e-06
1.61673e-06
-2.68167e-06
1.61819e-06
2.44113e-06
-2.63542e-06
-1.4239e-06
-2.65472e-06
2.47542e-06
1.60448e-06
-1.42518e-06
-1.95088e-07
1.04144e-06
1.60581e-06
1.03579e-06
-2.64342e-06
-1.90526e-07
-1.42275e-06
2.46345e-06
2.50558e-06
-1.39561e-06
1.65265e-06
-2.76262e-06
-1.38807e-06
1.72368e-06
2.50749e-06
-2.8431e-06
1.68395e-06
-1.39268e-06
2.44939e-06
-2.74066e-06
-2.80422e-06
-1.41449e-06
1.69498e-06
2.52372e-06
-2.89038e-07
1.10808e-06
1.68654e-06
1.10295e-06
-2.78006e-06
-2.91409e-07
-1.40473e-06
2.49548e-06
2.43531e-06
1.62435e-06
-2.63624e-06
-1.42342e-06
-1.40883e-06
1.65325e-06
2.43152e-06
-2.67593e-06
1.63044e-06
2.42909e-06
-2.63666e-06
-1.42286e-06
-2.65979e-06
1.6391e-06
2.44118e-06
-1.42049e-06
-2.22152e-07
1.01943e-06
1.63804e-06
1.0165e-06
-2.64748e-06
-2.20373e-07
-1.41997e-06
2.42657e-06
2.49797e-06
-2.67652e-06
1.61572e-06
-1.43717e-06
-1.43276e-06
-2.75142e-06
1.65804e-06
2.52612e-06
1.63867e-06
-2.68128e-06
2.477e-06
-1.4344e-06
-2.705e-06
1.63646e-06
2.52903e-06
-1.46051e-06
-1.99133e-07
1.06426e-06
1.63283e-06
1.0655e-06
-2.6974e-06
-1.98092e-07
-1.44265e-06
2.50608e-06
1.07528e-06
-2.33923e-07
1.63614e-06
1.62302e-06
-2.08898e-07
1.027e-06
-1.95759e-07
1.06022e-06
1.61097e-06
-2.49686e-06
-2.47531e-07
1.08231e-06
1.66207e-06
-1.4154e-06
2.71424e-06
-2.23558e-07
2.67106e-06
-1.41629e-06
1.63367e-06
1.05902e-06
1.06852e-06
-2.69807e-06
-2.73634e-06
1.07432e-06
2.58816e-07
1.0477e-06
-2.69919e-06
1.40624e-06
1.02909e-06
-2.64422e-06
2.48395e-06
-1.63899e-06
-1.65712e-06
2.44228e-06
-2.67503e-06
1.04397e-06
2.653e-06
-2.04563e-07
-1.42143e-06
-1.88013e-07
-1.42828e-06
-1.42746e-06
-2.41646e-07
-1.0406e-06
-2.15739e-07
-1.42494e-06
1.61652e-06
2.45803e-06
-1.42155e-06
2.48752e-06
1.63734e-06
-2.199e-07
2.44888e-06
-1.04072e-06
2.46408e-06
-1.66655e-06
2.49922e-06
2.56254e-07
2.4447e-06
2.67493e-06
1.41199e-06
1.41431e-06
2.71222e-06
2.45998e-06
-2.63224e-06
-1.87709e-06
2.8927e-06
1.61663e-06
-1.82038e-06
-2.68561e-06
2.8842e-06
1.6218e-06
1.61359e-06
-2.63311e-06
-1.81728e-06
2.83681e-06
2.82918e-06
-2.59809e-06
-1.80787e-06
1.57678e-06
2.1856e-07
-4.44603e-06
1.59524e-06
-4.46753e-06
2.86571e-06
2.15148e-07
-1.832e-06
-2.6388e-06
-2.71534e-06
-1.75911e-06
2.8584e-06
1.61606e-06
-1.71813e-06
-2.7792e-06
2.85954e-06
1.63779e-06
1.63032e-06
-1.69782e-06
-2.72224e-06
2.78977e-06
2.79423e-06
-1.71446e-06
-2.6607e-06
1.58093e-06
1.0852e-07
-4.41285e-06
1.58899e-06
-4.45284e-06
2.84324e-06
1.16281e-07
-1.73489e-06
-2.70624e-06
-2.63912e-06
1.62829e-06
-1.77014e-06
2.78097e-06
-1.68606e-06
1.64072e-06
-2.69957e-06
2.74493e-06
1.63891e-06
-1.68871e-06
-2.66905e-06
2.71886e-06
2.69913e-06
1.57805e-06
-1.69501e-06
-2.58217e-06
8.27091e-08
-4.33868e-06
1.61685e-06
-4.35689e-06
2.75354e-06
8.93477e-08
-1.7289e-06
-2.62863e-06
-2.54934e-06
2.78031e-06
-1.76038e-06
1.52941e-06
-1.72203e-06
2.76302e-06
-2.57576e-06
1.53477e-06
1.53805e-06
2.7186e-06
-1.71192e-06
-2.54472e-06
2.72858e-06
-1.71592e-06
-2.50664e-06
1.49397e-06
2.06582e-07
-4.26801e-06
1.51208e-06
-4.2694e-06
2.75396e-06
1.98233e-07
-1.73766e-06
-2.53312e-06
-4.44115e-06
1.62061e-07
1.59348e-06
1.60831e-06
1.46548e-07
-4.38798e-06
2.11027e-07
-4.36332e-06
1.55421e-06
2.62804e-06
1.62495e-07
-4.34029e-06
1.54976e-06
-1.77873e-06
-2.82179e-06
1.5937e-07
-2.80921e-06
-1.77061e-06
1.57685e-06
-4.36879e-06
-4.44521e-06
2.84816e-06
2.79083e-06
-4.34279e-06
-8.67356e-08
-4.39866e-06
2.78758e-06
1.755e-06
-4.42099e-06
2.81253e-06
-2.6606e-06
-1.62524e-06
-1.60466e-06
-2.67261e-06
2.80237e-06
-4.36401e-06
-2.75909e-06
1.55703e-07
-1.7846e-06
1.97761e-07
-1.78078e-06
-1.73257e-06
1.55289e-07
4.30495e-06
1.43486e-07
-1.72982e-06
1.57737e-06
-2.58796e-06
-1.7485e-06
-2.59366e-06
1.57227e-06
1.44714e-07
-2.637e-06
4.29256e-06
-2.57103e-06
-1.5756e-06
-2.6119e-06
-9.19596e-08
-2.666e-06
-2.73118e-06
1.71102e-06
1.7061e-06
-2.74494e-06
-2.61444e-06
8.83618e-08
-8.43259e-07
-1.44732e-06
2.21021e-06
7.7941e-08
-8.46303e-07
-1.44185e-06
-7.85976e-07
3.77291e-08
-1.50872e-06
-1.52087e-06
5.10178e-08
-8.20814e-07
-1.36837e-06
2.30428e-06
-8.47555e-07
2.28572e-06
-1.44388e-06
-1.44136e-06
5.83882e-08
6.34403e-08
2.22088e-06
-8.43287e-07
-1.44104e-06
2.22668e-06
-8.42883e-07
5.69747e-08
-1.44078e-06
-8.20532e-07
2.28723e-06
1.97266e-08
-1.48644e-06
-1.47452e-06
2.27707e-06
-8.23213e-07
2.06526e-08
-1.38822e-06
2.2927e-06
-8.41046e-07
2.28673e-06
-1.44828e-06
-1.43575e-06
2.25393e-06
3.04455e-08
-2.23919e-08
-7.72435e-07
-1.59276e-06
2.37365e-06
-8.01325e-07
-1.42057e-08
-1.55813e-06
-8.00168e-07
-1.81862e-08
-1.65446e-06
-1.59586e-06
-7.92819e-07
-3.95814e-08
-1.58079e-06
2.37044e-06
-8.12045e-07
2.3774e-06
-1.58454e-06
-1.60781e-06
-3.05793e-08
-1.06722e-08
-1.54052e-06
-8.15861e-07
2.34923e-06
-1.50956e-06
-8.13052e-07
-2.66274e-08
-8.0613e-07
-1.57065e-06
-6.22693e-08
-1.53962e-06
-8.00838e-07
-6.47868e-08
-1.5258e-06
2.3292e-06
-8.14074e-07
2.33849e-06
-1.51506e-06
-1.5818e-06
-4.94412e-08
2.30479e-06
-1.38096e-06
-8.45894e-07
-8.32657e-07
-1.45429e-06
2.32467e-06
-1.42813e-06
2.31206e-06
-8.32913e-07
-3.75972e-08
-1.4464e-06
2.31941e-06
-8.35426e-07
2.25485e-06
1.47407e-06
-1.42412e-06
1.48058e-06
2.26863e-06
-8.32158e-07
2.32108e-06
2.28717e-06
-1.44724e-06
-1.47318e-06
2.30385e-06
1.46273e-06
2.32693e-06
-1.50244e-06
-2.27069e-06
2.31306e-06
-1.49666e-06
4.5287e-08
8.17759e-07
8.2604e-07
3.87025e-08
-1.49164e-06
2.32748e-06
1.55094e-06
-1.52332e-06
-1.52446e-06
2.33056e-06
-1.52071e-06
-2.35308e-06
-1.59323e-06
-7.92657e-07
-1.53815e-08
3.96201e-09
-8.19464e-07
-1.54899e-06
1.73092e-08
-2.34875e-06
-3.73007e-08
7.94375e-07
-1.12388e-08
1.53763e-06
-1.20162e-08
1.53627e-06
-2.331e-06
-2.36148e-06
1.53411e-06
-3.29919e-08
-9.17587e-08
1.0287e-06
1.55812e-06
1.04198e-06
-1.20193e-07
1.53947e-06
-2.46954e-06
-1.47028e-07
1.05972e-06
1.55685e-06
1.52081e-06
-1.5792e-07
1.02835e-06
1.44492e-06
9.14133e-07
9.29524e-07
1.55738e-06
1.39148e-06
1.04346e-06
-1.48539e-07
-1.51113e-07
1.02646e-06
1.49903e-06
1.02147e-06
-1.6277e-07
1.47549e-06
-2.31588e-06
1.0355e-06
-2.08626e-07
1.489e-06
1.43911e-06
1.00032e-06
-2.1032e-07
1.32028e-06
8.40397e-07
8.44545e-07
1.4972e-06
1.26019e-06
1.0193e-06
-2.11152e-07
-2.01652e-07
-2.3955e-06
1.05648e-06
1.5407e-06
1.04449e-06
-2.31541e-06
-2.31351e-07
1.50228e-06
-2.3221e-06
1.06273e-06
-2.61014e-07
1.5204e-06
1.49252e-06
-2.25319e-06
1.02712e-06
-2.66447e-07
1.30029e-06
7.97364e-07
-2.29928e-06
8.20527e-07
1.52425e-06
1.24272e-06
1.04717e-06
-2.58857e-07
-2.30162e-07
1.46444e-06
1.00731e-06
9.89953e-07
1.41381e-06
-2.39896e-07
-2.18866e-06
1.45694e-06
1.00672e-06
-2.74991e-07
1.41972e-06
9.66215e-07
-2.56994e-07
1.20314e-06
7.37892e-07
7.56189e-07
1.4369e-06
1.16204e-06
9.95569e-07
-2.70433e-07
8.67653e-07
1.36122e-06
-2.37098e-06
1.36922e-06
8.54741e-07
1.31119e-06
8.16268e-07
1.81791e-07
1.26563e-06
7.80097e-07
1.02661e-06
-1.47667e-06
1.31771e-06
-1.49291e-06
1.01284e-06
8.31116e-07
8.71976e-07
1.51571e-06
1.46329e-06
8.02658e-07
-1.30815e-06
8.38981e-07
1.50468e-06
-1.03298e-06
8.67293e-07
1.53491e-06
-1.89319e-07
2.37902e-06
2.29328e-06
-1.71835e-07
1.51788e-06
8.13294e-07
-1.51032e-06
1.31815e-06
1.04695e-06
1.25943e-06
1.02128e-06
1.00303e-06
1.19087e-06
-7.5997e-07
1.1955e-06
1.0214e-06
-2.32257e-06
-2.10194e-07
1.02244e-06
-2.32027e-07
-2.2079e-06
1.23773e-06
-2.10047e-07
-7.85227e-07
-2.72455e-07
2.23593e-06
-2.42407e-07
-1.23999e-06
-2.36441e-07
-1.47699e-06
-1.03234e-06
-1.02448e-06
-1.45904e-06
-2.47593e-07
4.12067e-06
-1.90818e-06
-6.03876e-07
-1.58591e-06
4.16477e-06
-1.96085e-06
-6.18007e-07
-5.986e-07
4.16294e-06
-1.9476e-06
-1.93026e-06
4.1482e-06
-6.13462e-07
2.203e-06
2.53291e-06
-6.15237e-07
2.54218e-06
-1.9251e-06
2.20846e-06
4.15204e-06
4.26234e-06
-1.56666e-06
-2.05096e-06
-6.44715e-07
-1.56415e-06
4.39758e-06
-2.14781e-06
-6.85623e-07
-6.28701e-07
-1.63334e-06
4.38518e-06
-2.12313e-06
-2.04444e-06
-1.58894e-06
4.30071e-06
-6.67339e-07
2.21882e-06
2.69633e-06
-6.52805e-07
2.74442e-06