/*--------------------------------*- C++ -*----------------------------------*\
| =========                 |                                                 |
| \\      /  F ield         | OpenFOAM: The Open Source CFD Toolbox           |
|  \\    /   O peration     | Version:  2506                                  |
|   \\  /    A nd           | Website:  www.openfoam.com                      |
|    \\/     M anipulation  |                                                 |
\*---------------------------------------------------------------------------*/
FoamFile
{
    version     2.0;
    format      ascii;
    arch        "LSB;label=32;scalar=64";
    class       volScalarField;
    location    "700";
    object      p;
}
// * * * * * * * * * * * * * * * * * * * * * * * * * * * * * * * * * * * * * //

dimensions      [0 2 -2 0 0 0 0];

internalField   nonuniform List<scalar> 
57792
(
-0.0219986
-0.0224784
-0.0185125
-0.018556
-0.0208063
-0.0212872
-0.019434
-0.0194027
-0.0235218
-0.0259896
-0.0158584
-0.0166629
-0.0222436
-0.0221756
-0.0176762
-0.018355
-0.0122067
-0.00910119
-0.0040436
-0.00660553
-0.00840609
-0.00749444
-0.00731005
-0.00559495
-0.0145375
-0.0127311
-0.00899591
-0.0107754
-0.0127263
-0.0123697
-0.0112971
-0.0101424
-0.0211629
-0.0162786
-0.0166769
-0.0157558
-0.0186406
-0.0176207
-0.0175333
-0.0165925
-0.0214785
-0.0150942
-0.0138171
-0.0165201
-0.0187765
-0.0162094
-0.016905
-0.0140646
-0.0145308
-0.0152126
-0.0133339
-0.00935043
-0.0134228
-0.0147033
-0.0113475
-0.0129833
-0.0139303
-0.00805313
-0.0127534
-0.0105817
-0.0111502
-0.0100734
-0.0121499
-0.0114287
-0.0222981
-0.0211226
-0.022109
-0.0191037
-0.0209098
-0.0217949
-0.0205379
-0.0211143
-0.0203082
-0.0194917
-0.0208633
-0.0170692
-0.0192688
-0.0200804
-0.018872
-0.0197617
-0.0236484
-0.0227613
-0.0271964
-0.017829
-0.0222555
-0.0235747
-0.0213622
-0.0237432
-0.0154194
-0.0145539
-0.0139481
-0.0117562
-0.0140393
-0.0145955
-0.0128843
-0.0135128
-0.0200896
-0.0210053
-0.0174188
-0.0166341
-0.0196657
-0.0201674
-0.0178073
-0.0183141
-0.0208697
-0.0173237
-0.0214636
-0.0220378
-0.0203685
-0.01948
-0.021475
-0.0205103
-0.0208072
-0.0165738
-0.0158783
-0.0158063
-0.0181747
-0.0171787
-0.0167454
-0.0161427
-0.0220554
-0.0167103
-0.0165597
-0.021432
-0.0205769
-0.0179065
-0.0199812
-0.0178219
-0.00626685
-0.0122434
-0.0139164
-0.00894603
-0.00788837
-0.010543
-0.00925172
-0.0113014
-0.0187941
-0.0248993
-0.0198372
-0.0164976
-0.0198115
-0.0219302
-0.017803
-0.0198675
-0.0163171
-0.0177314
-0.0163536
-0.0147793
-0.0164054
-0.017047
-0.0154836
-0.0162537
-0.0104957
-0.0126419
-0.0129911
-0.0106399
-0.0109809
-0.0121917
-0.0110662
-0.0120754
-0.0137636
-0.0142962
-0.00999972
-0.0137593
-0.0133975
-0.0129786
-0.0128029
-0.0123378
-0.0164863
-0.0154711
-0.018463
-0.0159949
-0.0160616
-0.0165025
-0.0168558
-0.0174816
-0.0136311
-0.0105464
-0.0134531
-0.013737
-0.0132948
-0.0119288
-0.0139963
-0.0127559
-0.0153551
-0.0145323
-0.0149181
-0.0175619
-0.0156175
-0.0150753
-0.0163322
-0.0155563
-0.00258679
-0.00905168
-0.00273386
-0.00578175
-0.00537954
-0.00558634
-0.00491261
-0.00529287
-0.0178018
-0.0259357
-0.0178276
-0.0161703
-0.0182121
-0.0214763
-0.0163883
-0.0185169
-0.0025989
-0.0101005
-0.00283213
-0.00660312
-0.00571173
-0.00583751
-0.00530726
-0.00602777
-0.00801135
-0.0116525
-0.00922362
-0.00957181
-0.00972334
-0.00981004
-0.0091485
-0.00996886
-0.0114294
-0.0052398
-0.00813961
-0.0122539
-0.0106397
-0.00728114
-0.0107114
-0.00817453
-0.0129035
-0.0130887
-0.0131033
-0.00554642
-0.0116628
-0.0139082
-0.00973216
-0.012042
-0.00464533
-0.00762851
-0.0117387
-0.00770305
-0.00653368
-0.00810374
-0.00852023
-0.00956591
-0.00534721
-0.00873731
-0.0125437
-0.0121415
-0.00742314
-0.00851943
-0.0111625
-0.0110819
-0.0201025
-0.0208297
-0.0219294
-0.0173675
-0.0196928
-0.0207021
-0.0193114
-0.0205701
-0.0217378
-0.023052
-0.0241601
-0.0190367
-0.0216698
-0.0229193
-0.0210187
-0.0227852
-0.0247353
-0.0257881
-0.0290615
-0.0191683
-0.0235365
-0.0260609
-0.0228984
-0.0255048
-0.0142427
-0.0153115
-0.0143607
-0.011726
-0.0137958
-0.0146867
-0.012873
-0.0137792
-0.0206076
-0.0216061
-0.0168468
-0.0178227
-0.0198922
-0.0201536
-0.0181953
-0.0179692
-0.0217785
-0.0189074
-0.0241669
-0.0229315
-0.0217529
-0.0210186
-0.0227815
-0.0225107
-0.021255
-0.0163753
-0.0169559
-0.0170003
-0.018414
-0.0174281
-0.0175271
-0.0169203
-0.0227713
-0.018141
-0.0183348
-0.0243291
-0.0222458
-0.0188188
-0.0219118
-0.019205
-0.00130412
-0.00126983
-0.000784654
-0.00571231
-0.00226587
-0.00173499
-0.00268395
-0.00279763
-0.00138357
-0.00126249
-0.000882789
-0.00526248
-0.0016627
-0.00198507
-0.00403338
-0.00254493
-0.000775154
-0.000914009
-0.000746701
-0.00338805
-0.0018876
-0.00135529
-0.00198367
-0.00244124
-0.00755757
-0.00696491
-0.00607194
-0.00852601
-0.00779091
-0.00744515
-0.00784298
-0.00701736
-0.00252365
-0.00206768
-0.00576872
-0.00561575
-0.00354801
-0.00288552
-0.00513351
-0.00519693
-0.00194542
-0.00568479
-0.00117739
-0.00151722
-0.00270658
-0.00351164
-0.00104447
-0.00150544
-0.00196879
-0.00592288
-0.00683206
-0.00525214
-0.00425357
-0.00534043
-0.00517631
-0.00604586
-0.00264623
-0.00478445
-0.00570146
-0.00237785
-0.0026963
-0.00469848
-0.00295761
-0.00436489
-0.00287076
-0.00263472
-0.0026555
-0.0105529
-0.00490476
-0.00263186
-0.00672577
-0.00498924
-0.00229969
-0.00210692
-0.00227908
-0.00836642
-0.003865
-0.00202715
-0.00545535
-0.00375673
-0.002665
-0.0025432
-0.00278949
-0.0108138
-0.0048046
-0.0025629
-0.00684082
-0.00510843
-0.014867
-0.0134757
-0.0151282
-0.0166267
-0.0156285
-0.0143196
-0.0165786
-0.0158894
-0.00429449
-0.00491571
-0.0119029
-0.0105002
-0.00596018
-0.0068317
-0.0094158
-0.010135
-0.00228513
-0.0088819
-0.00228929
-0.00257852
-0.00425385
-0.00583641
-0.00254386
-0.00425093
-0.00674439
-0.0134223
-0.0119829
-0.0133977
-0.0107077
-0.0120743
-0.0119802
-0.0129729
-0.0049775
-0.0122729
-0.0105814
-0.00422672
-0.00665971
-0.0102175
-0.00593282
-0.00953568
-0.00364
-0.0086846
-0.0117177
-0.00619055
-0.00538167
-0.0080318
-0.00679804
-0.00958346
-0.0166364
-0.0275524
-0.025677
-0.0181416
-0.0200003
-0.0241523
-0.0193862
-0.0240321
-0.0187661
-0.0240546
-0.0229569
-0.0186217
-0.0200258
-0.0226503
-0.0197844
-0.0218707
-0.00884267
-0.0133403
-0.01462
-0.0109359
-0.010529
-0.0123149
-0.0115589
-0.0130406
-0.0114758
-0.0132293
-0.0086413
-0.0137056
-0.0117522
-0.0115599
-0.0115242
-0.0107546
-0.0149077
-0.0167186
-0.0234751
-0.0171366
-0.0163436
-0.0181674
-0.0183816
-0.0197842
-0.0146089
-0.00968254
-0.0142692
-0.0155138
-0.013511
-0.0116711
-0.0148385
-0.0133492
-0.0171351
-0.0173581
-0.0170541
-0.0227933
-0.0185674
-0.0174046
-0.0196388
-0.0186054
-0.00248147
-0.00262677
-0.00891619
-0.00519561
-0.00311501
-0.00427094
-0.00555077
-0.00620017
-0.00302194
-0.00350808
-0.0112998
-0.00617482
-0.00385514
-0.0058223
-0.00673545
-0.00812048
-0.0137861
-0.0153691
-0.0166923
-0.0144234
-0.014462
-0.0157447
-0.0147126
-0.0156654
-0.00761697
-0.00825519
-0.0121955
-0.00981789
-0.00829641
-0.00940475
-0.00997442
-0.0104936
-0.00333797
-0.00966669
-0.00588417
-0.00636613
-0.00613624
-0.00726334
-0.00560889
-0.00703301
-0.00480702
-0.0079339
-0.0124412
-0.0108151
-0.00699952
-0.00826178
-0.0098268
-0.0106871
-0.0111131
-0.00791525
-0.00856575
-0.0124613
-0.0108131
-0.00851717
-0.0114886
-0.00956629
-0.0118247
-0.0131447
-0.00956207
-0.0131642
-0.0128108
-0.0125639
-0.0120977
-0.0117834
-0.00809999
-0.0180774
-0.0153704
-0.0145253
-0.0123217
-0.0157567
-0.0131977
-0.0165553
-0.0216954
-0.0217502
-0.020113
-0.0224059
-0.021795
-0.0216677
-0.021546
-0.0215442
-0.0172244
-0.0184112
-0.0169302
-0.018617
-0.018289
-0.0179432
-0.0178849
-0.0176771
-0.021939
-0.0242381
-0.0210643
-0.0272421
-0.0239919
-0.0237481
-0.024144
-0.0235681
-0.0204311
-0.0171116
-0.0186246
-0.0227567
-0.0205781
-0.0183442
-0.0225947
-0.0208086
-0.0211608
-0.0223146
-0.0198074
-0.0185579
-0.0212487
-0.0210847
-0.01872
-0.0199169
-0.0171292
-0.019282
-0.0225377
-0.019581
-0.0183107
-0.0209865
-0.0198029
-0.0216903
-0.0185863
-0.0197985
-0.0220602
-0.019722
-0.018908
-0.0197929
-0.0196007
-0.0206848
-0.0224707
-0.0210453
-0.018921
-0.0228568
-0.0228716
-0.021173
-0.0219806
-0.0201732
-0.0161072
-0.00526792
-0.0043256
-0.0135888
-0.0133988
-0.00800945
-0.0118594
-0.00631866
-0.011937
-0.00387921
-0.00360866
-0.00859781
-0.00815528
-0.00589839
-0.0073056
-0.004942
-0.0244648
-0.0210259
-0.0156794
-0.0275975
-0.025153
-0.0212124
-0.0239875
-0.0197175
-0.0204214
-0.0172651
-0.0238967
-0.0194681
-0.0192641
-0.0192223
-0.0211542
-0.0210066
-0.0170478
-0.015355
-0.00641903
-0.014803
-0.0156248
-0.0139834
-0.0140746
-0.00999557
-0.0161462
-0.0226369
-0.0181083
-0.0139655
-0.0168891
-0.0199439
-0.0147779
-0.0182761
-0.0137353
-0.0109836
-0.0137063
-0.00499291
-0.0113916
-0.0124229
-0.00886883
-0.0109411
-0.715456
-0.183424
-0.258353
-0.925592
-0.214804
0.121607
-0.461922
-0.131741
-0.0886854
-0.0140509
-0.0608144
-0.0604915
-0.0553116
-0.0238752
-0.08285
-0.0534287
-0.13513
-0.120609
-0.0617115
-0.0862614
-0.0282906
0.0116237
-0.164832
-0.0215362
-0.822096
-0.129945
-0.125151
-0.458756
-0.15784
0.110685
-0.379838
-0.0921869
-0.108317
-0.0925821
-0.158277
-0.118549
-0.177802
-0.0793805
-0.166432
0.152391
-0.0490358
0.0089459
-0.00758635
-0.0467733
-0.12472
-0.0811456
-0.172889
-0.0843029
-0.214859
-0.383669
-0.218778
-0.203239
-0.153727
-0.017965
-0.0307064
-0.0414909
-0.080286
-0.0532705
-0.109656
-0.0902606
-0.0278525
0.00172886
-0.159183
-0.142626
-0.536819
-0.208061
-0.205557
-0.821874
-0.206038
0.0823677
-0.372805
-0.136314
-0.0894261
-0.0128844
-0.0607536
-0.0694718
-0.0540281
-0.00937424
-0.0833565
-0.0457081
-0.131675
-0.127005
-0.077284
-0.091112
-0.0841365
-0.072448
-0.164667
-0.076847
-0.704803
-0.123206
-0.131594
-0.433242
-0.171898
0.0496535
-0.334231
-0.100399
-0.104536
-0.127333
-0.1881
-0.116149
-0.171373
-0.131244
-0.137274
0.0647497
-0.0421459
-0.0371789
-0.0339411
-0.107539
-0.0947346
-0.0960602
-0.147337
-0.0912641
-0.206396
-0.351197
-0.179934
-0.194531
-0.160882
-0.0574964
-0.0728812
-0.0765137
-0.108238
-0.0805622
-0.103381
-0.080254
-0.0854172
-0.0578427
-0.128073
-0.148664
-0.557182
-0.12685
-0.458198
-0.201052
-0.143315
0.0630495
-0.281351
-0.0677906
-0.0268587
-0.000695997
-0.0137922
0.0134416
0.00242935
0.0131332
0.003394
0.000139895
-0.337511
-0.0727106
-0.247256
-0.124758
-0.11873
0.00639854
-0.179553
-0.0855706
-0.0873516
0.0119482
-0.0824367
-0.0454408
-0.14361
-0.0021534
-0.0888162
-0.103921
-0.0323576
-0.129627
-0.114021
0.00691526
-0.0445905
-0.10075
-0.0234809
-0.053673
0.0353252
0.000303973
0.0259023
0.0359652
-0.00973765
-0.0183364
-0.115201
-0.00987074
-0.21508
-0.13824
-0.000906743
-0.134032
-0.149571
-0.0790126
-0.108723
-0.0436997
-0.0892397
-0.0804107
-0.00404338
-0.0197394
-0.0863304
-0.0488233
-0.0286823
-0.0192602
-0.335956
-0.590162
-0.112426
-0.1502
-0.303066
-0.169839
-0.105557
0.0757384
-0.649373
-0.939603
-0.0788106
-0.266576
-0.443299
-0.285599
-0.147504
0.000838673
-0.0544463
-0.0490403
-0.0139752
-0.0485489
-0.0571564
-0.0420997
-0.0380391
-0.0411557
-0.102191
-0.193008
-0.115235
-0.0781628
-0.162331
-0.0866312
-0.0525142
-0.0649071
-0.333638
-0.179693
-0.191962
-0.310668
-0.0739788
-0.0690184
-0.189494
-0.0760846
-0.148295
-0.146939
-0.156564
-0.121795
0.0116663
-0.170535
-0.160665
-0.216263
-0.109318
-0.0840239
-0.140152
-0.113156
-0.148478
-0.0484413
-0.121438
-0.0624122
-0.03391
-0.0824591
-0.118914
-0.0600777
-0.0940429
-0.104711
-0.145953
-0.186893
-0.419904
-0.103865
-0.0882684
-0.468198
-0.172216
0.172452
-0.357419
-0.261774
-0.0136701
0.000343389
0.0218457
-0.015752
0.00306573
0.0448651
-0.00403316
-0.00335022
-0.0441738
0.0010597
-0.0872757
-0.18585
-0.0402549
0.0325002
-0.021641
-0.0109491
-0.362005
-0.0748634
-0.241603
-0.241686
-0.137376
-0.0508741
-0.135355
-0.113829
-0.015278
-0.118601
-0.139399
-0.0279042
-0.0339892
-0.0626279
-0.12195
0.0853418
0.08663
0.00267219
0.0284094
-0.0225381
-0.0156201
0.00602957
0.0308476
-0.00351249
-0.0741277
-0.258327
-0.0203898
-0.0299239
-0.14116
-0.176803
-0.13199
-0.123247
-0.0799989
-0.081662
-0.0194911
-0.00220855
-0.039523
-0.119536
-0.0253089
0.00160887
-0.238198
-0.307548
-0.145701
-0.0931983
-0.117185
-0.180597
0.0319268
-0.145842
-0.322997
-0.388424
-0.244578
-0.0506865
-0.170051
-0.201813
-0.00968458
-0.0951913
-0.124289
-0.149099
-0.103663
-0.00212412
-0.0711117
-0.0585766
0.0107444
-0.0140755
0.00431382
0.0206987
0.019395
0.0172763
-0.00394903
0.0151747
0.0145346
0.0175636
-0.159488
-0.105078
-0.0457155
-0.0344998
-0.00235038
-0.10792
-0.0651987
-0.0114381
-0.243331
-0.0164835
-0.115246
-0.106212
-0.174105
-0.147445
-0.204075
-0.127443
-0.0491369
-0.0160322
-0.0071367
0.0028015
0.0208762
-0.016577
-0.0130859
-0.0130387
-0.0912042
0.00656439
0.00882229
-0.0793161
-0.0649267
-0.00802998
-0.109599
-0.00671482
-0.014375
-0.0135057
-0.0155355
-0.0134433
-0.0139841
-0.0143275
-0.0141498
-0.0145773
-0.0105165
-0.00431252
-0.0117319
-0.00721788
-0.00876927
-0.00846241
-0.00932798
-0.00928011
-0.0169993
-0.0164604
-0.0182914
-0.0159888
-0.0168062
-0.0174806
-0.0170107
-0.0176817
-0.0123176
-0.00919281
-0.0132623
-0.0107599
-0.011472
-0.0114468
-0.0119441
-0.0118735
-0.0125475
-0.0153816
-0.0129127
-0.0103881
-0.0128694
-0.0139972
-0.0117386
-0.0129252
-0.0126934
-0.0101633
-0.0146376
-0.0158185
-0.0132804
-0.0119028
-0.0147253
-0.0141648
-0.015524
-0.0131664
-0.0109315
-0.0144935
-0.01468
-0.0132865
-0.0141083
-0.0126046
-0.0160032
-0.0146957
-0.0106661
-0.0149779
-0.0156597
-0.0144047
-0.0145047
-0.0127792
-0.0184531
-0.0170272
-0.0166485
-0.0162279
-0.0174963
-0.0173637
-0.0168056
-0.0165842
-0.0155623
-0.0144039
-0.0135651
-0.0135269
-0.0148413
-0.0147431
-0.0142462
-0.0140217
-0.0123224
-0.0108172
-0.00503454
-0.00790695
-0.0108497
-0.0102393
-0.00796635
-0.00700334
-0.0136607
-0.0123018
-0.00956253
-0.0108963
-0.0123645
-0.0119043
-0.0109761
-0.0105181
-0.0160328
-0.0153286
-0.0150215
-0.0138909
-0.0153809
-0.0155842
-0.014733
-0.0146882
-0.0158681
-0.0135946
-0.0135357
-0.0150222
-0.0151221
-0.0144003
-0.0150391
-0.0138319
-0.0136645
-0.0139393
-0.0128206
-0.00965738
-0.01333
-0.0136312
-0.0117591
-0.0126104
-0.0130931
-0.00900592
-0.0124246
-0.0118355
-0.0120509
-0.0112059
-0.012301
-0.0115952
-0.010267
-0.0184613
-0.0188554
-0.0160929
-0.014487
-0.0169151
-0.0155612
-0.0179356
-0.021164
-0.0215599
-0.0216992
-0.0201105
-0.0217146
-0.0218944
-0.0209136
-0.021315
-0.0221894
-0.0218931
-0.0224443
-0.0205951
-0.0216354
-0.0220079
-0.0212107
-0.021702
-0.0174701
-0.018381
-0.0187271
-0.0171149
-0.0178605
-0.0185437
-0.0176945
-0.0179972
-0.0206196
-0.0199687
-0.0175729
-0.0195414
-0.0200176
-0.0197521
-0.0187566
-0.0189973
-0.0214353
-0.020126
-0.0218403
-0.0213319
-0.0209171
-0.0212176
-0.0216147
-0.0214208
-0.0199144
-0.0178514
-0.0191779
-0.0193108
-0.0197445
-0.0188844
-0.0195666
-0.0191246
-0.0213746
-0.0198545
-0.0196227
-0.021401
-0.0209583
-0.0202024
-0.0208694
-0.0201656
-0.00312063
-0.00920218
-0.00619251
-0.00651811
-0.00595012
-0.00747149
-0.00541455
-0.00709534
-0.0123227
-0.01365
-0.0127545
-0.0128858
-0.0133104
-0.0135624
-0.0129082
-0.0132228
-0.00834943
-0.0115866
-0.0100412
-0.00996174
-0.00997072
-0.0107965
-0.00944259
-0.0103454
-0.00833402
-0.0117624
-0.00997292
-0.0100678
-0.00978159
-0.0104821
-0.00947015
-0.0102793
-0.0108399
-0.00815723
-0.00829176
-0.0114797
-0.0106128
-0.00878266
-0.0112958
-0.00933408
-0.0117524
-0.0122038
-0.0123217
-0.00934943
-0.0112838
-0.0122608
-0.0104451
-0.0117943
-0.0076415
-0.00781357
-0.0112148
-0.00925918
-0.00834464
-0.0090278
-0.00962178
-0.010035
-0.00897055
-0.0101746
-0.0120183
-0.0119298
-0.0105567
-0.0104169
-0.0112652
-0.0114593
-0.022309
-0.0211025
-0.0201963
-0.0184501
-0.0212634
-0.0212652
-0.0199463
-0.0200042
-0.020104
-0.0192544
-0.0181588
-0.0170086
-0.0191414
-0.0191841
-0.0179073
-0.018058
-0.018242
-0.0172058
-0.016648
-0.0153474
-0.0171871
-0.0172391
-0.0162593
-0.01633
-0.0150968
-0.0142593
-0.0135813
-0.0119234
-0.0140494
-0.0142904
-0.0130586
-0.0134371
-0.0199998
-0.0190158
-0.0176297
-0.0166365
-0.0188603
-0.0187798
-0.0177666
-0.0177947
-0.0200455
-0.0168162
-0.0180047
-0.0190591
-0.0189169
-0.0178325
-0.0190162
-0.0179457
-0.017988
-0.0163607
-0.0155141
-0.0148777
-0.0167876
-0.01659
-0.0158082
-0.0154956
-0.0180216
-0.0151063
-0.015806
-0.0169775
-0.0170141
-0.0159366
-0.0168578
-0.015913
-0.00329878
-0.00313727
-0.00368622
-0.0144365
-0.006796
-0.00339576
-0.00957335
-0.00664035
-0.00282695
-0.00224566
-0.00271167
-0.0108013
-0.00518386
-0.00252998
-0.00729929
-0.0047738
-0.00313636
-0.00290397
-0.00312596
-0.0149277
-0.0058331
-0.0029846
-0.00797275
-0.00562911
-0.0202497
-0.0181791
-0.0207085
-0.0222018
-0.0206238
-0.019359
-0.0217375
-0.0210701
-0.00578398
-0.00634793
-0.0162181
-0.0140307
-0.00803603
-0.00894439
-0.0126924
-0.0137662
-0.0030296
-0.0116126
-0.00264835
-0.00327285
-0.00560388
-0.00783185
-0.00310964
-0.00531472
-0.0088118
-0.017913
-0.0160577
-0.0181811
-0.0143495
-0.0163821
-0.0166993
-0.018033
-0.00620611
-0.0172403
-0.0143458
-0.00484532
-0.00837361
-0.0142398
-0.00724596
-0.0130589
-0.0165176
-0.0169212
-0.0180664
-0.0154627
-0.0162473
-0.0168221
-0.016255
-0.0168277
-0.0179159
-0.0190671
-0.019689
-0.0167268
-0.0177546
-0.0188075
-0.0176549
-0.0187401
-0.0197945
-0.0205014
-0.0216737
-0.0190717
-0.0196463
-0.0204644
-0.019711
-0.0204493
-0.0137377
-0.0143406
-0.0154767
-0.0121362
-0.0132526
-0.0142217
-0.0129882
-0.013895
-0.0167576
-0.0178058
-0.0150146
-0.0156288
-0.0166979
-0.0166565
-0.0157918
-0.0157233
-0.0176601
-0.0165751
-0.0196132
-0.0186426
-0.0175707
-0.0174939
-0.0186804
-0.0185951
-0.0177864
-0.0149065
-0.0154038
-0.0163692
-0.0166046
-0.0156324
-0.0164858
-0.0153287
-0.0186256
-0.0171968
-0.0164372
-0.0196225
-0.0184584
-0.0174021
-0.0185553
-0.0174289
-0.00437329
-0.012663
-0.00412788
-0.0104151
-0.00839479
-0.00913126
-0.00748712
-0.00827458
-0.0164056
-0.0177192
-0.0164951
-0.0191092
-0.0176838
-0.01772
-0.0177144
-0.0178168
-0.00412333
-0.012404
-0.00439102
-0.0110767
-0.00820765
-0.00905551
-0.00712884
-0.00824251
-0.0179724
-0.0216936
-0.0194427
-0.026154
-0.0226384
-0.0216536
-0.0225905
-0.0225327
-0.0150326
-0.00800393
-0.0154616
-0.0194517
-0.0150161
-0.0110486
-0.0171567
-0.0157667
-0.0151979
-0.0192788
-0.01519
-0.00915185
-0.0150992
-0.0166752
-0.0127288
-0.0150513
-0.00680984
-0.0149427
-0.0194371
-0.0144669
-0.0108117
-0.0154754
-0.0157215
-0.0176054
-0.00822467
-0.0152893
-0.0196405
-0.0151218
-0.0108274
-0.0152735
-0.0150051
-0.0175084
-0.0165823
-0.0150059
-0.0136409
-0.014357
-0.0158313
-0.015485
-0.0148558
-0.0140646
-0.0107803
-0.0035972
-0.00327456
-0.0068442
-0.00812292
-0.00572972
-0.00726942
-0.00423183
-0.00891107
-0.00293728
-0.00265445
-0.00518553
-0.00609732
-0.00431744
-0.00547533
-0.00329096
-0.012145
-0.0082175
-0.00751226
-0.00961569
-0.010856
-0.00928966
-0.00993623
-0.00812365
-0.0131285
-0.0118646
-0.013499
-0.0100279
-0.0120893
-0.0127353
-0.0115307
-0.0123451
-0.0121789
-0.00788456
-0.00479632
-0.0107029
-0.0102774
-0.00844611
-0.00968365
-0.00711903
-0.0110541
-0.0124726
-0.00868292
-0.00799539
-0.0105448
-0.0110522
-0.00874699
-0.00963607
-0.00949365
-0.0058884
-0.0065946
-0.00366447
-0.00726277
-0.00699149
-0.00610455
-0.00581216
-0.00547633
-0.0126575
-0.0134294
-0.0122138
-0.00941044
-0.0108632
-0.0113216
-0.0130865
-0.0216517
-0.0288478
-0.0225033
-0.0277927
-0.0246105
-0.0243193
-0.0242452
-0.0256273
-0.0170483
-0.0197794
-0.018115
-0.0198766
-0.019061
-0.0185521
-0.0191063
-0.0188493
-0.0212535
-0.0279169
-0.0226384
-0.0287381
-0.0256943
-0.0242566
-0.0249296
-0.0255301
-0.0171717
-0.0167197
-0.0182006
-0.0249248
-0.0184774
-0.016983
-0.0205684
-0.0182337
-0.0183258
-0.0240069
-0.0206391
-0.0169307
-0.0198939
-0.0216128
-0.0187264
-0.0210744
-0.0172398
-0.019137
-0.0246287
-0.0215425
-0.0184371
-0.0197139
-0.0217697
-0.0218858
-0.0176754
-0.021237
-0.025264
-0.0209408
-0.0197976
-0.0207961
-0.0210241
-0.0221507
-0.00516793
-0.0175119
-0.00381999
-0.0121394
-0.0106255
-0.0115333
-0.00831858
-0.00920431
-0.0221141
-0.0231577
-0.0186297
-0.0249368
-0.0234958
-0.0227587
-0.0227948
-0.0223264
-0.00361577
-0.0112306
-0.00295421
-0.00871597
-0.00695036
-0.00759654
-0.00531073
-0.00641914
-0.0197041
-0.0264991
-0.0168735
-0.0298807
-0.0245194
-0.0235916
-0.0238159
-0.0235141
-0.0198937
-0.00843582
-0.0175493
-0.0238972
-0.0189442
-0.0129958
-0.0226334
-0.0175604
-0.0197896
-0.0232697
-0.0167575
-0.00921569
-0.0187044
-0.0206981
-0.0138459
-0.0169007
-0.00672762
-0.0161029
-0.0226407
-0.0125514
-0.00966717
-0.0166481
-0.0144032
-0.0191218
-0.00793305
-0.013318
-0.0223088
-0.0159577
-0.0113256
-0.0144659
-0.0156577
-0.0187313
-0.0164487
-0.0137679
-0.0144443
-0.0142432
-0.01525
-0.0144895
-0.0148346
-0.0141309
-0.00890455
-0.00298533
-0.00581331
-0.00559924
-0.00653122
-0.00526695
-0.00639158
-0.00517628
-0.0122709
-0.00797829
-0.0101045
-0.00976388
-0.0105563
-0.00972504
-0.0103607
-0.00945561
-0.0122361
-0.00785316
-0.00975863
-0.0100131
-0.0108324
-0.00950706
-0.0105626
-0.00927548
-0.0116558
-0.0129026
-0.0131078
-0.00888059
-0.0114071
-0.0126403
-0.0107137
-0.0120327
-0.0107392
-0.0075383
-0.00744666
-0.0121264
-0.010403
-0.00826912
-0.0109044
-0.00879356
-0.012581
-0.0127295
-0.00861588
-0.0103349
-0.0119874
-0.0117145
-0.0105973
-0.0101418
-0.0118811
-0.00918076
-0.0072071
-0.00728249
-0.0100566
-0.009407
-0.00852518
-0.00776
-0.00620907
-0.0141052
-0.0155151
-0.00973469
-0.00912434
-0.0132867
-0.0112906
-0.0128592
-0.0218483
-0.0267122
-0.0239857
-0.0179448
-0.0222401
-0.0248706
-0.020524
-0.0231754
-0.0195981
-0.021748
-0.0200135
-0.0170451
-0.0192013
-0.0208261
-0.018338
-0.0194345
-0.0106214
-0.0130776
-0.0139951
-0.0110693
-0.0111292
-0.0125763
-0.0117335
-0.0126876
-0.0159576
-0.0166707
-0.0107175
-0.0148749
-0.015108
-0.0145025
-0.0134007
-0.0127756
-0.0205161
-0.017027
-0.0224485
-0.0196077
-0.0191168
-0.019327
-0.0209452
-0.0209672
-0.0169978
-0.0117814
-0.0143227
-0.0153967
-0.0147369
-0.0129123
-0.0151433
-0.0139252
-0.018312
-0.0161609
-0.0163448
-0.0211345
-0.0183598
-0.0165538
-0.0190713
-0.0173977
-0.00195192
-0.00236733
-0.00827689
-0.00217953
-0.00191747
-0.00353782
-0.00344763
-0.00490711
-0.00268019
-0.00263477
-0.0108482
-0.00273736
-0.00230183
-0.00433772
-0.00461837
-0.00675058
-0.0136854
-0.0153807
-0.0171577
-0.0159046
-0.0143974
-0.0159379
-0.0159377
-0.0171414
-0.00264676
-0.00277993
-0.0107947
-0.00295619
-0.00238852
-0.00470004
-0.00453199
-0.00701829
-0.00218807
-0.00868493
-0.00224395
-0.00236482
-0.00395782
-0.00542557
-0.00254357
-0.00396682
-0.00388543
-0.00460703
-0.0117448
-0.0102556
-0.00572291
-0.00676466
-0.00923238
-0.00986158
-0.0102787
-0.00402511
-0.00464333
-0.0120272
-0.00963265
-0.00562711
-0.00989875
-0.00670472
-0.0116261
-0.0136226
-0.00708489
-0.0136334
-0.0127761
-0.0119472
-0.011758
-0.0108538
-0.0084163
-0.0192357
-0.0196774
-0.0171061
-0.0126062
-0.0181461
-0.0167343
-0.0194513
-0.0228703
-0.0229826
-0.0226015
-0.0241495
-0.0225358
-0.0228431
-0.0231774
-0.0232835
-0.0230388
-0.0225097
-0.0226008
-0.0245152
-0.0229143
-0.0227424
-0.0236561
-0.0231203
-0.0261913
-0.0267482
-0.0277409
-0.0319843
-0.0252184
-0.0273535
-0.030216
-0.0287951
-0.0203969
-0.0212269
-0.0193455
-0.0238888
-0.0230383
-0.0213531
-0.0247215
-0.023788
-0.022534
-0.0242557
-0.0226044
-0.0229105
-0.0234078
-0.0231442
-0.0227905
-0.0227816
-0.0233601
-0.0245047
-0.0251391
-0.0260936
-0.0245917
-0.0253015
-0.0247692
-0.025271
-0.0237654
-0.0257409
-0.0250879
-0.0230343
-0.023343
-0.0248119
-0.0232409
-0.0241309
-0.00517317
-0.0168766
-0.00523471
-0.0145689
-0.0115833
-0.012432
-0.0100633
-0.0112039
-0.0219541
-0.0233639
-0.0225691
-0.0249114
-0.0232256
-0.0231289
-0.0235731
-0.0232038
-0.00453973
-0.017649
-0.00537561
-0.0129452
-0.0101734
-0.0112411
-0.00890418
-0.0101937
-0.0238241
-0.0275336
-0.0229087
-0.031713
-0.0290604
-0.0277524
-0.0291255
-0.0278972
-0.0205194
-0.010832
-0.0206614
-0.0254785
-0.0201989
-0.015106
-0.0231786
-0.0206191
-0.0205698
-0.0250762
-0.0207852
-0.0119038
-0.0202669
-0.0226558
-0.0171157
-0.020259
-0.00926056
-0.0196676
-0.0254394
-0.0186933
-0.0135789
-0.0200417
-0.0197057
-0.0229019
-0.0105465
-0.0191762
-0.0253526
-0.0206043
-0.0145837
-0.0198766
-0.0200487
-0.0230707
-0.00333477
-0.0111555
-0.00321877
-0.00632524
-0.00628159
-0.00732859
-0.00488331
-0.00577576
-0.0155501
-0.0170973
-0.0136383
-0.0146999
-0.0156756
-0.0159161
-0.0144039
-0.0147781
-0.00273188
-0.00846917
-0.00254496
-0.0051369
-0.00481671
-0.00550992
-0.00394981
-0.00460206
-0.00838758
-0.012193
-0.00760446
-0.00978877
-0.00983701
-0.0103068
-0.00882861
-0.00938747
-0.0129925
-0.00532977
-0.00858379
-0.0127347
-0.0113116
-0.00792733
-0.0119375
-0.00941329
-0.0135095
-0.013067
-0.0115814
-0.00618198
-0.012
-0.0128755
-0.009601
-0.0110723
-0.00423764
-0.00715345
-0.0115957
-0.00646579
-0.00574107
-0.00809307
-0.00742084
-0.00936543
-0.0050799
-0.00711503
-0.012044
-0.0103704
-0.00702857
-0.00816597
-0.00971405
-0.0105032
-0.00377452
-0.00682055
-0.00957411
-0.00667044
-0.00491415
-0.00676072
-0.006499
-0.00786209
-0.00871427
-0.00971257
-0.0116518
-0.00963123
-0.00887387
-0.00982808
-0.00967092
-0.0106561
-0.0127832
-0.013075
-0.0139786
-0.0130936
-0.0129036
-0.0133519
-0.0132959
-0.0136838
-0.00832084
-0.00963657
-0.0116332
-0.00977709
-0.00877329
-0.00971831
-0.00987266
-0.010704
-0.00734564
-0.0101621
-0.007266
-0.00867181
-0.00858459
-0.00875398
-0.00846101
-0.00847912
-0.0086944
-0.00958453
-0.011907
-0.0111249
-0.0096802
-0.00994247
-0.0108851
-0.0110988
-0.0110106
-0.00837909
-0.00964804
-0.0117166
-0.0109246
-0.0096415
-0.0109995
-0.00990245
-0.0118128
-0.0124314
-0.0105889
-0.0124314
-0.0120004
-0.0116689
-0.0116926
-0.0115118
-0.0075777
-0.0155419
-0.0186434
-0.016763
-0.0123753
-0.0150172
-0.0157244
-0.0183433
-0.0236428
-0.0313658
-0.0253682
-0.0314069
-0.0309385
-0.0290976
-0.0290105
-0.0282866
-0.0223252
-0.0236461
-0.0230146
-0.0250571
-0.0241497
-0.0235747
-0.0240128
-0.0233688
-0.0262629
-0.0332585
-0.0285098
-0.0344369
-0.0322921
-0.0307151
-0.0314685
-0.0312285
-0.0212414
-0.0220635
-0.0223112
-0.0305402
-0.0225955
-0.0214964
-0.0246237
-0.0227492
-0.0220073
-0.02918
-0.0253048
-0.0220724
-0.0240305
-0.0270465
-0.022652
-0.0262225
-0.0227208
-0.0238132
-0.0300172
-0.0266388
-0.0246798
-0.0256012
-0.0272604
-0.028498
-0.0228446
-0.0257921
-0.0297112
-0.0249161
-0.0250668
-0.0262868
-0.0255936
-0.0271067
-0.00125889
-0.000860456
-0.0010969
-0.00427387
-0.00204068
-0.00148343
-0.00271847
-0.00232599
-0.00110618
-0.0013075
-0.00123512
-0.00521545
-0.00299494
-0.00235663
-0.00422532
-0.00334559
-0.00114751
-0.000886862
-0.00114338
-0.00391059
-0.00180527
-0.00134648
-0.00294403
-0.0024723
-0.00684712
-0.00738109
-0.00675134
-0.008706
-0.0075317
-0.00686399
-0.00834275
-0.00791071
-0.00218519
-0.00178212
-0.00529067
-0.00627956
-0.00319016
-0.0026036
-0.00507949
-0.00493757
-0.00184944
-0.00521811
-0.00199463
-0.00155557
-0.00252654
-0.00276944
-0.00138179
-0.00179143
-0.00268431
-0.00565968
-0.00738714
-0.00641373
-0.00421892
-0.00501091
-0.00521484
-0.00574189
-0.00227058
-0.00579832
-0.00684558
-0.00270652
-0.00255088
-0.00459268
-0.0033935
-0.00496361
-0.00129424
-0.00132686
-0.000622987
-0.00807006
-0.00321371
-0.00166617
-0.00428754
-0.00267473
-0.00142683
-0.00147247
-0.00235187
-0.00822576
-0.00225374
-0.00109802
-0.00395975
-0.00226817
-0.000770343
-0.00227101
-0.00160603
-0.00559882
-0.00162036
-0.000915695
-0.00235087
-0.00206094
-0.0152721
-0.0174223
-0.0123142
-0.0222836
-0.017504
-0.0155786
-0.0178066
-0.0167635
-0.00229748
-0.00238968
-0.00977154
-0.00944429
-0.00444456
-0.00414941
-0.00841935
-0.00806755
-0.00108366
-0.00686381
-0.000902934
-0.00121247
-0.00254932
-0.00396192
-0.00156809
-0.00134678
-0.00333721
-0.0114371
-0.0107488
-0.00867154
-0.00516519
-0.0094437
-0.00829361
-0.0108364
-0.0023552
-0.00781972
-0.0082722
-0.00204673
-0.00354334
-0.00629633
-0.00330932
-0.00826492
-0.00376294
-0.00310675
-0.0111424
-0.00661672
-0.00411442
-0.00498368
-0.00682934
-0.0079363
-0.00263777
-0.00221847
-0.0084314
-0.005184
-0.00313787
-0.00389584
-0.00536697
-0.00612737
-0.015332
-0.0136286
-0.0169531
-0.014622
-0.0149477
-0.015227
-0.0153231
-0.0155086
-0.00828263
-0.00752079
-0.0122637
-0.00973077
-0.00839006
-0.00877549
-0.00988827
-0.010368
-0.00364029
-0.0109118
-0.00672741
-0.00610773
-0.00596495
-0.0078936
-0.00575209
-0.0072112
-0.00434973
-0.00656257
-0.0102042
-0.0115158
-0.00692425
-0.0069527
-0.00939207
-0.00962589
-0.012314
-0.00858912
-0.00782229
-0.0125845
-0.011672
-0.00930964
-0.0115094
-0.00926474
-0.0129654
-0.0129354
-0.00838907
-0.0115692
-0.0125514
-0.0118734
-0.010968
-0.0104779
-0.00197527
-0.00847893
-0.00251374
-0.0053296
-0.00448392
-0.00478481
-0.00457177
-0.00472338
-0.0163201
-0.0253069
-0.0196365
-0.0165972
-0.0191933
-0.022175
-0.0177921
-0.0206293
-0.00295719
-0.0106815
-0.00298709
-0.00752865
-0.00582439
-0.00686041
-0.00521882
-0.00574165
-0.00748381
-0.0117278
-0.00921122
-0.0097962
-0.00920332
-0.0105128
-0.00872788
-0.0100311
-0.0107613
-0.00541468
-0.00724884
-0.0120599
-0.0103874
-0.00658015
-0.0103303
-0.00798098
-0.0114474
-0.0139181
-0.0138555
-0.00549567
-0.0110671
-0.013696
-0.00890932
-0.012048
-0.00492014
-0.00701822
-0.0114032
-0.00758456
-0.00631904
-0.00771651
-0.00807103
-0.00915537
-0.00528201
-0.00897321
-0.0128631
-0.0124467
-0.00732838
-0.00952636
-0.0115881
-0.0114624
-0.00659921
-0.0191578
-0.0141889
-0.0150906
-0.0116609
-0.0146734
-0.0127579
-0.0156671
-0.0237014
-0.0229275
-0.0245224
-0.0250087
-0.0232182
-0.0231409
-0.024248
-0.023783
-0.023228
-0.0275068
-0.0326594
-0.0310837
-0.0278487
-0.0294744
-0.029798
-0.0315631
-0.0256018
-0.0287798
-0.0309837
-0.0334816
-0.0286051
-0.0300958
-0.031421
-0.0321267
-0.0210766
-0.0203132
-0.0200379
-0.0259701
-0.0225077
-0.0209706
-0.0242264
-0.0230969
-0.0226612
-0.0261935
-0.0256877
-0.0218867
-0.0236051
-0.024698
-0.0240835
-0.0248634
-0.0211855
-0.0216082
-0.0272007
-0.0302147
-0.0241841
-0.0251477
-0.0283611
-0.028336
-0.0234292
-0.0311996
-0.0272837
-0.0265599
-0.0276142
-0.0293828