/*--------------------------------*- C++ -*----------------------------------*\
| =========                 |                                                 |
| \\      /  F ield         | OpenFOAM: The Open Source CFD Toolbox           |
|  \\    /   O peration     | Version:  2506                                  |
|   \\  /    A nd           | Website:  www.openfoam.com                      |
|    \\/     M anipulation  |                                                 |
\*---------------------------------------------------------------------------*/
FoamFile
{
    version     2.0;
    format      ascii;
    arch        "LSB;label=32;scalar=64";
    class       volScalarField;
    location    "500";
    object      p;
}
// * * * * * * * * * * * * * * * * * * * * * * * * * * * * * * * * * * * * * //

dimensions      [0 2 -2 0 0 0 0];

internalField   nonuniform List<scalar> 
49664
(
-0.272221
-0.127026
-0.0606033
-0.0406482
-0.323271
-0.13733
-0.040189
-0.178715
-0.167205
-0.185305
-0.142946
-0.0420769
-0.153993
-0.0165075
-0.237629
-0.199544
0.0138368
-0.0252462
0.110441
0.122488
0.0692623
-0.0422045
0.138092
0.110836
0.116677
0.075377
0.135915
0.162538
0.152075
0.0831203
0.116231
0.121298
-0.181425
0.115196
-0.0371261
0.0579154
-0.277392
-0.0765303
-0.0200023
-0.00233101
-0.076242
-0.00738719
-0.0699487
-0.155208
-0.121045
-0.136522
-0.181792
-0.0512606
0.0841573
0.010439
-0.0018657
0.146164
0.0815327
0.0645781
0.130663
0.0789795
0.0540936
0.115464
-0.00388071
0.00573844
0.0821803
0.0502495
0.035714
0.0499821
-0.447387
-0.329139
-0.0599794
-0.0409424
-0.145479
-0.179779
-0.0301308
0.0082777
-0.252892
-0.241591
-0.155937
-0.0174572
-0.290009
-0.203662
-0.157355
-0.1765
0.0640553
0.0171844
0.126468
0.132296
0.0735373
0.0788449
0.148288
0.142706
0.146501
0.110787
0.150927
0.156568
0.156645
0.148568
0.157722
0.141581
-0.233668
-0.0359632
0.219025
0.0863116
-0.223732
0.0635004
0.150457
0.15986
-0.263289
0.0292318
-0.0735324
0.0185053
-0.111744
-0.161152
-0.223411
-0.0306929
0.185537
0.095936
0.0423599
0.151803
0.0801873
0.0597095
0.122126
0.0919792
0.210886
0.134232
0.0652717
0.0875388
0.115988
0.102976
0.129765
0.087886
0.0388058
0.204296
0.0617272
0.139632
0.0811751
0.298062
0.311358
0.194899
0.250153
0.335543
0.271614
0.234254
0.333179
0.398663
0.0907151
0.215477
0.13296
0.180283
0.131174
0.244434
0.199569
0.196227
0.409324
0.204434
0.224958
0.227625
0.267559
0.330281
0.220256
0.174375
0.453185
0.278022
0.161858
0.0663461
0.208166
0.251848
0.177661
0.198821
0.196653
0.186806
0.482401
0.233735
0.272449
0.0945795
0.182042
0.116322
0.169581
0.165645
0.460403
0.595316
0.228527
0.356211
0.0853586
0.332032
0.197229
0.333668
0.272229
0.233014
0.196567
0.157218
0.320606
0.0438556
0.203221
0.12911
0.0582865
-0.0266467
0.0619047
0.0351107
0.229147
0.181257
0.226609
0.194103
0.0979321
0.10538
0.247267
0.260585
0.228382
0.125595
0.28914
0.203688
-0.287279
0.355844
-0.0732038
0.460186
0.0276814
0.385384
-0.105521
0.209375
0.158523
0.252379
0.316347
0.276065
0.331282
0.324012
0.346948
0.348824
0.234607
0.187222
0.366161
0.260335
0.287446
0.300989
0.0409412
0.273111
0.261069
0.329315
0.163463
0.116374
0.209433
0.433309
-0.119662
0.183575
0.238074
0.449556
0.259672
0.329702
0.275865
0.322921
0.292457
0.294002
0.119112
0.298603
0.323858
0.177982
0.363805
0.278732
0.173269
0.363641
-1.57856
-0.609158
-4.04597
-0.719398
0.0731364
-1.64105
0.970739
0.0166661
-0.213085
-0.251063
-0.105147
0.154611
-0.0246509
-0.315992
0.941634
0.534587
-1.27922
0.266225
0.667181
1.14872
-0.0659426
-0.737758
0.580442
0.161038
0.356204
0.452202
0.973441
0.726786
0.368865
0.510959
-0.000997041
0.125917
0.149943
-0.71788
-0.182951
0.17359
0.750989
0.386871
-0.418412
-0.538644
-0.754022
0.0919324
0.105601
-2.81197
0.272549
0.910729
-0.20228
0.220879
0.721881
0.382281
0.507011
1.19804
0.118027
0.390067
0.498931
-0.0536341
-0.120032
0.633331
0.262694
0.399419
-0.128408
0.153858
0.57564
-0.119772
-1.4933
-0.0957798
0.335564
-0.283716
-0.791028
0.877699
0.907151
-0.700311
0.909264
0.997467
1.33774
0.0111602
0.229378
0.402914
0.601445
0.505571
0.677156
1.01801
0.617888
0.36831
0.781229
0.896153
0.53526
1.28969
0.274051
0.411671
0.365051
0.398779
-0.137958
1.15306
-0.0416062
0.481766
-0.433199
0.6387
0.133552
-1.57435
0.197517
0.625211
-0.0290989
0.0849252
1.09793
0.679295
1.65316
0.563655
-0.157161
0.410599
1.08501
1.20794
0.858073
0.41326
0.686806
-0.00585821
0.512872
0.343262
0.355902
1.09345
0.413871
0.501126
-0.720391
0.817181
0.567773
-0.056226
0.766192
-0.0913445
0.149123
0.144078
0.0839325
0.169343
0.152893
0.136632
0.145822
0.134383
0.15889
0.169491
0.111625
0.180242
0.166968
0.150905
0.15869
0.142268
0.0564948
0.062513
0.0208335
0.0754864
0.0659388
0.057447
0.0548755
0.0492223
0.196173
0.190692
0.142197
0.206546
0.19966
0.184482
0.189307
0.174378
0.158515
0.100907
0.182417
0.182173
0.153236
0.128359
0.172474
0.165383
0.138792
0.17198
0.0991391
0.0967286
0.128529
0.142788
0.0986782
0.110239
0.0956527
0.172912
0.174814
0.113882
0.123275
0.153818
0.125678
0.152566
0.0913629
0.111159
0.158338
0.0908015
0.088653
0.116601
0.105836
0.124421
0.0685517
0.155722
0.181855
0.163412
0.120607
0.147987
0.136726
0.168699
0.218763
0.169694
0.259323
0.254874
0.215959
0.218534
0.248579
0.250162
0.234564
0.280122
0.321052
0.290544
0.250213
0.259947
0.284159
0.289024
0.225489
0.252616
0.278251
0.259902
0.237392
0.245205
0.250401
0.259674
0.187441
0.190952
0.191875
0.231276
0.201501
0.186495
0.206074
0.208663
0.193651
0.248776
0.238449
0.202474
0.209811
0.227595
0.200945
0.225038
0.218727
0.207672
0.23893
0.26241
0.235443
0.225593
0.241627
0.233329
0.224029
0.270878
0.251151
0.258586
0.233875
0.254365
0.244504
0.262948
1.10507
-0.0614167
1.70147
-4.35906
0.339053
1.20912
-1.32404
0.50837
-0.473391
0.0990852
-0.471857
-4.4777
-0.514816
0.306733
-1.41507
-0.314555
0.538953
0.869446
0.834662
1.32811
0.467897
0.466294
2.18526
1.24466
-83.5149
10.0237
-5.01751
-2.23241
31.4121
104.451
-46.7805
-9.84957
-0.198064
0.379938
-2.4516
-0.906045
-1.02548
-1.49651
-5.20926
-4.43612
1.15311
-5.47112
-1.01167
0.985811
0.210911
-1.00013
0.412865
0.611246
-0.244887
4.04587
10.4018
-0.609629
2.62519
3.345
7.02704
4.87921
0.302012
3.47786
5.06679
1.14088
0.333034
13.3068
3.24713
6.87798
-1.04234
-0.484011
-0.448219
-0.473719
-0.0359941
-0.395365
-0.400201
-0.378111
-0.516732
-1.08771
-1.44479
-2.22492
-0.208317
-0.836313
0.0840738
0.585062
-0.724176
-0.920943
-1.58298
-2.38324
-0.143489
-1.28159
0.24052
-0.233206
-5.52973
-3.67713
-17.9419
-2.73189
-11.6266
-11.3556
-7.33307
-47.1184
0.0249659
-0.132111
-0.765636
-1.85955
-0.274877
-0.23205
-1.61684
-1.30795
-0.36511
-2.61011
-1.28493
-0.819909
0.523669
0.312437
-1.08913
0.763878
-0.768316
-2.71814
-0.409105
-5.37711
-1.22054
-0.909228
-3.75473
-1.47405
-0.187414
-2.50107
-1.15836
0.532765
-0.0831376
-3.22825
-0.224854
-2.2728
0.445674
0.467219
0.423278
0.404235
0.444286
0.453459
0.419591
0.431382
0.482332
0.467083
0.418461
0.397063
0.461952
0.464106
0.432023
0.425578
0.391092
0.372563
0.336489
0.317446
0.366183
0.362865
0.33777
0.335885
0.345838
0.327452
0.293079
0.274351
0.321707
0.32594
0.297867
0.296007
0.461207
0.414407
0.388886
0.385752
0.433033
0.417577
0.411696
0.393113
0.467307
0.394868
0.414274
0.418765
0.439734
0.418284
0.429137
0.413461
0.391713
0.369415
0.357479
0.318173
0.364248
0.369144
0.344864
0.348367
0.396726
0.315258
0.351347
0.386025
0.371025
0.345269
0.380826
0.349653
0.133943
0.475307
-0.0344793
0.583735
0.516734
0.312758
0.249669
0.332478
0.520698
0.552818
0.0889483
0.456032
0.479668
0.335543
0.395739
0.393172
0.46725
0.0861233
0.44489
0.202982
0.433344
0.45116
0.491251
0.527228
0.468215
0.390882
0.203082
0.349242
0.352209
0.306924
0.40732
0.365383
0.514164
0.327068
0.497703
0.44309
0.385914
0.597424
0.565362
0.364674
0.280225
0.422258
0.415866
0.342817
0.358172
0.464242
0.205897
0.379044
0.383075
0.555277
0.365724
0.466882
0.59484
0.508264
0.472173
0.402235
0.351065
0.447502
0.367193
0.384877
0.313863
0.47081
0.363122
0.165248
-1.77992
-0.241487
-1.01925
-1.64493
0.427206
-0.679232
0.955291
0.651761
-0.918539
-1.78595
-1.19769
-0.797681
-1.1008
-1.61625
-0.921826
-0.833704
-0.486666
-0.757913
-0.904217
0.13817
0.134997
-0.140417
0.507036
0.642774
-7.99747
-0.152021
-0.182103
-0.482096
0.338581
5.3733
-0.898962
0.306203
-0.296349
0.316576
-0.409091
-0.489689
-0.457469
0.632003
-0.572122
-0.821977
-1.10458
-0.771651
-0.250274
-0.673994
-0.334672
-0.513686
-0.366124
-0.198012
0.552411
1.57837
0.996635
-0.156861
-0.495019
0.78213
0.334884
1.67518
0.638454
0.056318
0.488291
0.144958
0.654442
0.276117
0.0681352
-0.014185
-1.74541
-1.1619
-1.06012
-0.504601
-0.224976
-0.817095
-1.18152
-2.00109
-1.00913
-1.37978
-2.03091
-0.623433
-0.763787
-1.26273
-0.961633
-2.03733
-0.093355
-2.03745
-1.10688
-0.852761
-0.153983
-2.06264
-2.72627
0.28042
-0.531315
-0.887653
-5.17754
-0.401611
-0.720076
-2.39646
1.34275
-2.42354
0.0456283
-0.0978177
-0.104108
-0.347197
-0.968015
-0.584438
-0.654369
-0.607638
-0.861491
-0.732254
-1.89151
-1.43774
-1.06968
-0.38226
-1.44139
-0.1596
-1.19328
-0.398795
-0.0111597
-0.873693
-0.432845
-0.118243
-0.596134
-0.0502365
-0.676549
-0.895958
-0.604515
-0.982483
-0.0422094
-1.20993
-0.688739
-0.939795
0.821245
0.674403
0.443996
0.31375
0.751977
0.763964
0.579542
0.523156
0.702912
0.408459
0.143684
0.257834
0.557027
0.671072
0.464307
0.37733
0.414065
0.0986411
0.527388
0.436505
0.235791
0.330353
0.477569
0.535389
0.384358
0.24699
0.405571
0.37736
0.301111
0.380764
0.372728
0.456842
0.750022
0.311888
0.259506
0.268114
0.51023
0.484292
0.218629
0.323996
0.696437
0.313891
0.320796
0.406613
0.509715
0.347366
0.284153
0.241076
0.374618
0.474428
0.587537
0.431953
0.384884
0.47418
0.288128
0.579596
0.340792
0.517627
0.590503
0.485335
0.477391
0.34318
0.504149
0.145386
-2.15212
1.02845
0.612923
0.47926
-0.551448
1.2272
0.643749
-0.146247
0.999468
1.27221
1.93757
-0.0603648
-0.215589
0.992314
0.37362
0.613663
1.20036
0.975367
-0.6694
0.261349
0.323118
1.0965
0.622073
0.0693964
0.0220258
0.488463
0.123724
0.374106
-0.363751
1.24959
0.225512
0.265889
-0.187401
1.16813
0.203101
-1.39688
-0.269152
-0.368636
0.159702
0.365777
0.908627
0.616127
1.965
1.3622
0.743126
0.23693
1.56427
0.934193
0.315806
0.239613
0.501219
0.409731
0.634894
0.313108
0.195208
0.879851
0.337993
0.408531
-0.786017
0.416818
0.415065
0.118942
0.626763
0.0501867
-1.13099
-1.00328
-4.66558
-0.377278
1.01318
-1.62125
1.19243
0.588304
-0.542524
-0.499822
0.0844328
0.219996
-0.132996
-0.869967
0.782686
0.39658
-1.90804
0.0520049
0.534599
1.02556
0.120613
-0.889019
0.60098
-0.0243844
0.215422
0.430026
0.962879
0.744363
0.311097
0.365808
0.105404
0.103455
0.16209
-0.153735
0.0620802
-0.00829234
1.15007
0.528565
-0.291938
-0.317461
-1.55218
0.151461
-0.253285
-3.1742
0.158621
1.28855
-0.777397
0.137089
0.935578
0.414238
0.422619
1.21621
0.239203
0.559974
0.659851
0.111491
-0.00420475
0.689273
0.22512
0.33007
-0.188809
0.268377
0.555784
0.0207964
0.298555
0.234985
-0.322747
-0.263736
0.184855
-0.105445
0.273916
0.336289
0.314013
0.415766
-0.0626549
0.334728
0.294205
0.168069
0.386855
0.334192
0.0490112
0.318044
-0.00887981
-0.110358
0.243445
0.219111
0.123449
0.301046
0.214543
0.264465
0.176453
0.164361
0.291583
0.247401
0.167199
0.21423
0.240806
0.130927
0.304313
0.265026
0.473102
0.648323
0.399044
0.166516
-0.0373313
0.247778
0.243565
0.156489
0.328643
0.609923
0.164728
0.29043
0.241582
0.117289
0.0147667
0.273469
-0.588619
0.0696356
0.276193
0.447636
0.278415
0.19073
0.0479764
0.313945
0.181288
0.335595
0.29785
-0.349012
0.0142006
0.464813
0.0127632
0.203899
0.290416
-0.151687
0.486611
0.0697404
-0.133152
0.386632
0.271947
0.346338
0.402292
0.331973
0.364735
0.336915
-0.0240183
0.163736
0.117387
-0.0283452
0.112055
0.180462
0.0853786
0.150514
0.253471
0.24065
0.114541
0.200506
0.193951
0.191929
0.20768
0.147182
0.333574
0.0873766
0.169948
0.12205
0.299207
0.0635579
-0.32724
0.145102
0.270489
0.271803
0.362047
0.0823468
0.259724
0.310968
0.19194
0.225067
0.0552621
0.161843
0.090457
0.134175
-0.0228206
0.153173
0.0676692
0.078695
0.123539
0.123995
0.198634
0.22567
0.15599
0.132163
0.172724
0.155966
0.461871
0.499166
0.471684
0.445129
0.458205
0.472994
0.45044
0.464735
0.51607
0.513604
0.516568
0.442405
0.487946
0.504224
0.482903
0.492863
0.490873
0.525586
0.502844
0.45711
0.501132
0.517962
0.492886
0.507613
0.417413
0.396272
0.407665
0.358421
0.400073
0.409372
0.385903
0.397184
0.485124
0.476815
0.43195
0.438073
0.47647
0.470436
0.457179
0.44623
0.501732
0.450111
0.518484
0.491023
0.491937
0.478441
0.512308
0.506197
0.46644
0.423246
0.430962
0.438008
0.450094
0.438706
0.454254
0.437994
0.482025
0.454323
0.438857
0.509752
0.493706
0.468218
0.498898
0.45491
0.329414
0.295078
0.300998
0.287002
0.30787
0.300455
0.297512
0.288238
0.240308
0.186717
0.192637
0.198619
0.215978
0.207177
0.207767
0.191696
0.24748
0.176118
0.163169
0.201527
0.198884
0.18217
0.196482
0.166965
0.252627
0.2095
0.21934
0.22643
0.238822
0.22615
0.232795
0.214716
0.261462
0.258125
0.268666
0.224721
0.258107
0.26529
0.249256
0.259143
0.250374
0.210924
0.195581
0.248155
0.241852
0.214178
0.252317
0.206819
0.25603
0.263901
0.213973
0.219636
0.249412
0.248399
0.226076
0.22664
0.239398
0.194287
0.19701
0.177984
0.210834
0.210837
0.202401
0.199294
0.0536776
0.0460489
0.147927
0.143437
0.0801629
0.0816203
0.119453
0.115456
0.0360612
0.0403603
0.133443
0.134029
0.0806682
0.0716001
0.103787
0.0939432
0.229375
0.202255
0.118413
0.229612
0.213493
0.216392
0.224092
0.198996
0.20628
0.198669
0.241604
0.243129
0.208698
0.206476
0.233971
0.226059
0.0645128
0.145326
0.146523
0.147503
0.103813
0.132904
0.127414
0.142883
0.0544166
0.145805
0.163053
0.133937
0.105551
0.138702
0.128578
0.170107
0.174095
0.189374
0.175416
0.232565
0.194575
0.17832
0.206402
0.204004
0.165405
0.228956
0.175209
0.183665
0.211313
0.211937
0.204206
0.199019
0.316951
0.324073
0.327596
0.3062
0.318802
0.322468
0.318605
0.322392
0.293649
0.253921
0.273349
0.253967
0.28697
0.278478
0.278367
0.272108
0.333022
0.296618
0.329651
0.300994
0.335352
0.327595
0.325496
0.321911
0.282743
0.252449
0.271472
0.244902
0.279267
0.279508
0.271935
0.267471
0.30503
0.329749
0.301598
0.288359
0.306319
0.311842
0.29333
0.305335
0.306104
0.2858
0.299962
0.322249
0.303742
0.281482
0.307598
0.309785
0.320457
0.302255
0.277549
0.299215
0.304093
0.301184
0.312836
0.280234
0.327715
0.298672
0.271859
0.295128
0.306326
0.307623
0.30199
0.274003
0.267889
0.289721
0.244936
0.256222
0.260457
0.26932
0.255128
0.265173
0.321089
0.314269
0.297703
0.305504
0.313333
0.314844
0.30313
0.308158
0.248531
0.280779
0.258985
0.249515
0.267968
0.274503
0.259016
0.269102
0.253572
0.284495
0.24321
0.241047
0.257676
0.264402
0.245129
0.252553
0.297256
0.265143
0.261412
0.287977
0.283695
0.271998
0.29616
0.270796
0.30689
0.293694
0.297469
0.272828
0.295031
0.295626
0.293494
0.298129
0.251395
0.249811
0.278714
0.244563
0.245344
0.258673
0.256373
0.266057
0.266355
0.260972
0.285283
0.291275
0.269922
0.26871
0.284168
0.283003
0.426899
0.396793
0.380725
0.367089
0.402109
0.403695
0.383685
0.37135
0.358857
0.313312
0.285273
0.292314
0.326615
0.31871
0.300359
0.287783
0.319434
0.27866
0.189993
0.255151
0.286306
0.267421
0.247869
0.208084
0.317761
0.285246
0.271015
0.275393
0.301023
0.29259
0.287889
0.27158
0.368875
0.351165
0.345087
0.315754
0.343114
0.341069
0.332723
0.337286
0.360618
0.305979
0.290105
0.33879
0.335323
0.31062
0.330521
0.306433
0.330564
0.330477
0.296142
0.281567
0.314232
0.318049
0.297075
0.297589
0.313119
0.263981
0.282121
0.267503
0.286177
0.285727
0.288014
0.27674
0.0152918
0.0448411
-0.000134882
0.04836
0.0309671
0.0369494
0.0268223
0.0435927
0.0756876
0.0995086
0.0418783
0.124223
0.0873071
0.060441
0.0794741
0.0828347
-0.0653905
-0.00766394
-0.098664
0.0242422
-0.019115
-0.0955602
-0.0704058
-0.0899575
0.0929238
0.143425
0.118262
0.156754
0.133735
0.121908
0.128488
0.11943
0.0579556
0.0271689
0.0710715
0.107088
0.0500674
0.0476433
0.0838048
0.0668914
0.065838
0.0883125
0.00672511
0.0184896
0.0725607
0.0566699
0.0317755
0.0481901
-0.00612588
0.061471
0.0965367
0.0402709
0.0330256
0.0737738
0.0694078
0.0827267
0.0162314
0.0778698
0.0921359
0.00991822
-0.0130845
0.0662328
0.0303312
0.102344
-0.0458861
0.00621748
0.374555
0.0114814
0.292359
0.287325
0.167535
0.217439
0.104412
0.16867
0.245872
0.170342
0.163277
0.178546
0.174375
0.190826
0.363127
0.300612
0.340274
0.300187
0.327741
0.324547
0.332754
0.33231
0.168236
0.181671
0.24418
0.188463
0.148173
0.170832
0.20332
0.217151
0.134999
0.3185
0.155147
0.191106
0.165723
0.215017
0.155379
0.143953
0.191324
0.185637
0.262317
0.307435
0.194011
0.221573
0.267012
0.264709
0.317232
0.22146
0.193625
0.264604
0.278591
0.211603
0.244971
0.199254
0.324093
0.272926
0.202602
0.270575
0.285065
0.248408
0.265481
0.23921
0.233587
0.245254
0.269307
0.2314
0.236082
0.248574
0.241268
0.251067
0.253996
0.259923
0.2833
0.252391
0.255749
0.268312
0.261842
0.274993
0.297615
0.300302
0.31533
0.304633
0.297433
0.302275
0.304367
0.306251
0.231197
0.240824
0.279978
0.23866
0.234806
0.247741
0.245692
0.256306
0.246009
0.27038
0.233458
0.24319
0.251776
0.253848
0.241157
0.24745
0.259432
0.254199
0.290141
0.28333
0.262977
0.264635
0.279569
0.278819
0.277268
0.240945
0.251659
0.282069
0.267227
0.251714
0.270348
0.255302
0.28372
0.285141
0.263984
0.294159
0.28734
0.279779
0.28569
0.280795
0.0270722
0.0723861
0.028271
0.0860316
0.0540083
0.054608
0.0531243
0.0540528
0.102551
0.136566
0.0868283
0.159619
0.127388
0.108156
0.128433
0.111803
0.0233087
0.0488157
0.0212561
0.0743025
0.0458354
0.0420898
0.0469303
0.0444347
0.138969
0.183867
0.135221
0.197931
0.177638
0.166173
0.176195
0.169577
0.0959681
0.0532303
0.117202
0.154723
0.096639
0.0774871
0.127082
0.108602
0.091917
0.142352
0.0798313
0.0491076
0.0914472
0.11248
0.0648418
0.0862395
0.0525342
0.115287
0.154724
0.106177
0.0682887
0.110343
0.108156
0.128637
0.046123
0.105115
0.144628
0.0797569
0.064707
0.103491
0.0868203
0.119018
0.0258384
0.0249923
0.0748484
0.0844859
0.0406834
0.0373595
0.0678227
0.0630523
0.0199041
0.0189955
0.0643047
0.0699038
0.033
0.0291207
0.0549407
0.0546856
0.112615
0.111261
0.17249
0.175141
0.124131
0.123822
0.161962
0.152026
0.141669
0.13334
0.187586
0.201945
0.150355
0.147631
0.183377
0.175396
0.0395463
0.0868955
0.0967667
0.0900648
0.0580452
0.0758961
0.076973
0.0937056
0.033136
0.0841358
0.0763906
0.0817994
0.0583381
0.0705122
0.0698169
0.0815498
0.114621
0.128173
0.118706
0.170668
0.12708
0.120784
0.138706
0.132765
0.104164
0.161689
0.11186
0.0977324
0.115505
0.133859
0.100551
0.118636
0.448546
0.471353
0.393555
0.408397
0.448658
0.449536
0.403421
0.413529
0.498697
0.180312
0.199668
0.392599
0.417226
0.407349
0.33842
0.179274
0.31247
0.157688
0.15231
0.308168
0.251614
0.228089
0.215595
0.194841
0.356104
0.323026
0.293758
0.314139
0.332229
0.343335
0.313849
0.263446
0.473235
0.376064
0.394525
0.368126
0.420592
0.400669
0.394662
0.389352
0.462618
0.371374
0.385021
0.382698
0.38009
0.353673
0.401855
0.349042
0.354497
0.370543
0.321416
0.290327
0.334982
0.353517
0.315505
0.328766
0.323988
0.259469
0.274826
0.226963
0.316228
0.32002
0.282667
0.379059
0.322992
0.333508
0.33318
0.34009
0.321212
0.325633
0.32868
0.330612
0.309743
0.27011
0.314944
0.288537
0.299542
0.298519
0.293781
0.295805
0.350942
0.355675
0.375434
0.374754
0.366884
0.365452
0.375714
0.376518
0.350098
0.315155
0.361989
0.343091
0.337408
0.33559
0.350862
0.350117
0.316047
0.339003
0.330836
0.314011
0.325213
0.328932
0.328861
0.33309
0.319409
0.311436
0.343854
0.335185
0.327632
0.316516
0.331094
0.343416
0.345764
0.34143
0.318436
0.369
0.351516
0.343571
0.362744
0.341533
0.345171
0.368194
0.320126
0.344738
0.357352
0.36076
0.343625
0.331803
0.0255002
0.0762033
0.0261371
0.0856184
0.0570679
0.0574755
0.0571818
0.058424
0.114679
0.173175
0.132587
0.178717
0.150824
0.150052
0.152932
0.152394
0.0322891
0.089734
0.0338305
0.0855304
0.0586264
0.0626659
0.0583326
0.0625497
0.143827
0.188158
0.143755
0.205136
0.171325
0.16778
0.172598
0.169954
0.103806
0.061935
0.115766
0.15783
0.107581
0.0841175
0.128356
0.112303
0.0983383
0.158067
0.110911
0.0585039
0.102833
0.126133
0.0745502
0.105969
0.0608113
0.116939
0.159097
0.117994
0.0837539
0.117721
0.114943
0.138572
0.0596268
0.116684
0.160912
0.111111
0.0813133
0.114307
0.107578
0.13495
0.0664616
0.179377
0.140463
0.139911
0.0877945
0.115294
0.100581
0.158658
0.245553
0.122703
0.396103
0.262797
0.258751
0.257547
0.212599
0.249232
0.234794
0.309075
0.378946
0.271657
0.259848
0.332674
0.258945
0.271971
0.232278
0.270936
0.330894
0.292675
0.242072
0.230764
0.240594
0.248673
0.181597
0.165608
0.172627
0.221793
0.184465
0.179243
0.199687
0.204784
0.196732
0.212606
0.253864
0.219945
0.24144
0.20816
0.247324
0.224789
0.157071
0.187444
0.209448
0.205413
0.192193
0.238057
0.217676
0.216735
0.251775
0.305811
0.225401
0.312226
0.209926
0.281215
0.210299
0.317458
0.0784919
0.160444
0.206875
0.162185
0.0976364
0.183375
0.154129
0.186356
0.243313
0.303479
0.355696
0.290458
0.269582
0.308675
0.29226
0.326804
0.320631
0.372372
0.457151
0.375846
0.351283
0.392682
0.383375
0.416272
0.20844
0.269342
0.302546
0.245853
0.230379
0.25549
0.248096
0.27855
0.20595
0.240959
0.186344
0.249385
0.248792
0.21607
0.234744
0.224648
0.26217
0.276879
0.361225
0.293665
0.273775
0.280863
0.28422
0.302228
0.264045
0.210503
0.268692
0.312422
0.258854
0.244522
0.292088
0.263106
0.3045
0.343854
0.294423
0.364008
0.330726
0.324825
0.336775
0.326463
-2.06938
-0.77717
-2.08736
-0.0554591
-0.618287
-1.21301
-0.400203
-0.923218
-0.479058
-0.194715
-0.389972
0.00345667
-0.084075
-0.264575
0.0644416
-0.080555
-2.19436
-0.761036
-2.01513
0.1138
-0.488568
-1.21878
-0.0130494
-0.564134
0.215979
0.178164
0.250661
0.132788
0.140777
0.17646
0.23214
0.236306
-0.371379
-0.580464
-0.0485186
0.0767527
-0.145792
-0.193434
-0.148751
-0.141382
-0.699397
-0.0416624
-0.564535
-1.23553
-0.335914
-0.0168942
-0.831806
-0.198938
-0.204651
0.0268755
0.193329
0.103371
0.0762587
0.0183755
0.00251717
0.18537
-0.809565
0.106407
0.090761
-0.200643
-0.0278598
-0.0712706
0.0452075
-0.0593561
0.185649
0.197009
0.140904
0.194481
0.19345
0.187733
0.180743
0.174865
0.199351
0.208655
0.156349
0.210504
0.205822
0.195177
0.198938
0.182412
0.0986467
0.1025
0.0463966
0.101703
0.106086
0.0880678
0.0958325
0.0770472
0.202583
0.211931
0.15933
0.217387
0.206266
0.198799
0.199322
0.188949
0.201842
0.147388
0.19632
0.205355
0.191115
0.176873
0.202075
0.189565
0.193028
0.198144
0.144924
0.1396
0.177861
0.184713
0.150786
0.156412
0.133794
0.185808
0.198331
0.143368
0.150984
0.17616
0.156313
0.179649
0.126493
0.131802
0.185522
0.132062
0.13268
0.143594
0.147504
0.157967
0.0472481
0.0392269
0.178676
0.130572
0.0778943
0.079568
0.117192
0.119961
0.0338012
0.050619
0.173627
0.133007
0.0862799
0.0781052
0.128039
0.120995
0.319714
0.300529
0.457846
0.363852
0.319526
0.336787
0.362289
0.376299
0.190599
0.19133
0.287195
0.233856
0.202172
0.212849
0.236631
0.246437
0.0712924
0.190734
0.142955
0.144302
0.120319
0.148568
0.128104
0.154862
0.0768757
0.159733
0.208129
0.200785
0.128409
0.152533
0.177367
0.191259
0.233875
0.184599
0.192108
0.293233
0.236685
0.192814
0.24888
0.209398
0.258532
0.310653
0.200226
0.261844
0.272703
0.270358
0.233492
0.244003
-0.909302
0.0127209
-0.168126
0.141877
0.0826498
-0.12997
0.298863
0.227499
0.575141
0.872573
0.753193
0.35377
0.726685
0.860607
0.657549
0.688889
0.43994
0.533472
0.241165
0.182082
0.454576
0.389979
0.343509
0.593264
0.391348
0.421533
0.212871
0.520358
0.345134
0.361556
0.358119
0.330828
0.516854
0.189373
0.211044
0.414915
0.478773
0.339561
0.117661
0.131374
0.490665
0.374673
0.673913
0.481582
0.53333
0.647058
0.614645
0.536929
0.203722
0.296818
0.384072
0.339806
0.164221
0.221454
0.35104
0.31936
0.401339
0.372639
0.37844
0.594166
0.506589
0.260714
0.542466
0.237786
0.0167038
0.0145808
0.013999
0.0537989
0.0279195
0.0135009
0.0369261
0.0309151
0.0131607
0.00849287
0.0153705
0.0528543
0.0210378
0.00719205
0.0274282
0.0168838
0.0136343
0.0184279
0.0154412
0.0740227
0.0343787
0.0157926
0.043486
0.0342772
0.0881175
0.101396
0.117758
0.157764
0.115588
0.0998722
0.126827
0.120327
0.022875
0.0320189
0.0770207
0.0654012
0.0349332
0.0440221
0.0590801
0.0558364
0.0107449
0.0489867
0.0124024
0.0156029
0.0217554
0.0424961
0.0140293
0.0287661
0.040835
0.0839618
0.0786291
0.0918497
0.0565938
0.0784045
0.0841999
0.0992208
0.0291693
0.0834932
0.0668833
0.0254183
0.0445925
0.0655117
0.0380903
0.0678579
0.312507
0.305603
0.308541
0.292765
0.304983
0.308029
0.301909
0.304673
0.304122
0.305803
0.305808
0.29681
0.301291
0.305347
0.302051
0.306101
0.316253
0.313339
0.329224
0.307585
0.315327
0.320097
0.319656
0.322002
0.26726
0.276159
0.271936
0.22086
0.261735
0.273615
0.248306
0.262541
0.300275
0.307283
0.287054
0.286964
0.29889
0.299756
0.296174
0.296246
0.303442
0.295756
0.309061
0.309454
0.303373
0.301242
0.305085
0.305303
0.309296
0.277949
0.284584
0.288403
0.294727
0.285525
0.291736
0.28199
0.311423
0.296845
0.29407
0.311421
0.310876
0.301128
0.307986
0.295493
0.0451812
0.264106
0.210073
0.0757907
0.210617
0.1391
0.029065
0.100848
0.377939
0.363085
0.0790436
0.17369
0.30218
0.36151
0.25872
0.257206
-0.401231
-0.35843
-0.945735
0.177738
0.0401035
-0.461463
0.162995
-0.148076
0.0733675
0.243016
0.0713253
0.0282181
0.125028
0.182813
0.0473094
0.070207
0.273092
0.277106
0.128491
0.205186
0.10152
0.148591
0.0270451
-0.00256253
0.329329
0.0879017
0.106284
0.163175
0.177338
0.177162
0.19895
0.209094
-0.188401
0.125807
0.313435
0.0995653
-0.213931
0.0772127
0.0275342
0.218475
-0.12868
0.0994736
0.208337
0.166239
0.146945
-0.0547436
0.315896
0.00968481
0.369845
0.344426
0.377172
0.349509
0.361729
0.361087
0.364969
0.363684
0.328253
0.316754
0.333748
0.309911
0.324311
0.325546
0.323051
0.323906
0.370209
0.34689
0.358815
0.328851
0.35391
0.347859
0.346137
0.340302
0.31109
0.293729
0.291783
0.266583
0.29496
0.299219
0.278905
0.282369
0.338169
0.364243
0.335598
0.315363
0.342189
0.349189
0.325967
0.337089
0.33837
0.317124
0.341415
0.364508
0.341153
0.327612
0.351826
0.341281
0.359219
0.331557
0.310425
0.312293
0.34088
0.332686
0.323171
0.315514
0.360362
0.312367
0.31122
0.33012
0.342009
0.321515
0.331859
0.318867
0.413355
0.395784
0.402627
0.355434
0.38975
0.402195
0.369022
0.383275
0.189863
0.219109
0.269809
-0.0394165
0.0334311
0.618091
-0.0196102
0.629241
0.368849
0.252748
-0.207164
0.0921447
0.281088
0.576505
0.137323
0.941172
0.245736
0.173426
0.116848
0.188065
0.231817
0.200736
0.21448
0.22696
0.377626
0.39614
0.32638
0.162654
0.331263
0.358318
0.251573
0.289127
0.384987
0.0587694
0.750196
0.39364
0.337736
0.00259885
0.303964
0.167144
0.365476
0.310305
0.18664
0.15735
0.251341
0.25644
0.184683
0.200919
0.346113
-0.016606
0.0218985
1.03544
0.266841
0.0452741
0.0537642
-0.0662064
-0.194555
-0.197882
-0.000460259
0.0444031
-0.0914112
-0.149472
-0.0192784
-0.024545
-0.0406888
-0.220546
0.0301941
-0.0997901
-0.0885763
-0.138953
-0.110343
-0.0989659
0.0497664
0.0875701
0.103947
0.104358
0.0565707
0.042317
0.0523382
0.0424666
0.0882683
0.166878
0.138896
0.164748
0.156774
0.110998
0.118444
0.123769
-0.142337
-0.00533149
0.0561674
0.000691293
-0.0514565
0.0465698
-0.0761521
0.109658
-0.197397
0.0325424
0.0497428
-0.0177942
-0.0556647
0.0316045
0.0226885
0.0523965
-0.00634359
-0.0433235
0.00619677
0.0875616
0.0591624
-0.0384131
0.0713162
-0.0222776
-0.0084861
0.0912656
0.00985916
0.0348026
0.00405075
0.0722326
0.0509093
0.0921103
0.311928
0.286813
0.310087
0.298754
0.302568
0.299008
0.303801
0.300539
0.255572
0.212284
0.269351
0.215109
0.239625
0.24515
0.239704
0.243842
0.313879
0.305794
0.328686
0.293132
0.30844
0.313392
0.308024
0.313493
0.271428
0.224813
0.264557
0.23962
0.252228
0.247048
0.254436
0.248216
0.276699
0.302256
0.282807
0.241988
0.276272
0.290541
0.255798
0.27736
0.278369
0.236735
0.282014
0.301616
0.27759
0.260837
0.290487
0.279765
0.303237
0.28528
0.243619
0.276656
0.290789
0.278839
0.276907
0.261799
0.303129
0.27618
0.237615
0.283279
0.293485
0.278415
0.277256
0.262652
0.303111
0.292226
0.301567
0.288202
0.295379
0.295606
0.294275
0.294637
0.264488
0.220282
0.260301
0.217939
0.242925
0.240322
0.242182
0.240141
0.303747
0.285585
0.308713
0.298907
0.297322
0.296372
0.304178
0.302325
0.267895
0.226524
0.275028
0.242908
0.252562
0.249383
0.256214
0.2532
0.276578
0.293518
0.276328
0.243867
0.276977
0.285311
0.259866
0.274545
0.275492
0.241563
0.272216
0.293896
0.275843
0.258145
0.287203
0.273335
0.295917
0.279869
0.243482
0.285491
0.290965
0.278525
0.281318
0.261621
0.295892
0.28398
0.241081
0.275919
0.288286
0.278358
0.278652
0.258838
-0.271577
-0.253076
-0.368804
-0.226889
-0.223041
-0.309442
-0.185323
-0.234702
-0.168612
-0.113063
-0.305544
-0.219484
-0.188199
-0.0923656
-0.150267
-0.174464
-0.630581
-0.753049
-1.17947
-0.117753
-0.290205
-0.805281
-0.284559
-0.539613
0.0239619
-0.00998133
0.0521312
0.152367
0.0037965
-0.00991553
0.0495658
0.021267
-0.167717
-0.234771
-0.127247
-0.0895816
-0.150182
-0.116243
-0.237582
-0.250572
-0.155221
-0.20997
-0.303627
-0.327472
-0.186512
-0.168719
-0.263851
-0.207379
-0.296562
-0.0553619
-0.0340522
0.0590357
-0.242839
-0.132587
-0.133134
-0.0292669
-0.375166
-0.175008
-0.105845
-0.200377
-0.216414
-0.275472
-0.150508
-0.219231
0.0499927
0.0805453
0.123006
0.119727
0.0820899
0.0904221
0.0981468
0.115964
0.127694
0.19469
0.222685
0.207788
0.177223
0.194367
0.203726
0.2217
0.239739
0.283047
0.340686
0.30904
0.259585
0.27168
0.295727
0.301787
0.177231
0.22164
0.261255
0.23391
0.197826
0.213818
0.223195
0.241167
0.121834
0.162163
0.145079
0.183398
0.154231
0.156912
0.162249
0.16027
0.137398
0.205877
0.230446
0.167727
0.16906
0.207185
0.17975
0.216361
0.182802
0.167862
0.213783
0.252775
0.204469
0.182208
0.219731
0.205347
0.202087
0.262214
0.23016
0.249675
0.228419
0.235706
0.242569
0.254128
0.125459
0.0777202
0.101953
0.0758181
0.20242
0.0796686
0.159513
0.174632
-0.23029
-0.595609
-0.243894
0.245326
-0.00161435
-0.488719
0.204937
-0.203455
-0.31706
-0.200176
-0.500134
0.230619
0.121543
-0.292445
0.613687
-0.0238397
0.245341
0.0971725
0.291987
0.374708
0.245206
0.177679
0.325094
0.322375
0.109023
0.17681