/*--------------------------------*- C++ -*----------------------------------*\
| =========                 |                                                 |
| \\      /  F ield         | OpenFOAM: The Open Source CFD Toolbox           |
|  \\    /   O peration     | Version:  2506                                  |
|   \\  /    A nd           | Website:  www.openfoam.com                      |
|    \\/     M anipulation  |                                                 |
\*---------------------------------------------------------------------------*/
FoamFile
{
    version     2.0;
    format      ascii;
    arch        "LSB;label=32;scalar=64";
    class       surfaceScalarField;
    location    "500";
    object      phi;
}
// * * * * * * * * * * * * * * * * * * * * * * * * * * * * * * * * * * * * * //

dimensions      [0 3 -1 0 0 0 0];

oriented        oriented;

internalField   nonuniform List<scalar> 
95136
(
6.77097e-06
-6.66036e-06
-1.75725e-06
1.64664e-06
-6.57996e-06
6.64536e-06
-1.77275e-06
1.70735e-06
1.59084e-06
6.00913e-06
-6.1117e-06
-1.48827e-06
-1.77472e-06
5.87991e-06
-5.65843e-06
1.55323e-06
4.88438e-06
1.683e-07
1.71829e-06
1.66142e-07
-1.86173e-06
4.56829e-06
-6.17471e-06
6.32527e-06
6.3747e-06
-6.46366e-06
-1.62141e-06
1.71037e-06
-6.14961e-06
5.93549e-06
-1.44787e-06
1.66199e-06
1.57844e-06
-5.83056e-06
5.91723e-06
-1.66512e-06
-1.74668e-06
-5.9241e-06
6.07221e-06
1.59857e-06
4.57534e-06
1.28918e-07
1.67044e-06
1.42183e-07
-1.71646e-06
4.45751e-06
-6.07528e-06
6.17814e-06
4.65489e-06
1.30441e-06
-4.53185e-06
-1.42746e-06
-4.71645e-06
1.29981e-06
4.89121e-06
-1.47457e-06
1.1712e-06
-4.1812e-06
4.20497e-06
-1.19498e-06
-1.17179e-06
1.11654e-06
-4.12659e-06
4.18184e-06
3.34581e-06
4.21377e-08
1.26694e-06
2.80306e-09
-1.37345e-06
2.99558e-06
-4.12523e-06
4.16959e-06
4.37612e-06
-1.27264e-06
-4.33714e-06
1.23367e-06
-4.38986e-06
-1.35157e-06
4.50898e-06
1.23245e-06
1.10585e-06
-1.16531e-06
-4.06278e-06
4.12224e-06
-1.11669e-06
-4.09421e-06
4.15014e-06
1.06075e-06
3.15614e-06
2.84688e-08
1.19151e-06
1.71642e-08
-1.25089e-06
3.07855e-06
-4.16677e-06
4.20156e-06
1.40085e-07
4.78567e-06
1.7196e-06
1.56598e-06
4.25929e-06
1.83859e-07
4.1957e-06
8.22031e-08
1.602e-06
-5.9857e-06
4.30185e-06
1.05132e-07
1.57872e-06
-6.15289e-06
1.76375e-06
4.52923e-06
1.73837e-06
-5.82753e-06
1.60557e-06
1.06531e-07
1.56873e-07
-1.83486e-06
-1.72847e-06
1.06215e-07
-4.18962e-06
8.7705e-08
-1.72865e-06
5.7954e-06
1.39793e-07
-1.67591e-06
6.27433e-06
-1.58823e-06
-1.52942e-06
5.81484e-06
-1.60768e-06
9.58025e-08
1.40167e-06
3.6361e-06
-4.85391e-06
3.51736e-06
-4.7078e-06
-4.8961e-06
3.64966e-06
-8.13999e-08
3.00739e-06
-4.0913e-06
1.26379e-06
4.80089e-06
-4.66302e-06
4.88768e-06
1.25931e-06
3.46018e-06
5.08029e-06
-7.3618e-08
4.19754e-06
-1.30024e-06
5.05612e-06
-3.66389e-06
5.0514e-06
1.36779e-06
4.97944e-06
4.75436e-06
1.41135e-06
4.86546e-06
7.14477e-06
-6.35847e-06
1.41705e-06
-2.20337e-06
-6.67476e-06
7.04118e-06
1.67674e-06
-2.04317e-06
-1.78634e-06
5.48695e-06
-4.98218e-06
1.28156e-06
1.26067e-06
5.4193e-06
-4.97551e-06
-1.70446e-06
8.65589e-06
5.55475e-07
-2.0666e-06
6.42389e-07
1.33875e-06
7.52714e-06
-5.711e-06
6.38319e-06
6.82592e-06
-6.59572e-06
1.7446e-06
-1.9748e-06
-6.49194e-06
1.6591e-06
-1.82752e-06
-1.80941e-06
-5.68101e-06
1.37872e-06
1.48613e-06
-5.44377e-06
-1.70079e-06
8.46589e-06
2.75291e-07
-1.91527e-06
3.00343e-07
1.67361e-06
7.68378e-06
-5.92236e-06
4.5417e-06
-1.31455e-06
-4.44566e-06
1.2185e-06
-4.4349e-06
-1.31771e-06
1.22075e-06
-1.13819e-06
-4.11926e-06
1.07624e-06
1.0594e-06
-1.16188e-06
-4.02411e-06
5.72732e-06
1.01929e-07
-1.28756e-06
1.05148e-07
1.18727e-06
5.15827e-06
-3.99693e-06
4.34945e-06
1.12015e-06
-4.16092e-06
-1.30868e-06
-4.2808e-06
1.18627e-06
-1.24262e-06
-1.16363e-06
1.04515e-06
-3.94431e-06
1.11732e-06
-4.02197e-06
-1.18956e-06
5.54936e-06
9.28137e-08
-1.29272e-06
1.05143e-07
1.16342e-06
5.22525e-06
-4.01512e-06
3.90999e-07
8.65433e-06
-2.00415e-06
-1.7971e-06
7.02255e-06
2.61499e-07
6.83077e-06
2.53514e-07
-1.66498e-06
-5.52888e-06
7.01171e-06
1.51404e-07
-1.63423e-06
-5.94502e-06
-1.35988e-06
7.69589e-06
-1.35893e-06
-5.23107e-06
-1.65769e-06
2.40771e-07
4.04135e-07
1.65447e-06
1.34922e-06
2.18712e-07
-7.24982e-06
2.30926e-07
1.33789e-06
5.35292e-06
3.06623e-07
1.36301e-06
6.37086e-06
1.72916e-06
1.79773e-06
5.76262e-06
1.31945e-06
3.10526e-07
-1.09641e-06
5.60869e-06
-4.25077e-06
5.77823e-06
-4.40457e-06
-4.4975e-06
5.83518e-06
-1.45571e-07
5.11418e-06
-3.92346e-06
-1.33299e-06
4.56652e-06
-4.32994e-06
4.68601e-06
-1.35193e-06
5.77289e-06
4.60077e-06
-1.38995e-07
1.34609e-06
-5.9407e-06
-1.17082e-06
4.48402e-06
4.46308e-06
-1.14615e-06
6.30398e-06
-6.17408e-06
-1.7466e-06
1.61672e-06
-6.23553e-06
6.40076e-06
-1.83737e-06
1.67214e-06
1.5575e-06
6.03029e-06
-5.6778e-06
-1.90995e-06
-1.79507e-06
5.81955e-06
-5.49834e-06
1.47388e-06
4.51966e-06
1.60628e-07
1.6237e-06
2.00625e-07
-1.91649e-06
4.43826e-06
-6.07268e-06
6.19639e-06
6.09437e-06
-6.11979e-06
-1.66526e-06
1.69065e-06
-5.53225e-06
5.36242e-06
-1.44732e-06
1.61711e-06
1.62986e-06
-5.90538e-06
6.1368e-06
-1.86125e-06
-1.81547e-06
-5.77675e-06
6.02989e-06
1.56234e-06
4.18412e-06
2.21903e-07
1.68834e-06
2.32471e-07
-1.5806e-06
4.38929e-06
-5.98285e-06
6.25163e-06
4.97542e-06
1.35583e-06
-4.7105e-06
-1.62068e-06
-4.75318e-06
1.36884e-06
5.14224e-06
-1.75787e-06
1.16575e-06
-4.60632e-06
4.7496e-06
-1.30886e-06
-1.46897e-06
1.14712e-06
-4.2633e-06
4.5852e-06
3.36966e-06
2.99446e-07
1.30633e-06
2.37393e-07
-1.62089e-06
3.37183e-06
-4.54127e-06
4.77497e-06
4.72876e-06
-1.52003e-06
-4.37249e-06
1.16379e-06
-4.68921e-06
-1.57619e-06
4.99909e-06
1.26633e-06
1.11713e-06
-1.35848e-06
-4.14036e-06
4.38171e-06
-1.26579e-06
-4.01485e-06
4.24974e-06
1.03091e-06
3.36735e-06
1.67955e-07
1.19346e-06
1.57739e-07
-1.47959e-06
3.27024e-06
-4.36805e-06
4.54512e-06
2.04128e-07
4.48443e-06
1.7122e-06
1.55626e-06
4.14123e-06
3.32821e-07
4.10745e-06
1.98457e-07
1.51366e-06
-5.92246e-06
4.18242e-06
2.11975e-07
1.52808e-06
-5.97409e-06
1.80485e-06
4.3734e-06
1.77856e-06
-5.67329e-06
1.55569e-06
2.12712e-07
2.47964e-07
-1.88331e-06
-1.82281e-06
2.28474e-07
-4.26051e-06
3.28079e-07
-1.97293e-06
5.76261e-06
3.35855e-07
-1.95722e-06
6.20629e-06
-1.58493e-06
-1.59936e-06
6.1591e-06
-1.9814e-06
2.99238e-07
1.70888e-06
3.9545e-06
-5.33053e-06
3.95042e-06
-5.27197e-06
-5.27531e-06
3.91113e-06
-2.35071e-07
3.22925e-06
-4.35264e-06
1.31823e-06
4.75492e-06
-4.3642e-06
5.48138e-06
1.27353e-06
3.24634e-06
5.64621e-06
-2.14075e-07
4.59045e-06
-1.34438e-06
5.48398e-06
-3.96638e-06
5.66334e-06
1.5769e-06
5.3757e-06
4.60919e-06
1.70856e-06
4.97338e-06
-5.87873e-06
1.49015e-06
-1.78548e-06
-1.71663e-06
-5.16509e-06
1.20393e-06
6.25829e-06
-6.06952e-06
1.70833e-06
-1.89708e-06
1.37027e-06
-5.10045e-06
-1.76814e-06
-4.50942e-06
-7.44197e-06
-7.77745e-06
1.55141e-06
-4.29467e-06
-1.77703e-06
-5.81381e-06
-4.31208e-06
-1.43058e-06
1.03219e-06
-1.44116e-06
-4.34597e-06
1.18093e-06
5.01158e-06
-1.58748e-06
-4.58933e-06
1.16527e-06
8.95912e-07
-1.23029e-06
-3.92891e-06
-3.4787e-06
-5.37455e-06
-6.13028e-06
1.21051e-06
-3.23128e-06
-1.24733e-06
-4.34997e-06
-6.55314e-06
6.93984e-06
1.69414e-06
-2.08085e-06
-1.8549e-06
5.84562e-06
-5.21123e-06
1.22052e-06
6.94117e-06
-6.14321e-06
1.29301e-06
-2.09094e-06
1.15677e-06
4.84528e-06
-4.40085e-06
-1.60118e-06
-4.96463e-06
-7.61455e-06
6.02604e-06
-8.04473e-06
1.22522e-06
-4.48536e-06
-1.97241e-06
-5.58891e-06
-4.13214e-06
1.16884e-06
-1.40918e-06
-1.23871e-06
9.74864e-07
-3.87651e-06
4.4215e-06
1.14781e-06
-4.21291e-06
-1.35638e-06
1.05454e-06
-3.85348e-06
-1.21592e-06
-3.08511e-06
-5.41507e-06
-5.32718e-06
1.00336e-06
-3.04748e-06
-1.31305e-06
-3.95314e-06
-6.5873e-06
-3.90832e-06
6.33239e-06
-4.75616e-06
-7.64574e-06
-3.67918e-06
-6.69323e-06
4.01421e-06
-3.08635e-06
-5.28046e-06
-1.64923e-06
-1.02018e-06
-3.91787e-06
-1.13066e-06
-1.37018e-06
-6.18001e-06
-6.44867e-06
1.10979e-06
8.25653e-07
-5.14227e-06
3.98988e-06
-6.89707e-06
1.31975e-06
1.83358e-06
-7.85449e-06
1.26474e-06
-4.38217e-06
-5.98435e-06
-4.80384e-06
-5.449e-06
1.29826e-06
-6.26295e-06
-1.34293e-06
-4.42377e-06
-1.87904e-06
-3.82029e-06
-1.70409e-06
-1.33392e-06
-2.97167e-06
6.51253e-06
-3.63048e-06
-1.73425e-06
5.51167e-06
-5.08075e-06
-1.77386e-06
-4.48864e-06
4.8192e-06
-3.38742e-06
-5.33842e-06
5.44462e-06
-4.22981e-06
-4.26817e-06
-3.84575e-06
3.82749e-06
-4.87892e-06
-8.04798e-07
1.49242e-06
1.25241e-06
-9.43031e-07
-3.95879e-06
-2.68928e-06
2.27077e-06
-5.07174e-09
4.23549e-07
2.61696e-06
-4.21098e-06
-7.74019e-07
2.36802e-06
2.43814e-06
-4.89873e-06
3.31084e-06
-8.5029e-07
-1.24297e-06
-4.39769e-06
3.47027e-06
2.17041e-06
-4.06008e-06
-8.46738e-07
2.21751e-06
-1.14799e-06
-2.95138e-07
-5.84272e-06
3.75296e-06
-4.5526e-06
-4.56006e-06
3.21196e-06
-9.7051e-07
2.3186e-06
3.59387e-06
-1.28441e-06
-4.59608e-06
2.28662e-06
2.37305e-06
3.87068e-06
-1.55918e-06
-4.68456e-06
-1.1178e-06
2.94023e-06
-3.54185e-06
1.71941e-06
-5.83923e-06
-9.73066e-07
2.25223e-06
-1.2031e-06
-1.04226e-06
-5.59253e-06
3.50166e-06
-4.42258e-06
-5.29575e-06
2.67488e-06
3.86666e-06
-1.2458e-06
4.25241e-06
2.82403e-06
-1.91069e-06
-5.16576e-06
2.77077e-06
4.49276e-06
-1.71095e-06
-5.55258e-06
-1.64403e-06
2.66271e-06
3.9772e-06
-4.99588e-06
-6.95619e-06
-1.18416e-06
2.84458e-06
-1.11644e-06
-1.58733e-06
-7.1192e-06
4.29099e-06
-5.46486e-06
-3.45561e-06
-1.14462e-06
2.72826e-06
1.87197e-06
2.37629e-06
-8.57906e-07
-2.89129e-06
1.3729e-06
1.9939e-06
-1.32754e-06
2.90932e-06
-3.57569e-06
-1.01464e-06
2.25728e-06
-3.06171e-06
1.81907e-06
-4.13685e-06
-7.72955e-07
1.4542e-06
-7.84056e-07
-9.76506e-07
-4.34359e-06
2.55598e-06
-3.13375e-06
-1.16812e-06
-5.24745e-06
2.20457e-06
2.15852e-06
-6.04296e-06
-1.01433e-06
-5.57099e-06
-1.05671e-06
2.23002e-06
4.15226e-06
-5.17465e-06
-8.44069e-07
1.86646e-06
3.77413e-06
1.28344e-06
-6.22573e-06
1.38005e-06
3.30041e-06
2.13529e-06
-8.9053e-07
-1.03951e-06
-9.95977e-07
-1.29755e-06
-9.36863e-07
6.48783e-06
-1.026e-06
-1.59118e-06
-3.80762e-06
-1.23346e-06
-1.00189e-06
-4.78051e-06
-2.48475e-06
-2.57641e-06
-4.96609e-06
-1.32629e-06
-1.05467e-06
1.56591e-06
-6.83259e-06
4.25233e-06
-5.68038e-06
3.47906e-06
2.86583e-06
-4.56779e-06
1.07486e-06
-5.95724e-06
3.55486e-06
2.49995e-06
-4.76986e-06
3.83583e-06
-4.07096e-06
2.18164e-06
-5.87661e-06
-5.39119e-06
1.02706e-06
-4.32158e-06
-1.90272e-06
-3.60193e-06
6.54907e-06
-4.75106e-06
1.60651e-06
-4.15312e-06
-3.24304e-06
1.34127e-06
-3.80448e-06
-2.32832e-06
3.72058e-07
4.22702e-06
4.94006e-06
-2.38017e-06
7.50939e-07
-3.40697e-06
-2.24333e-06
3.54986e-07
5.29531e-06
4.96359e-07
-1.9616e-06
4.93552e-06
-1.77482e-06
3.19945e-06
2.8169e-06
3.48331e-07
-1.53432e-06
5.23013e-06
-2.1244e-06
-2.17755e-06
5.45386e-06
5.90351e-07
6.18412e-06
6.40263e-07
-2.33163e-06
-4.39768e-06
5.81395e-06
6.1265e-07
-2.02893e-06
7.23527e-07
4.61286e-06
-1.3592e-06
-1.68665e-06
3.80009e-06
3.91384e-06
5.83624e-07
-1.68495e-06
6.20856e-06
-2.16879e-06
-2.39212e-06
-4.21814e-06
6.69407e-07
5.94085e-06
5.69262e-06
-4.18439e-06
6.23626e-07
-2.13186e-06
-4.02045e-06
7.07332e-07
5.22261e-06
-1.90949e-06
7.37298e-07
-3.39319e-06
4.52592e-06
-1.87003e-06
-1.53825e-06
3.52931e-06
-4.38318e-06
3.41043e-06
7.43937e-07
-1.42596e-06
5.69256e-06
-2.03598e-06
-1.32421e-06
3.09504e-07
3.74297e-06
2.81319e-06
5.54897e-07
-4.58766e-07
-2.22806e-06
5.92786e-07
3.08896e-06
-1.45368e-06
2.59618e-07
2.97944e-06
-9.8178e-07
-8.10259e-07
2.04203e-06
1.69458e-06
3.08356e-07
-7.87824e-07
3.08947e-06
-1.32131e-06
3.70147e-06
-1.8293e-06
-4.12396e-06
-1.81943e-06
3.70005e-06
-1.54059e-06
3.05804e-06
1.75856e-06
-1.27143e-06
3.06773e-06
5.84232e-06
-4.38518e-07
-1.70234e-06
-4.06045e-07
5.15585e-06
3.20922e-06
3.34095e-06
2.83612e-07
5.08809e-07
2.83262e-06
1.58288e-06
3.50717e-06
7.23891e-07
-5.86955e-06
3.5656e-06
4.84513e-07
-2.27008e-06
3.90868e-06
4.44729e-06
-2.2958e-06
3.34928e-07
3.73437e-06
-5.4736e-07
-1.69427e-06
5.94167e-06
-1.46329e-06
4.83084e-06
4.88471e-06
-1.26208e-06
-2.73839e-06
-1.16026e-06
4.49143e-06
-3.51115e-06
-1.92134e-06
4.88512e-06
-1.76523e-06
-3.42784e-06
-1.23189e-06
-2.34681e-06
-2.70704e-06
-1.84641e-06
3.39496e-06
-1.82442e-06
1.53272e-06
-2.20993e-06
-7.39065e-07
-5.99094e-06
-4.67801e-06
-7.23849e-07
-2.0069e-06
1.37125e-06
-3.28871e-06
-3.98184e-07
2.31566e-06
2.415e-06
1.38894e-06
-3.28589e-06
-5.18062e-07
-3.45068e-06
1.38748e-06
-3.71413e-07
2.43461e-06
-3.18462e-07
1.33025e-06
-3.22309e-06
2.21131e-06
9.94436e-07
3.65479e-06
-3.27798e-06
3.79933e-06
-3.89894e-07
1.0114e-06
2.32493e-06
1.36005e-06
1.33912e-06
2.41184e-06
-3.23406e-06
-5.16895e-07
2.4347e-06
-3.22913e-06
-4.58798e-07
1.25323e-06
-3.34245e-06
2.50227e-06
-4.32387e-07
1.27257e-06
-4.09936e-07
2.29514e-06
-3.118e-06
1.23281e-06
8.55446e-07
3.67813e-06
-3.19445e-06
3.73375e-06
-4.43606e-07
8.72023e-07
2.39617e-06
1.26332e-06
1.37784e-06
-3.52182e-06
-4.1436e-07
2.55833e-06
2.56156e-06
-3.4625e-06
-3.8886e-07
1.2898e-06
-3.56848e-06
-3.96939e-07
2.62996e-06
1.33546e-06
-3.64818e-07
-3.33526e-06
2.40639e-06
1.29369e-06
9.54333e-07
3.90106e-06
-3.47755e-06
3.90342e-06
-3.87535e-07
9.71096e-07
2.56514e-06
1.30603e-06
1.28208e-06
-2.78238e-07
-3.12243e-06
2.1186e-06
2.17859e-06
-3.27205e-07
-3.07636e-06
1.22498e-06
-3.19055e-06
-3.19218e-07
2.23067e-06
1.27911e-06
-2.62988e-07
-3.06158e-06
2.08045e-06
1.24413e-06
9.6877e-07
3.40403e-06
-3.09071e-06
3.44897e-06
-3.01607e-07
1.00042e-06
2.14062e-06
1.25884e-06
3.6897e-06
9.3002e-07
-3.23078e-06
-3.37734e-06
9.88304e-07
3.77652e-06
9.89563e-07
3.50201e-06
-3.16131e-06
-1.2842e-06
9.05247e-07
3.50652e-06
-3.12757e-06
2.36815e-06
3.90618e-07
9.30934e-07
3.50862e-07
2.25727e-06
-3.15085e-06
3.5977e-06
3.81464e-06
-4.72788e-07
-3.93698e-07
3.59409e-06
-9.15894e-07
3.8209e-06
-4.02738e-07
-2.48787e-06
3.88372e-06
-4.07543e-07
1.34589e-06
3.39969e-06
3.34835e-06
1.3508e-06
-4.38976e-07
3.78326e-06
3.36649e-07
9.83321e-07
2.45655e-06
1.00525e-06
2.21852e-06
2.2674e-06
9.11919e-07
-3.64097e-06
9.69025e-07
2.35272e-06
-3.3079e-06
1.32967e-06
2.31488e-06
1.29505e-06
-3.26084e-06
9.49544e-07
1.34522e-06
-3.66612e-06
1.29989e-06
3.25673e-06
1.24929e-06
-9.13334e-07
1.27173e-06
3.48076e-07
-2.4804e-06
-2.36849e-06
3.89522e-07
1.27776e-06
-3.97066e-06
3.27251e-06
-1.05744e-06
1.75558e-06
1.80606e-06
-3.70055e-06
3.09038e-06
-1.19589e-06
3.11028e-06
-3.68988e-06
-9.20044e-07
1.49967e-06
-9.55097e-07
-3.47442e-06
2.90782e-06
1.52172e-06
-4.99516e-06
-2.09345e-06
3.11798e-06
-2.08993e-06
-1.09917e-06
-4.59965e-06
1.55113e-06
-3.5793e-06
-3.48122e-06
1.64845e-06
2.99563e-06
-1.16281e-06
1.37587e-06
2.74552e-06
-3.33054e-06
-7.90853e-07
2.87657e-06
1.51899e-06
-3.28139e-06
-1.1141e-06
-7.73913e-07
1.35244e-06
2.56171e-06
-3.14018e-06
-4.41976e-06
-1.96871e-06
2.90742e-06
-1.9795e-06
-1.06435e-06
-4.19237e-06
1.44984e-06
-3.29529e-06
-3.45734e-06
2.96864e-06
-8.79791e-07
1.36853e-06
1.41555e-06
2.73456e-06
-3.18849e-06
-9.61624e-07
2.77747e-06
-3.18981e-06
-8.39247e-07
1.25162e-06
-7.66127e-07
2.62839e-06
-3.08432e-06
1.22208e-06
-4.27511e-06
-1.98131e-06
2.79913e-06
-1.9751e-06
-8.84445e-07
-3.94616e-06
1.19878e-06
-3.1438e-06
-3.1501e-06
-7.85788e-07
2.61263e-06
1.32327e-06
1.24737e-06
-6.49866e-07
2.43044e-06
-3.02797e-06
2.50709e-06
-6.92213e-07
-3.00932e-06
1.19446e-06
-6.03916e-07
2.38821e-06
-2.96636e-06
1.1821e-06
-3.77949e-06
-1.86195e-06
2.49138e-06
-1.8394e-06
-6.92703e-07
-3.67685e-06
1.21101e-06
-3.00915e-06
-1.91836e-06
-4.72932e-06
2.94713e-06
2.94324e-06
-4.59343e-06
-2.03967e-06
-4.33527e-06
-1.91296e-06
2.77382e-06
3.31138e-06
-4.10665e-06
-1.84805e-06
2.64329e-06
1.56575e-06
9.16145e-07
-4.40025e-06
9.29688e-07
1.49452e-06
2.73301e-06
-1.91107e-06
-1.92314e-06
-1.15772e-06
-8.90813e-07
-1.86338e-06
4.44191e-06
-1.9202e-06
-1.00276e-06
-1.58392e-06
-2.0537e-06
-9.55792e-07
-3.4376e-06
-2.8858e-06
-2.87858e-06
-3.46632e-06
-1.00341e-06
-1.90298e-06
8.46715e-07
-4.24196e-06
1.3556e-06
-4.0624e-06
1.36365e-06
1.27248e-06
-3.77037e-06
1.89092e-06
-3.79576e-06
1.21265e-06
2.78836e-06
-3.28743e-06
1.3458e-06
-3.1851e-06
2.60532e-06
-4.0018e-06
-3.32702e-06
1.89617e-06
-3.06353e-06
-2.55115e-06
-3.08257e-06
3.99615e-06
-3.18176e-06
8.00516e-07
-1.32839e-06
-1.3051e-06
7.64803e-07
-3.09144e-06
4.01119e-06
-2.79998e-06
9.45573e-08
-1.30578e-06
-9.03848e-07
3.01609e-06
-1.91577e-06
-1.96428e-07
-3.50465e-06
4.6769e-06
1.89026e-07
-1.36121e-06
1.45122e-07
4.12461e-06
-3.57993e-06
-6.90064e-07
3.72483e-06
3.38351e-06
-3.09705e-06
2.65696e-06
1.64065e-07
5.45683e-06
-1.92803e-06
4.60928e-06
3.31785e-06
-1.22949e-06
-1.93972e-06
-1.48632e-07
-1.52925e-06
-2.27541e-06
-7.3597e-09
3.81206e-06
-2.08052e-06
-9.79793e-07
-1.28403e-07
3.18879e-06
-7.43529e-08
-1.97596e-07
-2.97282e-06
3.24467e-06
3.92702e-06
2.37028e-06
-2.97943e-06
2.09421e-06
3.03578e-07
3.18026e-06
-8.84228e-07
3.19398e-06
3.66211e-06
-2.63735e-06
-1.97478e-07
-8.27063e-07
-1.36276e-06
-3.71961e-06
2.56308e-07
4.82616e-06
-3.2478e-06
4.10483e-08
4.26884e-06
-1.06205e-06
3.40588e-07
-4.8315e-06
6.63917e-06
-2.14835e-06
4.21741e-06
3.10513e-06
-3.66027e-06
2.87672e-06
-2.20259e-08
4.70406e-06
-1.25828e-06
4.33299e-06
2.99046e-05
3.78985e-06
-1.24783e-05
-2.12161e-05
-8.82003e-06
1.52333e-06
-4.8568e-06
1.21536e-05
-1.06785e-05
1.13609e-06
1.22875e-05
-2.74518e-06
3.30711e-06
-3.37904e-06
1.01168e-06
-9.39574e-07
2.40352e-05
7.86862e-06
-1.99919e-06
1.21552e-05
3.06003e-06
1.54817e-05
-4.30597e-06
1.69584e-05
2.86051e-06
3.6794e-06
-3.52377e-06
-3.12241e-06
4.47546e-06
3.32404e-06
6.16361e-07
5.64327e-06
-2.13589e-06
-3.70152e-06
2.09143e-06
4.63097e-06
-3.02128e-06
-1.07033e-06
5.28917e-08
3.87807e-06
4.16493e-07
-1.18436e-07
-3.53049e-06
9.14242e-07
2.35406e-06
9.58689e-08
-2.33526e-07
2.12736e-06
-3.17972e-06
2.52618e-06
-3.26089e-07
1.34622e-06
3.14479e-06
-1.54833e-08
3.21015e-06
3.02211e-06
2.09246e-06
4.22886e-06
1.39552e-07
3.14161e-06
2.45804e-07
4.68686e-06
-1.60851e-06
1.32637e-05
-3.83075e-06
-6.72342e-06
1.28777e-05
-4.68891e-06
8.53504e-06
-2.71015e-06
-2.21734e-06
5.51996e-06
-3.05706e-06
1.19606e-05
-8.29717e-06
9.12811e-06
5.19439e-06
-4.66609e-06
8.36961e-06
6.35009e-06
8.65495e-06
-6.0756e-06
4.88229e-06
-3.753e-07
1.90944e-06
4.08671e-06
-1.02455e-06
9.41224e-06
3.77931e-06
-1.28805e-06
-5.08936e-06
2.59809e-06
-4.91408e-06
3.37305e-06
-9.10231e-07
2.45127e-06
2.56007e-06
3.78527e-06
-1.59385e-06
-4.75147e-06
-1.19683e-06
3.06491e-06
-3.7734e-06
1.9053e-06
2.48168e-06
-1.00851e-06
2.30614e-06
-1.10201e-06
-1.33038e-06
1.91872e-06
-4.12406e-06
3.37679e-06
3.09413e-06
-4.24544e-06
-7.21158e-07
1.87249e-06
-3.85515e-06
-1.33371e-07
1.71314e-06
2.1822e-06
-3.88664e-06
-2.35292e-07
-1.47369e-06
-3.7119e-06
2.21275e-06
1.91111e-06
-1.34038e-06
2.52341e-06
-1.15114e-06
-7.92908e-07
1.94837e-06
-4.76247e-06
4.0917e-06
2.82566e-06
-1.81093e-06
-5.10644e-06
-4.1478e-06
2.45071e-06
-2.18702e-07
1.99513e-06
-5.19225e-07
-4.27595e-06
-1.94131e-06
1.61073e-06
-3.2494e-06
2.21786e-06
-1.12513e-06
2.99896e-06
-8.68989e-07
-1.06096e-06
1.97091e-06
-5.03737e-06
5.22131e-06
-1.73419e-06
-6.71572e-06
3.22864e-06
-2.52108e-06
-1.24579e-06
-1.0897e-06
-6.019e-06
-1.61473e-06
-4.84455e-06
-1.78279e-06
-2.66971e-06
1.07362e-06
4.4862e-06
-6.43083e-07
1.37844e-06
3.97902e-06
-2.01386e-06
4.03917e-06
-6.46489e-06
-1.10049e-06
2.09364e-06
2.37991e-06
2.48396e-06
2.22236e-06
-9.21042e-07
1.99417e-06
-8.64567e-07
1.93527e-06
-3.59013e-06
1.95886e-06
-6.73116e-07
2.30438e-06
-4.49836e-06
1.47971e-06
1.91819e-06
1.36239e-06
-4.39462e-06
2.28421e-06
-1.03807e-06
-1.11686e-06
-1.03494e-06
-1.29459e-06
-4.58466e-07
-1.95817e-06
-1.132e-06
-7.96481e-07
5.02455e-06
-1.00564e-06
-1.79656e-06
3.40932e-06
-2.60801e-06
-2.64775e-06
3.48296e-06
-1.06643e-06
-1.12296e-06
1.68713e-06
1.92218e-06
-4.53037e-06
2.09776e-06
-4.69656e-06
-3.53773e-06
1.61877e-06
-3.58943e-07
4.5693e-07
-1.71271e-06
2.54482e-06
4.35279e-06
-5.21043e-06
3.60451e-06
1.94709e-06
2.04674e-06
3.74219e-06
-6.82536e-08
-1.86101e-06
-2.20507e-06
1.5481e-06
5.19303e-06
3.5265e-06
1.865e-06
2.64011e-06
-2.23709e-06
4.14303e-07
-8.17323e-07
-6.9054e-07
2.68341e-06
-2.44221e-06
4.49334e-07
4.7063e-07
2.68451e-06
-2.42161e-06
-7.3355e-07
-2.41043e-06
2.69311e-06
4.48822e-07
-7.31482e-07
3.02015e-07
1.91202e-06
4.26094e-07
1.96458e-06
-2.3531e-06
2.55131e-07
-7.53535e-07
2.69034e-06
2.80928e-06
-5.48124e-07
-2.74774e-06
4.86589e-07
-4.38965e-07
-3.18609e-06
3.06339e-06
5.61677e-07
6.3012e-07
-5.22868e-07
-3.08485e-06
2.97758e-06
-2.9929e-06
-4.98973e-07
2.96819e-06
5.23684e-07
-8.56379e-08
2.38885e-06
5.06083e-07
2.48451e-06
-3.00911e-06
-7.83459e-08
-5.25715e-07
3.03628e-06
2.77613e-06
5.69339e-07
-2.66374e-06
-6.81728e-07
-5.56059e-07
6.53393e-07
-2.97205e-06
2.87475e-06
6.64852e-07
-2.90836e-06
2.91687e-06
-6.73365e-07
-2.88755e-06
6.58415e-07
2.91746e-06
-6.88323e-07
-3.69011e-08
2.20091e-06
6.12138e-07
2.27158e-06
-2.86453e-06
-1.53527e-08
-6.71292e-07
2.92108e-06
2.7813e-06
-2.59433e-06
5.13569e-07
-7.00532e-07
-5.93225e-07
-2.88212e-06
2.91872e-06
5.5663e-07
6.2138e-07
-2.83762e-06
2.91473e-06
-6.98491e-07
-2.79949e-06
2.91263e-06
6.09262e-07
-7.22389e-07
6.46102e-08
2.16758e-06
5.49112e-07
2.23375e-06
-2.76237e-06
6.06678e-08
-6.92574e-07
2.9158e-06
2.09585e-06
1.2015e-07
4.6741e-07
4.98865e-07
1.46828e-07
2.03882e-06
1.6782e-07
2.04009e-06
4.85193e-07
-2.77482e-06
-2.59838e-09
2.25451e-06
5.22902e-07
-6.30227e-07
2.64855e-06
7.7523e-08
2.55898e-06
-6.19185e-07
4.92905e-07
2.10761e-06
2.19397e-06
-2.62193e-06
-2.84174e-06
2.34016e-06
4.31779e-08
2.34904e-06
-2.91507e-06
6.25211e-07
2.09247e-06
-2.57085e-06
2.80554e-06
-5.34051e-07
-5.61917e-07
2.78723e-06
-2.69606e-06
2.2685e-06
2.62791e-06
1.14673e-07
-7.0377e-07
1.37781e-07
-6.92017e-07
-6.0086e-07
-2.67602e-08
-2.17207e-06
2.49819e-08
-6.9053e-07
5.4355e-07
2.78199e-06
-6.97632e-07
2.78894e-06
5.74288e-07
3.56362e-08
2.77648e-06
-2.24193e-06
2.92532e-06
-6.19398e-07
2.93279e-06
7.4068e-08
2.92837e-06
2.78908e-06
5.99553e-07
5.82785e-07
2.94212e-06
2.9055e-06
6.23527e-06
1.22039e-06
-5.54151e-06
-1.91412e-06
-1.73284e-06
5.0472e-06
1.34975e-06
-4.66411e-06
-5.63917e-06
6.0167e-06
1.38523e-06
-1.76274e-06
1.09119e-06
4.79079e-06
-4.09382e-06
-1.78816e-06
7.09595e-06
3.96272e-06
-4.8234e-06
4.20896e-06
1.15416e-06
6.7721e-06
-1.7182e-06
5.34189e-06
4.34708e-06
-1.39887e-06
1.07476e-06
-4.02296e-06
-1.22005e-06
4.14502e-06
8.36472e-07
-3.76144e-06
-3.59461e-06
-1.2403e-06
3.87684e-06
9.58065e-07
7.58502e-07
-1.09067e-06
3.73988e-06
-3.40771e-06
5.34234e-06
2.73098e-06
-3.72625e-06
3.06091e-06
1.06138e-06
4.59899e-06
-1.10952e-06
4.06529e-06
5.51891e-06
-5.30958e-06
1.34008e-06
-1.54938e-06
-1.50216e-06
-4.30846e-06
4.79345e-06
1.0172e-06
-4.89825e-06
5.25604e-06
9.94953e-07
-1.35272e-06
1.12228e-06
-4.61134e-06
5.09954e-06
-1.61046e-06
6.47138e-06
3.64399e-06
-4.59642e-06
3.7364e-06
1.23282e-06
6.23729e-06
-1.471e-06
5.07545e-06
3.94816e-06
9.2808e-07
-3.59014e-06
-1.28609e-06
-1.09483e-06
8.21792e-07
3.64622e-06
-3.37316e-06
-3.83229e-06
1.07492e-06
4.14073e-06
-1.38336e-06
9.31894e-07
3.69601e-06
-3.50786e-06
-1.12005e-06
4.74095e-06
2.76337e-06
-3.55617e-06
2.77196e-06
8.74151e-07
4.96351e-06
-1.26824e-06
3.90318e-06
3.2147e-06
5.77115e-06
-3.93865e-06
-4.77029e-06
7.03392e-06
3.7531e-06
5.29987e-06
3.16667e-06
-3.67575e-06
-3.88019e-06
4.59634e-06
2.70103e-06
-3.41718e-06
-1.44259e-06
-8.62609e-07
5.5199e-06
-8.70987e-07
-1.30604e-06
-3.43675e-06
3.12284e-06
3.28278e-06
1.0895e-06
7.69409e-07
2.73626e-06
-5.76777e-06
3.34535e-06
1.18213e-06
1.67391e-06
4.11376e-06
1.24627e-06
4.09537e-06
4.70733e-06
3.75526e-06
5.19698e-06
1.18428e-06
3.18448e-06
-1.07177e-06
6.39225e-06
-1.56736e-06
5.69353e-06
-1.59879e-06
-1.32397e-06
4.8468e-06
-3.43642e-06
6.10327e-06
-1.59193e-06
-4.35911e-06
4.8898e-06
-1.60247e-06
4.45725e-06
-4.00743e-06
5.46081e-06
5.19643e-06
-3.24476e-06
4.73669e-06
3.66379e-06
3.91928e-06
-5.53914e-06
4.57606e-06
-8.79807e-07
1.47982e-06
1.33625e-06
-8.74849e-07
4.12518e-06
6.96954e-06
-5.73695e-06
1.19703e-06
-2.4296e-06
-3.19518e-06
6.88072e-06
-4.99832e-06
1.31279e-06
-4.87264e-06
6.6493e-06
1.12172e-06
-2.89833e-06
1.09291e-06
4.8443e-06
-4.09909e-06
-1.83799e-06
8.6258e-06
3.59287e-06
-5.24911e-06
4.05311e-06
1.37751e-06
7.62186e-06
-2.93606e-06
6.80234e-06
6.48001e-06
-3.03504e-06
-4.72293e-06
1.27797e-06
-3.07711e-06
-4.54155e-06
1.12484e-06
6.49383e-06
-4.35034e-06
-3.13063e-06
1.16455e-06
6.31642e-06
8.03099e-07
-1.86773e-06
-3.13709e-06
4.20173e-06
7.50135e-06
3.332e-06
-4.35334e-06
3.33174e-06
1.0925e-06
6.78601e-06
-2.65091e-06
5.76741e-06
5.55816e-06
-4.0983e-06
9.82921e-07
-2.44278e-06
-2.95979e-06
-4.57687e-06
1.25005e-06
6.28662e-06
-3.51795e-06
1.03315e-06
4.29729e-06
-1.81247e-06
8.09188e-07
-3.00139e-06
4.13802e-06
-1.94577e-06
7.21642e-06
2.78888e-06
-4.44715e-06
3.01068e-06
1.24595e-06
5.71321e-06
-2.11518e-06
5.20593e-06
7.7199e-06
1.27672e-06
-3.26373e-06
-5.73309e-06
-1.56015e-06
6.5276e-07
-1.47992e-06
2.38725e-06
-2.65104e-06
7.10814e-07
3.04518e-06
-1.105e-06
5.96095e-07
-2.11765e-06
2.70884e-06
-1.18731e-06
4.89584e-06
2.26522e-06
5.58617e-07
2.33389e-06
1.00178e-06
4.02906e-06
-1.16803e-06
3.71193e-06
3.5402e-06
7.8834e-06
-4.54287e-06
-4.83741e-06
8.11072e-06
3.37604e-06
5.54974e-06
2.6214e-06
-3.32685e-06
-4.20458e-06
4.81668e-06
2.36142e-06
-2.9735e-06
-3.06658e-06
-9.23247e-07
7.53004e-06
-1.10166e-06
-2.00959e-06
-3.11824e-06
2.4385e-06
3.72605e-06
1.12232e-06
7.57581e-07
2.19137e-06
-7.99663e-06
3.65564e-06
1.21036e-06
3.34683e-06
3.45823e-06
1.30567e-06
6.1794e-06
5.07669e-06
4.28606e-06
7.04832e-06
1.37519e-06
3.33776e-06
-8.64785e-07
6.95433e-06
-2.71348e-06
6.17102e-06
-2.27278e-06
-2.57657e-06
5.59074e-06
-2.18266e-06
4.6242e-06
-1.73068e-06
-3.33485e-06
4.80773e-06
-2.33764e-06
5.27467e-06
-3.69988e-06
6.32493e-06
6.31427e-06
-2.51916e-06
4.14197e-06
3.40697e-06
4.37514e-06
-7.33086e-06
6.40964e-06
-1.10427e-06
2.97139e-06
2.7015e-06
-1.02171e-06
5.08676e-06
4.58028e-06
-1.26935e-06
-6.03579e-06
2.72485e-06
-6.46759e-06
4.46052e-06
-7.16211e-07
2.72328e-06
2.64234e-06
3.90123e-06
-1.4921e-06
-5.05149e-06
-1.09763e-06
2.87669e-06
-3.6971e-06
1.91802e-06
3.47903e-06
-1.63309e-06
2.73433e-06
-1.5959e-06
-1.39266e-06
2.6059e-06
-5.33662e-06
3.65233e-06
4.11782e-06
-5.87363e-06
-8.76573e-07
2.63237e-06
-6.1643e-06
-6.35899e-07
2.25865e-06
2.96887e-06
-6.31874e-06
-1.37305e-06
-1.06309e-06
-4.20406e-06
2.13006e-06
3.18864e-06
-1.66228e-06
2.59146e-06
-1.73565e-06
-1.24001e-06
3.12011e-06
-5.84547e-06
4.34446e-06
2.87567e-06
-1.48987e-06
-5.73023e-06
-6.55207e-06
3.10178e-06
-1.548e-06
3.94916e-06
-1.6333e-06
-8.0528e-06
-1.36679e-06
2.67685e-06
-5.40912e-06
3.11011e-06
-1.65905e-06
2.89343e-06
-1.90613e-06
-1.53582e-06
3.20608e-06
-6.23189e-06
2.45697e-06
-4.84167e-07
-3.27021e-06
1.29735e-06
-1.67434e-06
-4.81908e-07
6.76088e-07
-1.83116e-06
6.72852e-07
-2.10556e-06
-1.0279e-06
-2.49983e-06
1.41003e-06
1.90911e-06
-1.08751e-06
1.63529e-06
8.04449e-07
-5.69766e-07
4.6809e-07
-2.58366e-06
-1.61259e-06
3.18662e-06
2.88648e-06
2.51625e-06
2.80179e-06
-1.4168e-06
1.98621e-06
-9.11838e-07
1.8023e-06
-2.98775e-06
2.12559e-06
-1.08867e-06
1.9508e-06
-5.29966e-06
1.04324e-06
2.64382e-06
8.68922e-07
-3.91055e-06
1.96602e-06
-1.05542e-06
-1.52515e-06
-1.16186e-06
-9.59757e-07
-1.11871e-06
-3.30946e-06
-1.65311e-06
-1.35616e-06
5.78265e-06
-1.56046e-06
-1.42038e-06
3.8621e-06
-2.74341e-06
-2.94313e-06
4.46335e-06
-1.4241e-06
-1.78924e-06
1.01314e-06
2.74756e-06
-5.17749e-06
1.7941e-06
-3.19011e-06
-3.621e-06
2.05042e-06
6.76282e-07
1.80271e-06
-1.80622e-06
1.98222e-06
2.72805e-06
-3.69716e-06
2.72089e-06
1.46988e-06
1.93447e-06
4.06277e-06
1.15273e-06
-2.04178e-06
-3.09419e-06
9.15998e-07
6.04022e-06
4.00322e-06
1.1568e-06
-3.36727e-06
-1.15197e-06
3.52906e-06
9.90219e-07
3.87251e-06
-4.09862e-06
-9.95717e-07
1.22186e-06
1.56083e-06
-5.16234e-06
-1.97041e-06
5.57194e-06
-1.93837e-06
-4.74921e-06
5.08929e-06
1.59832e-06
-4.87804e-06
3.85574e-07
1.12522e-06
3.24683e-07
-1.33021e-06
-6.62603e-06
5.07324e-06
-4.7405e-06
-4.84841e-06
4.73845e-06
-1.51719e-06
1.62718e-06
5.2405e-06
-1.67801e-06
1.69356e-06
1.47797e-06
5.2259e-06
-1.91039e-06
-1.90818e-06
5.36954e-06
1.6382e-06
-6.85242e-06
2.94105e-07
1.70992e-06
2.82927e-07
-1.89484e-06
-6.83634e-06
5.2223e-06
-4.25412e-06
1.4069e-06
-1.80758e-06
4.65481e-06
4.44149e-06
1.29245e-06
-1.85711e-06
1.30847e-06
-1.52374e-06
4.3603e-06
-1.47054e-06
1.16953e-06
4.0409e-06
-5.83831e-06
2.32007e-07
1.35218e-06
2.59965e-07
-1.65679e-06
-5.63372e-06
4.39518e-06
-4.36485e-06
-1.75205e-06
4.74226e-06
1.37465e-06
4.52108e-06
-1.64989e-06
1.26954e-06
1.14773e-06
-1.43137e-06
3.92987e-06
-1.37616e-06
3.93039e-06
1.14178e-06
-5.94972e-06
2.63344e-07
1.32153e-06
2.85376e-07
-1.71401e-06
-5.33629e-06
4.22348e-06
3.71586e-07
-6.03137e-06
1.56119e-06
1.51577e-06
-7.03445e-06
3.56367e-07
-6.67313e-06
3.86569e-07
1.53737e-06
4.92259e-06
-6.87795e-06
3.42244e-07
1.61314e-06
5.13886e-06
1.8879e-06
-6.65513e-06
1.91413e-06
5.17633e-06
1.63417e-06
4.17324e-07
3.29828e-07
-1.62275e-06
-1.88056e-06
3.72146e-07
6.80517e-06
3.65645e-07
-1.94489e-06
-5.39251e-06
3.37787e-07
-1.97971e-06
-4.80628e-06
-1.51901e-06
-1.46453e-06
-4.93813e-06
-1.97338e-06
4.02514e-07
1.71743e-06
-6.32067e-06
4.95962e-06
-6.46766e-06
5.10218e-06
5.07241e-06
-6.38003e-06
-3.26535e-07
-5.41857e-06
4.31374e-06
1.34089e-06
-4.25953e-06
4.63608e-06
-4.70944e-06
1.35105e-06
-5.93711e-06
-4.57597e-06
-3.29773e-07
-1.2712e-06
6.23417e-06
1.70373e-06
-4.92751e-06
-4.56316e-06
1.70917e-06
-2.80766e-06
-2.1874e-06
4.3146e-07
4.56361e-06
5.54849e-06
-2.45955e-06
-3.51734e-06
4.284e-07
-3.20958e-06
-2.22036e-06
2.60714e-07
5.16921e-06
5.34942e-07
-1.87446e-06
-3.38448e-06
4.724e-06
-2.23588e-06
3.49614e-06
-4.06795e-06
2.88498e-06
4.27632e-07
-2.02424e-06
6.05532e-06
-2.34884e-06
-2.22407e-06
5.94372e-06
-4.03062e-06
3.10989e-07
6.43341e-06
-4.44659e-06
4.39695e-07
-2.42651e-06
-4.61283e-06
6.1376e-06
4.96186e-07
-2.02096e-06
6.91997e-07
4.57233e-06
-3.90722e-06
-1.35712e-06
-1.769e-06
3.88434e-06
-4.33941e-06
4.07686e-06
5.87557e-07
-1.83891e-06