/*--------------------------------*- C++ -*----------------------------------*\
| =========                 |                                                 |
| \\      /  F ield         | OpenFOAM: The Open Source CFD Toolbox           |
|  \\    /   O peration     | Version:  2506                                  |
|   \\  /    A nd           | Website:  www.openfoam.com                      |
|    \\/     M anipulation  |                                                 |
\*---------------------------------------------------------------------------*/
FoamFile
{
    version     2.0;
    format      ascii;
    arch        "LSB;label=32;scalar=64";
    class       surfaceScalarField;
    location    "700";
    object      phi;
}
// * * * * * * * * * * * * * * * * * * * * * * * * * * * * * * * * * * * * * //

dimensions      [0 3 -1 0 0 0 0];

oriented        oriented;

internalField   nonuniform List<scalar> 
94240
(
-6.52948e-07
1.33184e-06
3.05378e-07
1.33736e-06
-6.57127e-07
3.0405e-07
3.23302e-07
-6.6075e-07
1.32173e-06
-1.0162e-06
-7.32039e-07
1.41301e-06
3.35196e-07
-1.64359e-06
6.83087e-07
3.07535e-07
6.78046e-07
-1.68648e-06
1.35335e-06
-6.85146e-07
-6.61621e-07
1.34146e-06
3.04457e-07
1.345e-06
3.03557e-07
-6.64267e-07
3.27736e-07
1.32803e-06
-6.71495e-07
-1.0155e-06
1.44578e-06
3.28147e-07
-7.58441e-07
-1.65111e-06
6.81907e-07
3.07588e-07
6.78175e-07
-1.71285e-06
1.37924e-06
-7.06945e-07
-6.7274e-07
3.38064e-07
1.31898e-06
1.31659e-06
3.44386e-07
-6.76701e-07
3.57803e-07
1.31401e-06
-6.87547e-07
-1.01163e-06
4.58035e-07
1.34968e-06
-7.96117e-07
-1.65398e-06
6.20419e-07
3.60819e-07
6.4689e-07
-1.73609e-06
1.34486e-06
-7.3142e-07
-8.45574e-07
-1.0785e-06
1.5197e-06
4.0433e-07
1.56614e-06
-1.09473e-06
4.11915e-07
-8.83378e-07
4.9925e-07
-1.08219e-06
1.48636e-06
-9.03466e-07
-1.19714e-06
1.74436e-06
4.88388e-07
-1.03565e-06
-1.97238e-06
6.99118e-07
4.27637e-07
6.73271e-07
-1.07952e-06
-2.12176e-06
1.6237e-06
-9.49267e-07
6.8733e-07
-1.65086e-06
3.06407e-07
3.38535e-07
-1.64767e-06
6.4837e-07
-1.78805e-06
6.95758e-07
3.60213e-07
7.58203e-07
-1.78756e-06
6.77971e-07
3.51351e-07
1.36457e-06
1.03437e-06
-1.71164e-06
1.01795e-06
1.4399e-06
3.52657e-07
6.69788e-07
6.74881e-07
-1.01646e-06
6.74672e-07
1.65435e-06
6.57961e-07
-1.3205e-06
6.5711e-07
-7.02563e-07
-3.34202e-07
-3.39787e-07
-6.70419e-07
6.44139e-07
1.00901e-06
-1.70005e-06
1.33943e-06
-1.85543e-06
1.47267e-06
1.47133e-06
-1.88812e-06
-6.18152e-07
-1.89809e-06
1.43402e-06
3.8832e-07
-7.4737e-07
1.36805e-06
-7.97333e-07
4.05532e-07
-1.77108e-06
-7.04878e-07
-6.11472e-07
-8.2861e-07
-4.01575e-07
-8.11899e-07
1.71498e-06
-7.12652e-07
1.00366e-06
-1.34773e-06
-1.3789e-06
1.01138e-06
-7.69103e-07
1.37164e-06
6.34722e-07
-6.74531e-07
6.79685e-07
1.3143e-06
-6.72218e-07
-1.34159e-06
1.37771e-06
7.36492e-07
-7.72576e-07
-7.33571e-07
1.37123e-06
7.75358e-07
6.68074e-07
2.05693e-06
2.03595e-06
-6.88179e-07
6.24724e-07
6.98664e-07
1.31909e-06
1.26891e-06
7.25437e-07
-6.75353e-07
7.65055e-07
1.23276e-06
-6.83767e-07
-1.30654e-06
9.29559e-07
1.13059e-06
-7.53623e-07
-7.3331e-07
9.63516e-07
1.1194e-06
5.67438e-07
2.04629e-06
2.02122e-06
-6.88722e-07
4.17233e-07
8.95717e-07
1.13192e-06
1.34555e-06
-1.38593e-06
9.85323e-07
-9.4492e-07
1.08326e-06
-1.35531e-06
1.1718e-06
-8.99762e-07
-1.47639e-06
1.42315e-06
1.19438e-06
-1.14114e-06
-9.54767e-07
-1.5353e-06
1.32275e-06
1.16731e-06
3.68534e-07
2.43096e-06
-1.45394e-06
2.45042e-06
-9.98624e-07
3.93734e-07
1.08245e-06
1.36776e-06
1.34663e-06
-7.76854e-07
9.49885e-07
1.1005e-06
-7.70274e-07
1.15609e-06
-1.65601e-06
-8.83189e-07
1.42375e-06
1.11543e-06
-8.08874e-07
1.48485e-06
1.06835e-06
5.24693e-07
2.44558e-06
2.43136e-06
-8.06186e-07
5.67771e-07
1.06889e-06
1.34312e-06
2.03895e-06
6.14787e-07
-1.38297e-06
5.68061e-07
2.19267e-06
5.91606e-07
2.25229e-06
-1.22932e-06
4.68846e-07
2.19442e-06
8.01497e-07
7.30667e-07
5.06808e-07
7.37622e-07
8.69389e-07
2.19861e-06
2.03687e-06
-6.96632e-07
-7.51982e-07
2.18433e-06
-4.33475e-07
2.16676e-06
-8.0373e-07
-8.41214e-07
2.21527e-06
-8.05977e-07
1.22324e-06
1.32043e-06
1.36697e-06
1.23634e-06
-7.57128e-07
2.16983e-06
8.40904e-07
4.9121e-07
8.60591e-07
6.23162e-07
8.52269e-07
1.01318e-06
4.10919e-07
-2.42884e-06
4.72262e-07
1.07335e-06
-1.47046e-06
1.35086e-06
9.60491e-07
1.35129e-06
-1.55828e-06
4.80256e-07
1.32056e-06
-2.377e-06
1.31391e-06
1.44249e-06
1.15268e-06
-3.83846e-07
1.19526e-06
8.43196e-07
-9.76594e-07
-1.05356e-06
8.09387e-07
1.1983e-06
-1.02133e-06
3.14685e-06
-7.02344e-07
-5.04784e-07
-1.10079e-06
2.92832e-06
2.68083e-06
-9.81472e-07
-5.27554e-07
-1.15128e-06
-1.20293e-06
3.08649e-06
-7.32288e-07
-2.40249e-06
-1.64829e-06
3.02946e-06
-1.53951e-06
-2.13913e-06
-6.60436e-07
-9.97818e-07
-1.23063e-06
-4.29176e-07
3.08355e-06
-3.25528e-07
3.02736e-06
-1.217e-06
2.64468e-06
-4.10768e-07
-1.07789e-06
-1.12058e-06
-6.12266e-07
3.0044e-06
-1.27156e-06
-2.56033e-06
-1.62824e-06
2.95795e-06
-1.54276e-06
-2.29289e-06
-4.55973e-07
-1.19098e-06
-9.15908e-07
2.42466e-06
-3.78167e-07
-3.58318e-07
2.42091e-06
-9.43224e-07
2.29399e-06
-2.2883e-07
-8.32404e-07
-1.04981e-06
2.42157e-06
-3.84582e-07
-9.87178e-07
-2.01959e-06
-1.31684e-06
2.42059e-06
-1.246e-06
-1.99696e-06
-3.69668e-07
-9.48978e-07
-1.411e-06
-8.92482e-07
3.12686e-06
-8.23383e-07
-7.30402e-07
-7.43151e-07
2.8533e-06
-1.37977e-06
2.64598e-06
-8.05977e-07
-6.16784e-07
-1.22324e-06
-5.93276e-07
3.14944e-06
-8.1611e-07
-1.74003e-06
-2.19131e-06
-2.21776e-06
2.99805e-06
-2.04364e-06
-8.78076e-07
-1.93296e-06
-8.78106e-07
-1.33061e-06
-1.63126e-06
-2.4398e-06
2.97023e-06
2.66953e-06
-2.13395e-06
-1.51706e-06
-2.33425e-06
-1.91759e-06
3.04893e-06
1.27039e-06
-2.30749e-06
-1.94695e-06
2.98408e-06
-5.31036e-07
1.12207e-06
-2.22231e-06
1.14068e-06
-6.15468e-07
3.00793e-06
-1.80903e-06
-1.55508e-06
-1.07245e-06
-1.84736e-06
2.18777e-06
-1.44588e-06
4.34541e-07
-1.37325e-06
-1.12124e-06
-2.65617e-06
-2.64967e-06
-1.02334e-06
-1.48526e-06
1.01217e-06
-2.01234e-06
-5.16902e-07
-2.08038e-06
-7.29676e-07
-6.33337e-07
-2.05679e-06
1.69308e-06
-1.93632e-06
-5.62684e-07
2.68734e-06
-1.10995e-06
-5.65202e-07
-1.20207e-06
2.71348e-06
-2.13032e-06
-9.60901e-07
1.62207e-06
-1.13681e-06
-2.63911e-06
-1.26503e-06
2.03886e-06
-1.06389e-06
1.02364e-06
4.36052e-07
5.15385e-07
9.89631e-07
-1.13411e-06
2.42167e-06
-3.47075e-07
-3.91333e-07
-1.68321e-06
2.08515e-07
2.94201e-06
-2.79638e-07
-2.87084e-06
-2.34991e-07
2.71769e-06
-9.5886e-08
-2.38674e-06
-2.30464e-06
2.72155e-06
-9.20299e-08
-3.24848e-07
3.3249e-07
2.42196e-06
-3.32775e-07
2.74402e-06
-2.20301e-06
2.635e-07
-1.46186e-07
2.77253e-06
3.9774e-06
1.07907e-06
-6.49135e-07
-4.40735e-06
1.44077e-06
5.42035e-06
-2.49548e-07
-6.61161e-06
-7.66608e-08
8.87011e-07
4.48517e-06
-5.29556e-06
-5.3232e-06
1.05624e-06
4.74136e-06
-4.74356e-07
-1.01709e-06
5.58292e-06
-5.88435e-07
5.83263e-06
-5.40897e-06
-6.36458e-07
8.96156e-07
5.11951e-06
3.14558e-06
1.07713e-08
9.34179e-08
-3.24964e-06
4.89905e-07
2.5987e-07
3.8336e-06
-4.5833e-06
3.88073e-07
3.85237e-06
-7.20268e-08
-4.1684e-06
-3.99449e-06
1.25852e-07
3.75696e-06
1.11692e-07
-5.54494e-07
3.62032e-06
7.98377e-08
3.94176e-06
-4.00632e-06
-5.04422e-07
1.30296e-07
3.82539e-06
3.15003e-06
-2.93139e-06
2.48232e-08
-2.43383e-07
4.64975e-07
-4.42464e-06
4.27971e-06
-3.20016e-07
-6.2808e-08
-3.70951e-06
3.66718e-06
1.05156e-07
-3.47205e-06
3.69557e-06
-1.80558e-08
-2.05388e-07
-1.25389e-07
3.54697e-06
-2.71463e-07
3.98796e-06
-3.64836e-06
3.18737e-08
4.30832e-08
3.95702e-06
3.70205e-06
-3.94879e-07
-3.65223e-07
-1.86537e-07
-9.6885e-08
3.00115e-06
1.19707e-08
2.9704e-06
-2.60805e-07
-3.63229e-06
-6.14682e-07
4.52035e-06
-2.73424e-07
3.72503e-07
3.71789e-06
-3.88408e-07
2.95849e-06
4.19367e-07
-3.33787e-07
3.38984e-06
4.12127e-06
-3.43711e-06
-4.39283e-06
4.83438e-06
7.47105e-07
4.65584e-06
-4.51597e-06
-4.04894e-07
3.35659e-06
-3.04855e-06
3.61257e-06
1.20312e-07
1.15904e-07
3.30503e-06
-3.58958e-06
4.16809e-06
3.08766e-06
-1.21864e-07
3.54202e-08
1.23836e-08
2.6624e-08
4.42547e-07
-3.46832e-07
-3.55898e-06
-2.67884e-07
1.17379e-07
-1.17246e-07
3.15736e-06
4.75766e-08
3.28498e-06
-7.91687e-08
-3.2242e-07
3.24552e-06
-3.91457e-06
3.77254e-06
7.88474e-08
4.40871e-06
6.95855e-07
4.2199e-06
3.77704e-06
-4.51637e-07
-4.59959e-07
4.4123e-06
4.03117e-06
3.3969e-08
-4.67687e-06
3.48982e-06
1.15313e-06
-4.28753e-06
-3.34661e-07
3.39112e-06
1.23112e-06
3.01308e-06
-7.33748e-08
-3.93814e-06
9.98497e-07
1.06269e-06
-1.54202e-07
-3.68863e-06
2.78019e-06
1.14789e-06
-4.12537e-06
3.01146e-06
-4.24743e-06
1.1078e-06
1.04291e-06
-4.10558e-06
-1.91426e-07
-7.51603e-07
-3.79345e-06
3.28096e-06
1.26412e-06
-3.42271e-06
3.31072e-06
-1.11322e-06
1.22523e-06
2.99723e-06
-3.24923e-06
-7.63628e-07
1.01561e-06
1.18726e-06
-2.82212e-06
2.64674e-06
-1.01188e-06
4.15408e-07
-4.06946e-06
2.90245e-06
-4.08487e-06
1.07756e-06
4.18382e-07
-3.30058e-06
-6.69269e-07
-3.23839e-07
2.62993e-06
-3.13811e-06
8.32071e-07
-2.88551e-06
2.70843e-06
-6.11415e-07
7.88502e-07
2.35886e-06
-2.5619e-06
-4.34238e-07
6.37302e-07
8.305e-07
2.11485e-06
-2.47099e-06
-4.7432e-07
4.2062e-07
-3.15918e-06
2.41473e-06
-3.15455e-06
6.8967e-07
3.00515e-07
-2.62919e-06
-4.95173e-07
-3.52037e-07
1.0099e-06
-3.01135e-06
2.35353e-06
-2.63803e-06
1.08884e-06
2.27923e-06
-7.29994e-07
2.00079e-06
9.21999e-07
-2.44409e-06
-4.78652e-07
9.6596e-07
-2.33465e-06
1.94206e-06
-5.73399e-07
6.06333e-07
-3.03938e-06
2.08103e-06
-3.15448e-06
1.12279e-06
4.67692e-07
-2.5411e-06
-6.85993e-07
-4.14877e-06
7.69317e-07
3.04481e-06
2.78201e-06
7.31823e-07
-3.58719e-06
8.7359e-07
-3.56366e-06
2.53588e-06
5.71044e-07
5.00301e-07
-3.5204e-06
2.44907e-06
-3.72569e-06
-1.11243e-06
6.89364e-07
-1.1351e-06
-3.38664e-06
2.84527e-06
-3.64814e-06
-4.16427e-06
1.14015e-06
1.1503e-06
-3.47211e-06
-4.54689e-07
-3.63011e-06
8.35567e-07
3.51568e-06
-3.68293e-06
8.99098e-07
-5.89644e-07
-2.88526e-06
-2.73993e-06
-4.04313e-07
1.03473e-06
-3.59893e-06
-9.57664e-07
7.77726e-07
-3.40722e-06
7.62122e-07
-3.31591e-06
-2.91401e-06
4.82473e-07
3.03216e-06
4.8471e-07
-2.59485e-06
2.44032e-06
-2.97921e-07
-3.10003e-06
-4.45685e-07
2.2369e-06
4.97351e-07
-2.75272e-07
3.10877e-06
-5.09195e-07
-2.27279e-06
-7.16826e-07
-4.35775e-07
-4.85911e-07
-9.09003e-07
3.04847e-06
2.69713e-06
-9.86234e-07
-5.61902e-07
-1.47288e-07
-5.35515e-06
2.70664e-06
2.79588e-06
2.97547e-06
6.09025e-07
-5.20671e-06
1.62236e-06
-5.41172e-06
-1.14632e-07
2.69078e-06
2.8357e-06
2.36222e-06
2.2835e-07
-4.93536e-06
2.34501e-06
2.38387e-06
2.7905e-06
-5.32155e-06
3.22795e-06
2.13146e-06
2.57041e-06
2.58234e-06
3.86679e-07
7.96405e-07
2.94511e-06
-5.34713e-06
1.60564e-06
3.19139e-06
1.05636e-06
-5.58818e-06
1.34043e-06
-5.66416e-06
3.08702e-06
1.04825e-06
1.52888e-06
1.31082e-06
2.79063e-06
8.22907e-07
-4.92444e-06
2.2855e-06
4.3264e-06
-5.81566e-06
4.09786e-06
1.37903e-06
2.32946e-06
3.30775e-06
7.63148e-07
3.6874e-08
-5.39283e-06
2.53436e-06
2.8216e-06
2.96869e-06
-5.49435e-06
7.33078e-07
1.79257e-06
-5.35468e-06
7.03721e-08
2.43024e-06
2.85408e-06
2.23353e-06
-5.16083e-06
4.44991e-07
2.4823e-06
2.33329e-06
2.96239e-06
-5.25884e-06
3.2013e-06
2.10068e-06
2.40679e-06
2.78913e-06
2.53408e-07
2.87447e-07
2.01222e-06
-4.19955e-06
1.89991e-06
2.09985e-06
1.2805e-06
8.85842e-07
-4.26619e-06
-4.35999e-06
1.84274e-06
5.19593e-07
1.99761e-06
1.65783e-06
3.73352e-07
-3.67833e-06
1.64712e-06
2.17803e-06
2.41023e-06
-4.30094e-06
2.69302e-06
1.58482e-06
2.13301e-06
1.93509e-06
4.65997e-07
3.89195e-06
2.35466e-06
-5.6376e-06
-5.28981e-06
2.31647e-06
2.85882e-06
2.54092e-06
2.61306e-06
-4.92555e-06
-9.45252e-07
2.24526e-06
3.60258e-06
-4.90271e-06
3.04839e-06
-1.554e-06
2.39755e-06
-1.85477e-06
2.49026e-06
-4.98954e-06
3.17638e-06
3.73684e-06
1.5629e-06
1.44379e-06
3.59209e-06
-2.40426e-06
3.83024e-06
1.66103e-06
-3.03581e-06
3.25582e-06
2.09649e-06
7.12718e-07
5.42171e-06
5.46423e-06
6.05073e-07
1.78081e-06
3.66498e-06
-2.27758e-06
2.50969e-06
2.6267e-06
2.48752e-06
2.13778e-06
2.56518e-06
2.31788e-06
-2.8129e-06
2.40169e-06
2.2539e-06
-4.99933e-06
4.53467e-07
2.26823e-06
6.64533e-07
-4.81453e-06
2.45507e-06
3.72667e-07
-3.27674e-06
5.17573e-07
5.13296e-06
7.76973e-07
-2.36137e-06
6.97241e-07
-1.91635e-06
-2.96985e-06
-2.73801e-06
-1.66621e-06
7.2872e-07
-5.69496e-06
2.74032e-06
3.02504e-06
2.70366e-06
-4.91846e-06
2.65983e-06
3.36984e-06
-5.5058e-06
2.86904e-06
-1.7657e-07
-5.06509e-06
2.45202e-06
2.78968e-06
-5.73796e-06
-2.9265e-06
2.9695e-06
-2.7809e-06
-5.96409e-06
2.86102e-06
-5.37514e-06
-4.16226e-06
2.36094e-06
2.32095e-06
2.15956e-06
2.06609e-06
2.5243e-06
2.1951e-06
-4.27547e-07
1.98962e-06
2.19472e-06
-4.48915e-06
-1.85254e-06
2.17936e-06
-1.86361e-06
-4.48607e-06
2.20595e-06
-5.36767e-06
3.50219e-06
2.91374e-06
2.16413e-06
3.14394e-06
3.99765e-06
2.47905e-06
-5.81691e-07
3.18744e-06
2.13564e-06
-5.86603e-06
-2.68531e-06
3.18366e-06
-2.93875e-06
-6.1784e-06
2.91144e-06
-4.3803e-06
3.1702e-08
1.93212e-06
2.41651e-06
1.8104e-06
-2.71928e-07
2.12862e-06
2.62809e-06
-1.69588e-07
1.82119e-06
1.45166e-07
1.46242e-06
2.08795e-06
-4.22677e-06
-2.49413e-06
2.34056e-06
-2.45676e-06
4.03672e-08
-4.12835e-06
1.77939e-06
-2.4521e-06
-5.05455e-06
2.58818e-06
3.08265e-06
-5.97419e-06
-2.61425e-06
-5.06988e-06
-2.64813e-06
2.65295e-06
4.36858e-06
-4.51734e-06
-2.17453e-06
2.32325e-06
2.52924e-06
3.49294e-07
-5.33064e-06
2.3676e-07
2.28386e-06
2.43401e-06
-2.54927e-06
-2.17604e-06
-4.71048e-07
-2.05673e-06
5.26023e-06
-2.28816e-06
-2.55647e-06
-2.7205e-06
-4.53918e-06
-2.96753e-06
-2.80428e-06
-4.79528e-06
-2.33936e-06
4.11658e-07
-5.79984e-06
2.77392e-06
-4.97284e-06
2.35642e-06
1.8432e-06
-4.28969e-06
2.60127e-06
-4.99682e-06
2.22595e-06
2.9251e-06
-4.84618e-06
2.33271e-06
-4.59702e-06
2.71345e-06
-4.95838e-06
-5.01813e-06
2.59932e-06
-2.57389e-06
5.07566e-06
3.55108e-07
-2.1896e-06
-2.00396e-06
5.46677e-07
-4.73351e-06
-8.84609e-07
9.41276e-07
-4.83427e-07
-4.01887e-06
8.13653e-07
9.41478e-07
-4.13962e-06
-7.3998e-07
4.30932e-06
-4.10568e-06
-8.47395e-07
6.43782e-07
-2.61483e-07
-5.24549e-06
7.73479e-07
-4.85048e-06
-1.51247e-07
-7.84906e-07
-4.06025e-06
-3.47233e-06
-2.71328e-07
7.32264e-07
1.0629e-08
6.82088e-07
7.24737e-07
-8.52756e-08
2.73155e-06
-3.51313e-07
6.24166e-07
-6.49008e-07
-3.52913e-06
7.05801e-07
-3.17947e-06
-5.0322e-07
-2.94346e-07
-3.52204e-06
9.82193e-07
-5.98272e-07
-2.86726e-07
7.44063e-07
9.69839e-07
-3.84882e-07
2.85138e-06
7.5149e-07
-5.1637e-07
-5.51412e-07
-3.81898e-06
8.48355e-07
-3.46732e-06
-5.31977e-07
-4.35609e-07
-3.62029e-06
3.9532e-06
-7.22579e-07
3.89688e-07
-4.23086e-07
3.11862e-06
1.57743e-07
5.24546e-07
3.22785e-06
-6.25563e-07
3.5335e-06
-5.58785e-07
1.747e-07
5.96877e-08
-3.95758e-06
2.77583e-07
-3.68278e-06
3.31937e-06
1.60181e-07
-5.84262e-07
-4.24755e-06
-3.80554e-07
6.09192e-07
8.1398e-07
-3.26797e-07
-4.62678e-06
-1.30258e-09
-4.60713e-06
5.02769e-07
3.46144e-06
-3.8234e-08
-3.68157e-06
2.58349e-07
-5.15064e-07
-3.46869e-06
-2.63824e-07
-3.76133e-06
-4.8607e-07
4.78818e-07
-4.24869e-06
-3.96779e-06
3.05219e-06
-3.44172e-06
5.55889e-07
-3.23599e-06
4.00423e-07
-4.13444e-06
-3.46281e-06
-7.68805e-07
-7.04957e-07
-3.4684e-06
-3.61746e-06
-3.65953e-06
-3.51327e-07
-6.15893e-07
4.35163e-08
-6.97425e-07
-4.25435e-07
-1.37499e-07
4.00818e-06
-2.05183e-07
-5.75127e-07
6.91711e-07
-3.60236e-06
-7.48862e-07
-3.51346e-06
6.19524e-07
-2.13698e-07
-3.50356e-06
3.59525e-06
-5.95134e-07
4.78308e-07
-3.02531e-06
3.70116e-07
3.56242e-07
-2.76903e-06
6.32258e-06
-6.07134e-06
4.1081e-07
-6.62068e-07
-1.22812e-06
6.65008e-06
-6.25597e-06
8.33885e-07
-5.82767e-06
5.4508e-06
1.52512e-06
-1.14824e-06
9.21746e-07
4.67945e-06
-3.91809e-06
-1.68302e-06
6.83633e-06
5.08505e-06
-5.59883e-06
4.75388e-06
8.54302e-07
6.80792e-06
-8.01156e-07
5.73414e-06
6.11717e-06
-1.70772e-06
-5.90343e-06
1.49397e-06
-1.91675e-06
-5.50962e-06
1.83817e-06
-5.45657e-06
-1.85235e-06
1.96183e-06
1.51272e-06
-1.9236e-06
-4.51361e-06
7.47297e-06
4.24291e-06
-5.59872e-06
3.75936e-06
1.79686e-06
7.51287e-06
-1.75726e-06
5.31292e-06
-5.51677e-06
2.11186e-06
-1.90795e-06
-1.93791e-06
-5.32827e-06
2.0595e-06
-5.95197e-06
2.90189e-06
-2.305e-06
2.66039e-06
-4.98018e-06
-2.61555e-06
7.32899e-06
3.30581e-06
-5.32186e-06
3.13663e-06
2.25447e-06
8.13688e-06
-2.17068e-06
4.42563e-06
1.46135e-06
-3.58165e-06
-2.3052e-06
-2.07442e-06
1.48329e-06
-3.67504e-06
-4.18215e-06
2.28419e-06
-2.30149e-06
1.98336e-06
-3.60675e-06
-2.05489e-06
5.87611e-06
2.19997e-06
-3.65036e-06
2.17548e-06
1.62621e-06
6.30761e-06
-2.12424e-06
4.83347e-06
7.49732e-06
-5.6807e-06
-5.58752e-06
6.94843e-06
4.08995e-06
5.85343e-06
2.78806e-06
-3.96199e-06
-4.92705e-06
6.2556e-06
2.94823e-06
-4.27681e-06
-1.44553e-06
-1.13755e-06
7.41659e-06
-1.2989e-06
-1.7242e-06
-4.34037e-06
2.83033e-06
4.31364e-06
1.47593e-06
1.44505e-06
2.88695e-06
-7.30184e-06
3.45444e-06
1.99507e-06
1.46109e-06
3.68962e-06
1.79775e-06
6.05315e-06
5.67709e-06
5.74095e-06
5.35635e-06
1.78183e-06
3.79545e-06
-1.58961e-06
7.17553e-06
-1.49599e-06
6.16645e-06
-1.91703e-06
-1.98874e-06
6.42024e-06
-2.65269e-06
7.30833e-06
-2.3714e-06
-4.30488e-06
5.19537e-06
-2.48015e-06
4.69189e-06
-4.32936e-06
6.87202e-06
5.34835e-06
-2.5974e-06
4.40448e-06
-7.51145e-06
-1.89066e-06
1.91714e-06
2.38394e-06
-1.79888e-06
1.20878e-06
7.76215e-07
-1.19475e-06
-7.90179e-07
-1.12587e-06
1.68852e-06
4.00834e-07
-9.63416e-07
7.97067e-07
1.14327e-06
-1.19013e-06
-7.50182e-07
-9.08722e-07
1.66367e-06
4.12178e-07
-1.16707e-06
5.09015e-07
2.18215e-07
4.81675e-07
2.38531e-07
-8.55346e-07
4.54688e-07
-1.14519e-06
1.4903e-06
2.06113e-06
-1.10168e-06
2.67607e-07
-1.227e-06
-1.17164e-06
3.89865e-07
2.28791e-06
-1.50611e-06
4.61224e-07
-1.0652e-06
1.73934e-06
-1.13534e-06
-1.36822e-06
-1.16265e-06
1.10506e-07
2.42039e-06
7.53176e-07
1.12109e-06
1.86847e-07
9.67983e-07
-1.38642e-06
9.00957e-07
-1.14806e-06
2.33016e-06
1.11045e-06
8.19996e-07
-1.18322e-06
-7.47317e-07
-1.04646e-06
6.08102e-07
1.33946e-06
-9.01115e-07
8.38657e-07
1.06712e-06
-1.16052e-06
-7.45307e-07
-8.96705e-07
6.00994e-07
1.46473e-06
-1.16914e-06
3.34884e-07
8.57148e-08
6.89653e-07
1.54862e-07
-8.66518e-07
3.43183e-07
-1.15424e-06
1.33667e-06
2.09684e-06
-1.02957e-06
1.91902e-07
-1.25914e-06
-1.27002e-06
-1.24013e-06
8.88777e-08
2.42127e-06
3.3179e-07
-1.01326e-06
1.92414e-06
-1.24273e-06
-1.13592e-06
1.61503e-07
2.3644e-06
-1.39001e-06
1.09431e-06
9.4713e-07
5.53897e-08
9.35402e-07
-1.11115e-06
1.09038e-06
-1.27921e-06
2.35752e-06
7.475e-07
7.0529e-07
2.35837e-07
5.51621e-07
4.40495e-07
1.51081e-07
7.97567e-07
6.32923e-07
2.33209e-07
-2.11079e-06
9.92934e-07
1.09704e-06
2.0875e-08
-1.08984e-06
1.09872e-06
7.38629e-07
9.52078e-07
-1.1628e-06
1.50748e-07
5.86826e-07
7.08579e-07
-1.10496e-06
-1.20122e-06
1.03153e-06
-5.53235e-07
5.52533e-07
-1.06448e-06
1.11924e-06
1.87647e-07
-8.66451e-07
1.9402e-06
-4.92943e-07
-4.09079e-07
1.54166e-06
-9.15352e-07
5.79339e-07
8.8926e-07
4.03518e-07
-1.14177e-06
7.73205e-07
-1.16988e-06
-1.2109e-06
1.06781e-06
-4.73838e-07
6.62374e-07
-1.20196e-06
5.47865e-07
1.53957e-06
-1.19825e-06
1.90788e-06
4.14171e-07
6.51495e-07
1.41113e-06
-5.28957e-07
1.7922e-06
-2.61979e-07
2.36132e-06
-6.30729e-07
1.79135e-06
9.73757e-07
1.127e-06
1.0963e-06
1.07561e-06
1.90993e-06
-2.27999e-08
1.04319e-06
-3.31857e-06
-2.95992e-07
1.14644e-06
1.19754e-06
-2.05719e-07
2.06826e-06
-1.31574e-07
8.43517e-07
2.10696e-06
-3.00092e-06
8.71171e-07
-3.54032e-06
2.0788e-06
-2.63989e-07
-5.37449e-07
-3.23402e-06
1.27367e-06
-3.07304e-06
-7.71439e-07
1.38231e-06
1.47502e-06
-3.15757e-06
-8.05386e-07
2.05771e-06
-2.50349e-06
-6.20575e-07
1.06633e-06
1.66308e-06
-3.30016e-06
1.09964e-06
-3.79075e-06
1.58679e-06
-2.82924e-06
-7.28941e-07
-4.15202e-07
1.32129e-06
-3.22078e-06
1.49488e-06
-6.87461e-07
1.52158e-06
-5.96624e-07
2.08976e-06
1.23051e-06
-6.73523e-07
1.70374e-06
-3.32504e-06
1.20611e-06
-3.82383e-06
1.66717e-06
-6.35086e-07
-1.91572e-07
1.81084e-06
7.34255e-07
-2.22626e-06
1.81757e-06
-4.35188e-07
8.4384e-07
8.98335e-07
1.80233e-06
-4.21392e-07
1.56181e-06
-3.08736e-07
6.88977e-07
1.41244e-06
-2.29313e-06
6.89104e-07
-2.61726e-06
1.80346e-06
1.34971e-06
-3.69218e-07
-3.2296e-06
1.9069e-06
1.02671e-06
1.11735e-06
1.93395e-06
-3.25701e-06
1.73879e-06
-2.61832e-06
7.47953e-07
3.58639e-07
1.5292e-06
-2.74008e-06
8.522e-07
-3.00628e-06
-2.09066e-06
1.86732e-06
-2.15292e-06
-2.68381e-06
9.51777e-07
-3.09793e-06
-3.71705e-06
2.13413e-06
-3.10842e-06
-1.67624e-06
-3.82582e-06
3.27417e-06
-3.67654e-06
-5.05015e-07
-1.34472e-06
-1.20012e-06
-4.93715e-07
-3.37008e-06
-2.11484e-06
1.90264e-06
1.7284e-06
-2.38846e-06
1.46595e-06
2.75548e-06
1.49591e-06
1.06564e-06
-3.35206e-07
-3.03892e-07
8.88891e-07
1.53138e-06
-4.52608e-07
3.2691e-06
-5.42663e-07
-1.13886e-06
-5.03626e-07
-1.61841e-06
-7.12527e-07
-2.14187e-06
2.89537e-06
2.65861e-06
-2.09311e-06
-5.7336e-07
-4.73038e-06
-1.48948e-07
3.82621e-06
1.05316e-06
3.40478e-06
-4.32358e-06
2.13765e-08
8.97475e-07
5.7402e-07
-5.52127e-06
4.11296e-06
8.34306e-07
8.2307e-07
-4.35428e-06
2.95594e-07
3.23565e-06
-3.58329e-06
-1.21805e-06
7.10371e-08
-1.15271e-06
9.74213e-07
-4.15217e-06
3.75721e-06
-4.73085e-06
-3.76481e-06
3.00216e-06
4.29515e-09
7.58435e-07
2.70767e-06
-3.34207e-06
-1.16856e-08
6.46151e-07
5.32629e-07
3.10475e-06
-4.20912e-06
5.71789e-07
5.85963e-07
2.53103e-06
-3.3851e-06
2.68112e-07
-2.86337e-06
-1.05433e-06
1.52924e-07
-8.65246e-07
7.0957e-07
-3.41667e-06
2.94833e-06
-3.74927e-06
-6.56159e-06
1.32882e-06
4.79761e-06
4.35151e-07
4.26056e-06
1.28865e-06
-5.76524e-06
2.16115e-07
2.09939e-06
-7.84768e-06
5.94388e-06
-1.95587e-07
8.25543e-08
1.50753e-06
-5.68925e-06
4.09917e-06
-5.86449e-06
-2.00834e-06
1.31123e-06
-1.91849e-06
3.14561e-07
-7.57744e-06
5.65166e-06
-7.39655e-06
-3.81216e-06
6.57625e-07
4.13931e-07
2.74065e-06
2.35375e-06
5.88588e-07
-3.24718e-06
3.04828e-07
6.81076e-07
3.97652e-07
-3.89558e-06
2.8168e-06
6.83223e-07
-3.23554e-06
2.492e-07
2.30303e-06
-2.97447e-06
-1.19693e-06
3.59211e-07
-1.23582e-06
6.15083e-07
-3.16111e-06
2.64739e-06
-3.71591e-06
-1.18277e-06
-3.30562e-06
1.64849e-07
6.25769e-07
-4.50825e-06
-1.63878e-06
-3.38693e-06
-1.32811e-06
3.6076e-07
3.9057e-06
-3.05396e-06
-1.23459e-06
3.8286e-07
3.36145e-06
-7.15867e-07
-3.82835e-06
-7.43637e-07
2.87179e-06
3.18036e-07
-1.25879e-06
-1.11142e-06
8.07966e-07
6.00299e-07
-1.12324e-06
4.10478e-06
-1.59667e-06
5.96718e-07
-3.64375e-06
-1.60545e-06
7.40956e-07
-4.25085e-06
-6.88881e-07
-7.02199e-07
-4.99682e-06
6.64235e-07
-1.59423e-06
-5.71082e-07
-5.45594e-06
4.38823e-06
-3.85983e-06
3.18934e-06
2.75737e-06
-3.40339e-06
1.67553e-06
-4.88352e-06
3.60565e-06
8.70538e-07
-4.90048e-06
3.45884e-06
-4.24808e-06
8.75625e-07
-4.1006e-06
-5.73256e-06
1.60553e-06
-4.98155e-06
-7.76851e-07
-3.74977e-06
5.02308e-06
-5.33107e-06
-5.17086e-07
-3.90424e-06
-3.01215e-06
-4.75388e-07
-4.2644e-06
2.53435e-06
-1.59798e-06
-9.64179e-07
2.76235e-08
-2.32934e-06
3.18286e-06
-1.89913e-06
1.04563e-06
1.0611e-06
3.10196e-06
-2.23342e-06
-1.92962e-06
-1.14973e-06
2.68381e-06
-2.23414e-06
7.00102e-07
1.41616e-06
7.13422e-07
4.0474e-07
5.19566e-07
-1.43274e-06
1.45312e-06
-1.8895e-06
3.03381e-06
4.43798e-06
-3.23564e-06
-2.85136e-06
1.64895e-06
-4.4198e-06
-3.29907e-06
2.20913e-06
2.60305e-06
-4.30797e-06
-4.19855e-06
-2.34738e-06
-3.71069e-06
1.54436e-06
1.805e-06
1.05385e-06
1.57903e-06
6.88611e-07
-3.30349e-06
2.30706e-06
-3.60061e-06
4.22395e-06
1.82695e-06
-2.51995e-06
-3.53081e-06
-3.89401e-06
2.77709e-06
-5.13902e-06
2.52413e-06
-3.20442e-06
-5.391e-06
-2.53343e-06
1.83143e-06
-3.21598e-06
9.25353e-07
1.04016e-06
2.25865e-06
1.45376e-06
-4.42238e-06
1.62094e-06
-3.11418e-06
3.1283e-06
-1.22012e-06
-3.0644e-06
1.15636e-06
-3.54189e-06
-1.65912e-06
1.52602e-06
1.64465e-06
-1.5909e-06
-3.63532e-06
-1.23862e-06
-3.54878e-06
1.18072e-06
1.93466e-06
-1.67206e-07
1.36106e-06
-3.55987e-08
-1.57156e-06
2.04131e-06
-3.44709e-06
6.55641e-07
1.26122e-06
1.26612e-06
1.25965e-06
1.22851e-06
6.13943e-07
1.4543e-06
1.91035e-07
1.03859e-06
-3.31355e-06
1.69238e-06
4.16618e-08
1.5793e-06
-2.62585e-06
1.72539e-06
1.55612e-06
1.66762e-06
-2.91707e-06
1.32891e-06
2.04882e-07
5.19203e-07
-2.49364e-06
-2.57506e-06
5.56734e-07
-1.36466e-06
9.83415e-07
-3.92672e-06
3.10519e-06
8.09242e-07
-2.68587e-06
4.10123e-06
-2.02592e-06
-2.07442e-06
4.41734e-06
-3.33807e-06
9.78295e-07
1.72328e-06
1.42317e-06
-2.53249e-06
1.53715e-06
-2.56624e-06
-3.44126e-06
1.82378e-06
1.28363e-08
1.62293e-06
-3.22659e-06
1.50209e-06
3.12384e-06
-2.90256e-06
3.24412e-06
1.7687e-06
1.36802e-06
4.0594e-06
-5.07605e-07
-1.89629e-06
-1.92016e-06
2.78802e-06
3.53007e-06
3.64844e-06
2.58821e-06
2.46713e-06
-8.91872e-07
-7.99127e-07
-2.6195e-07
2.7478e-06
-1.33386e-06
-1.15212e-06
-1.11933e-06
2.78084e-06
-1.26066e-06
-1.12745e-06
2.65268e-06
-1.11311e-06
1.40476e-06
2.07713e-06
-1.01482e-06
2.38497e-06
-1.24214e-06
1.43137e-06
2.697e-06
3.19023e-06
2.57479e-07
-1.90189e-06
-1.5459e-06
7.75535e-07
4.09806e-06
-3.08523e-06
-1.78849e-06
-1.73786e-06
3.45424e-07
3.90109e-06
-2.50872e-06
-2.30935e-06
6.20706e-07
3.57116e-06
-1.88251e-06
1.09374e-06
3.93962e-06
-1.84314e-06
4.45529e-06
-2.58609e-06
9.74567e-07
6.55653e-07
3.69194e-06
3.25142e-06
-1.34408e-06
-1.63977e-06
6.98664e-08
-1.56988e-06
3.7327e-06
-2.23272e-06
-1.43134e-06
3.80745e-06
-1.98622e-06
-1.90271e-06
-1.55203e-06
3.56524e-06
1.43921e-06
3.30217e-06
-1.48999e-06
3.46736e-06
-1.95831e-06
1.58629e-06
3.62228e-06
2.97364e-06
-1.35658e-06
-1.42518e-06
2.30597e-07
-1.78395e-06
3.38882e-06
-1.83545e-06
-1.61731e-06
-1.65166e-06
3.35784e-06
-1.52168e-06
3.34514e-06
-1.66198e-06
1.48911e-06
3.15111e-06
-1.66656e-06
3.42549e-06
-1.70577e-06
1.68482e-06
3.49297e-06
2.84041e-06
1.308e-06
-1.40069e-06
-1.23388e-06
1.379e-06
2.6357e-06
1.40175e-06
2.5889e-06
-1.33797e-06
-2.98859e-06
1.25228e-06
3.43856e-06
-1.70226e-06
-6.88924e-09
1.50516e-06
1.34212e-06
1.45622e-06
2.92964e-08
-1.51274e-06
2.88729e-06
3.31286e-06
-1.74738e-06
-2.04748e-06
3.92048e-06
-1.30138e-06
3.75151e-06
-2.10478e-06
-6.16051e-08
3.06528e-06
-1.62471e-06
3.1135e-06
1.54147e-06
1.72166e-06
3.23303e-06
-1.75318e-06
3.65328e-06
1.47604e-06
1.3955e-06
1.46555e-06
2.25084e-07
1.42955e-06
-3.1278e-06
1.49702e-06
-1.35748e-06
2.98427e-06
2.99537e-06
-1.51469e-06
1.37117e-06
3.11667e-06
-3.57646e-06
3.52142e-06
1.75426e-06
3.59574e-06
-1.29561e-06
3.4772e-06
1.89026e-06
-2.63618e-07
-3.15065e-07
2.09402e-06
3.53316e-06
-6.58297e-06
-2.08312e-06
8.18406e-07
4.89863e-07
-4.95858e-06
-1.29652e-06
7.68031e-06
-6.0404e-06
-2.33115e-06
6.9125e-07
-1.33677e-06
-4.55095e-06
1.98418e-07
-8.08931e-06
-5.89022e-06
-5.497e-06
-2.10243e-06
-7.8606e-06
6.33597e-07
-5.67731e-06
-4.10678e-06
1.3597e-07
-2.38278e-07
4.43225e-07
2.21282e-08
3.78507e-06
6.87986e-08
-1.2118e-07
-1.22248e-08
1.92352e-07
-4.34427e-06
-3.51183e-06
-3.73259e-06
-1.68443e-07
-3.67476e-06
1.50673e-07
-5.3732e-06
6.85568e-06
-1.96897e-06
4.86504e-07
1.18252e-07
4.43779e-06
-6.55001e-07
4.98244e-06
-1.21122e-06
3.26753e-07
-3.03983e-07
3.98562e-06
-1.10636e-07
-6.60041e-06
-3.5592e-06
4.78631e-06
-4.75556e-06
-1.72661e-06
-3.91882e-06
5.55227e-08
-3.71107e-06
-2.41726e-07
5.71582e-08
1.21727e-07
-1.11092e-08
3.62759e-06
-1.36107e-07
-1.02757e-07
1.48088e-07
-3.8554e-08
-3.65568e-06
-3.77137e-06
-3.54483e-06
1.08228e-08
-3.57574e-06
-4.76148e-08
-4.43465e-06
-5.855e-06
6.50283e-06
-7.78797e-06
-4.75529e-06
-5.17988e-06
-4.35266e-06
3.89077e-06
-3.95561e-06
-3.68494e-06
1.24171e-07
4.215e-07
-4.98034e-06
9.49671e-07
4.7854e-08
-4.18239e-06
-4.61038e-06
-1.10863e-06
-1.7296e-07
-3.59036e-06
5.17197e-06
-4.22076e-06
-8.82413e-07
-3.6125e-07
-5.16822e-06
-2.2585e-06
-4.06335e-06
-5.52741e-06
-4.08565e-06
-4.65708e-06
-1.23156e-06
-3.5708e-06
9.83852e-07
-5.95589e-06
2.16739e-07
-4.62485e-06
3.04371e-08
-8.85076e-09
-3.68724e-06
3.82699e-06
-3.9412e-06
-2.1988e-08
4.98477e-06
-4.06454e-06
6.35397e-08
-3.82251e-06
3.82053e-06
-4.05817e-06
-4.26844e-06
3.64011e-06
-3.75623e-06
3.69419e-06
4.25764e-07
9.20445e-08
7.66227e-09
2.15401e-07
2.27935e-06
-8.47541e-07
-3.64693e-07
-7.20424e-07
2.46147e-06
-4.01596e-07
-1.2764e-06
2.40548e-06
-6.88818e-07
-4.40256e-07
-2.84807e-07
2.51444e-06
-7.64924e-07
1.98181e-06
1.63417e-06
1.6521e-06
-3.90727e-07
1.99475e-06
-6.45414e-07
2.37044e-06
2.80547e-06
-5.92891e-07
-4.73236e-07
-4.41222e-07
3.20175e-06
-4.72575e-07
-2.22633e-06
-5.46366e-07
3.27742e-06
-5.04706e-07
-2.31277e-07
-3.50771e-07
3.00244e-06
2.55129e-06
2.58439e-06
2.63532e-06
-5.25229e-07
2.77496e-06
-4.2182e-07
3.18396e-06
2.66897e-06
-1.46914e-06
-6.71939e-07
-5.27862e-07
-6.52969e-07
-1.89894e-06
3.12115e-06
-5.69246e-07
-1.63984e-06
3.05212e-06
-7.73123e-07
-6.39118e-07
-4.03017e-07
-1.99632e-06
3.06264e-06
-6.63302e-07
2.30576e-06
2.08582e-06
-1.72261e-06
2.24265e-06
-5.89857e-07
2.37938e-06
-6.96555e-07
2.98219e-06
2.8104e-06
-2.24024e-07
-6.62255e-07
-4.60991e-07
-9.48528e-08
2.97709e-06
-2.37225e-06
-1.99113e-07
3.19486e-06
-6.23518e-07
-6.66082e-10
2.96936e-06
-6.04325e-07
2.83028e-06
2.33761e-06
2.54539e-06
-1.7611e-07
2.88237e-06
-5.45433e-07
3.0555e-06
2.05768e-06
2.19514e-06
-1.56168e-06
2.07688e-06
1.89029e-06
2.31952e-06
1.98709e-06
-2.74352e-06
2.63058e-06
2.47424e-06
-5.50121e-07
2.92733e-07
2.31507e-06
2.58637e-07
-5.40867e-07
2.03729e-06
2.04621e-06
-4.43961e-07
-3.20012e-07
2.59982e-06
-2.41275e-06
2.39989e-06
-5.33499e-07
6.20315e-07
1.90881e-06
-4.52241e-07
2.67909e-06
1.68221e-06
1.93726e-06
2.79673e-06
-4.94204e-07
2.32123e-06
3.93861e-07
2.15486e-06
-6.584e-07
2.36964e-06
-6.06576e-07
-4.52544e-07
2.83191e-06
-2.22959e-06
2.62892e-06
-5.9845e-07
-1.71311e-06
2.7403e-06
-6.3331e-07
2.69381e-06
-2.06516e-06
2.57585e-06
2.59453e-06
-2.37545e-06
3.00804e-06
2.36678e-06
3.06495e-06
-2.59524e-06
3.09618e-06
3.26673e-07
5.45242e-07
5.27072e-07
2.71235e-07
3.16509e-06
-4.67687e-06
3.64092e-06
8.87031e-07
3.84453e-07
-4.11669e-06
3.03557e-06
6.96724e-07
3.27146e-06
-4.13168e-06
8.81621e-07
9.97895e-07
-3.94728e-06
3.245e-06
-3.75207e-06
-4.29207e-06
3.36731e-06
-4.13079e-06
7.63187e-07
-3.22312e-06
-4.08245e-06
-3.51113e-06
5.36636e-07
2.49452e-06
4.80034e-07
7.03929e-07
2.0307e-06
3.17502e-07
2.18928e-06
4.72376e-07
4.59468e-07
6.42618e-07