/*--------------------------------*- C++ -*----------------------------------*\
| =========                 |                                                 |
| \\      /  F ield         | OpenFOAM: The Open Source CFD Toolbox           |
|  \\    /   O peration     | Version:  2412                                  |
|   \\  /    A nd           | Website:  www.openfoam.com                      |
|    \\/     M anipulation  |                                                 |
\*---------------------------------------------------------------------------*/
FoamFile
{
    version     2.0;
    format      ascii;
    arch        "LSB;label=32;scalar=64";
    class       volScalarField;
    location    "100";
    object      k;
}
// * * * * * * * * * * * * * * * * * * * * * * * * * * * * * * * * * * * * * //

dimensions      [0 2 -2 0 0 0 0];

internalField   nonuniform List<scalar> 
65206
(
5.70471
0.690019
0.977772
6.42809
3.62924
0.572868
4.80519
3.89904
6.88517
3.47848
0.995304
1.90229
2.46792
2.21182
1.67535
3.0976
2.79398
2.55857
2.23719
2.569
3.88667
2.86182
2.92611
9.31083
4.8112
3.55297
5.36921
5.17236
6.93039
2.8185
3.83657
3.88916
2.05629
1.69596
0.756725
7.56328
3.06514
2.80353
1.72451
2.10875
10.7677
8.8239
2.09613
3.90842
7.24292
2.25079
1.83106
9.93754
9.3021
4.75951
6.40255
3.99675
9.34676
8.51248
3.60303
8.47884
4.55163
4.78161
5.70685
6.53838
5.39973
6.40196
2.71422
8.74157
6.91107
10.5358
8.04358
10.5385
6.34989
4.9603
7.36489
10.9452
6.79757
5.79555
5.79183
5.90522
5.51928
9.59482
6.23604
15.0686
8.54147
5.82142
12.8942
5.04633
8.2377
18.5824
1.00563
25.4789
6.65327
3.81017
4.90093
4.66058
8.15459
15.1259
5.6116
1.46873
8.23615
9.05558
5.81985
8.77396
5.39941
13.5826
5.36159
6.52658
4.71158
1.22987
0.290366
5.37536
5.36576
13.5559
3.30827
6.87803
10.0906
3.40739
2.17356
4.42236
4.46683
6.24776
4.53195
3.08106
10.9406
4.9797
2.74818
8.50126
4.40431
15.9149
5.409
8.69293
5.88801
5.88424
2.96836
2.63155
3.43331
6.95258
6.13741
1.46957
5.66866
11.5391
2.19653
1.51588
5.48101
5.44037
2.71206
4.45511
6.93726
2.93891
4.32869
3.59283
6.15088
1.50442
3.01624
5.39501
1.5785
2.32179
1.96169
1.4719
2.83242
0.565626
1.79265
4.97829
2.92101
1.05692
1.93097
1.69637
1.46652
5.06319
4.45004
4.65036
2.49159
0.434863
5.951
5.48531
2.44794
2.58865
6.27366
3.11552
1.45332
0.0295383
4.27579
2.54829
1.24249
0.378746
2.36228
5.85561
2.35938
2.14946
2.55282
8.24688
0.691432
6.5695
2.53128
2.15152
2.94227
4.34439
6.24409
2.93895
2.89752
0.623587
5.31103
2.16025
0.731357
0.580505
1.08328
0.565278
0.594175
1.69837
4.25696
1.07133
1.50028
1.00564
2.72343
0.0629915
5.18864
9.40168
3.44516
1.60396
0.0545892
0.82581
1.26107
3.7509
0.721513
0.953215
1.57073
6.94916
2.72108
4.58202
4.08334
2.0169
5.2459
2.23315
1.20612
0.0329919
10.7436
2.69816
4.12163
1.0725
4.90911
6.50168
1.04089
2.00172
5.45754
11.6647
1.05283
0.890212
0.815906
6.55038
2.01658
4.0122
10.2234
8.59366
3.49878
0.0521432
11.6196
6.51856
1.43274
6.27743
1.31336
1.7006
9.81873
6.65686
2.20216
6.00537
10.6417
9.18104
4.84044
4.60953
6.68869
6.78688
2.72805
9.18984
1.37537
6.33144
0.228674
1.93478
2.605
3.14977
2.61098
10.0567
3.61347
0.0264247
3.54793
1.48647
2.51536
10.2056
8.33525
4.47988
6.26095
7.44637
19.8707
2.64463
5.42318
2.11329
8.03708
6.8982
5.28847
5.77671
8.11556
10.7991
6.44262
2.6818
4.40243
5.61125
3.63769
0.0300865
6.58791
7.67169
10.2115
6.1319
0.488202
3.58931
0.788263
0.175493
2.89045
1.48389
4.91877
4.73312
0.426516
0.715093
4.09438
10.0873
4.24022
3.03358
3.29006
10.8873
3.51462
1.87239
9.26215
7.9227
5.82986
1.72402
7.68206
2.10599
2.40683
4.81965
3.98359
9.57563
10.6014
14.3383
6.39508
0.552919
1.51723
3.1092
10.3936
3.70427
9.7798
6.06801
18.056
5.5213
1.27174
7.81712
1.32786
7.91515
5.02613
6.74997
3.93861
1.16831
0.878903
4.00813
6.13558
6.39048
5.19263
2.61157
1.3194
9.10027
1.00911
0.489367
9.26895
4.27658
1.69393
4.20015
8.19407
9.23945
5.99142
7.64894
8.1956
5.87249
5.42436
3.41353
6.32295
1.63514
5.06987
2.7032
5.54515
7.00324
5.6195
2.69519
4.34582
2.81455
5.35336
4.52585
10.9188
8.18735
1.80124
6.5546
5.0055
2.57538
9.77619
4.61269
7.39738
4.76715
5.5819
2.67636
7.25709
10.048
2.40556
4.75708
3.37108
7.21826
5.685
2.76605
5.61148
2.66221
9.54064
3.52166
7.61521
3.13249
6.60568
6.54883
5.11522
8.55591
6.9982
6.89827
0.781398
2.58861
0.635492
1.18606
4.53568
1.80848
1.70794
1.93554
7.16345
7.00654
2.632
1.68342
5.12166
2.78613
1.33101
4.63829
27.5137
2.77519
9.77041
6.59188
8.72992
5.38489
6.89195
4.75167
9.47666
7.13414
7.98337
4.85837
0.599227
3.66912
6.02825
5.61876
11.0953
10.3439
8.25453
2.30186
9.77827
7.25757
5.97217
6.45382
1.06608
2.63565
9.88255
6.51651
1.04323
10.2746
1.99142
9.6452
2.95058
2.6768
3.27171
12.6522
7.90972
8.49387
8.47662
15.116
2.79807
1.88838
12.1928
8.42376
1.00747
7.66963
1.25924
7.68638
1.66649
5.07524
3.93605
3.44338
4.94533
0.08538
0.0928132
8.84458
6.27313
1.03757
2.2193
4.3335
1.98201
1.4766
30.853
3.89898
2.05762
7.71225
4.5965
0.0968199
3.06466
1.58514
4.40028
2.50585
2.65761
10.48
4.23778
9.80015
0.941518
0.216255
4.39798
1.88953
0.784044
6.11213
4.48743
8.63619
10.1243
4.42541
0.0426
6.08446
1.17222
9.05979
1.31879
7.57767
0.859874
4.42939
3.69632
6.4254
2.35844
5.15647
1.9521
5.30821
5.53987
6.97373
3.49426
1.26989
4.59225
2.02389
2.30575
4.51642
0.591981
5.37811
4.77799
5.15417
3.00792
9.47387
9.24495
1.3668
0.0305023
17.723
3.29305
3.32717
0.874885
1.34928
8.94176
2.14303
3.37871
13.7351
3.09587
1.19366
1.84311
2.65969
2.61801
1.42911
3.99785
7.12384
6.25246
5.84239
2.22055
0.411992
0.365023
1.37035
7.97332
2.20963
5.63378
5.86549
0.712079
5.24554
8.54319
0.823071
3.61915
5.17033
8.46327
1.33173
0.0565767
4.47657
1.1668
5.79101
8.82521
1.49827
4.24834
8.01115
10.5241
2.21073
6.00501
9.8702
0.0813349
4.67751
1.75522
1.44787
2.20061
1.17629
10.9
0.302577
3.64191
6.0471
12.9534
9.97705
5.33128
0.444947
0.778083
2.21612
8.42161
1.41433
5.19934
5.45186
1.32371
1.78729
7.50153
7.82538
3.98465
2.93258
5.15964
8.00868
4.95536
0.23024
31.636
1.14444
0.462597
11.3566
3.00985
0.587382
4.27936
5.45583
0.957978
2.13488
1.93782
0.0947262
0.686806
4.04794
5.04449
1.40067
2.02953
5.06451
2.69084
2.76882
2.11243
2.6548
7.67491
7.04181
2.16167
11.1973
3.34131
5.26818
6.42219
8.62442
8.72762
2.82943
1.57716
0.428043
0.0480087
5.5344
13.6378
5.64746
0.608667
5.89042
0.992274
0.804443
3.67917
4.67318
3.97184
3.89886
5.2468
4.15727
5.85676
2.62023
0.495629
6.40059
1.62058
11.2228
0.610279
1.39253
1.88268
9.2616
11.2223
3.21872
0.442531
32.9854
2.44213
1.8797
4.84136
4.36038
0.772528
4.7451
2.99389
3.78215
7.23785
6.86848
0.779114
5.55933
7.74494
4.10521
3.82416
1.00062
6.70112
5.74672
8.29372
2.80813
5.19832
1.23972
3.48309
2.62517
10.6491
0.0746581
10.4616
2.0148
0.154739
6.83233
4.09508
2.62365
3.86147
3.9638
6.45335
0.483687
6.67479
8.55708
5.88928
7.4429
8.33372
0.810071
2.89017
1.66102
3.26732
3.2866
1.99429
5.96532
1.36531
3.27382
2.62731
0.0332422
2.35333
7.42607
9.37366
3.38728
6.35116
6.0004
0.668245
2.08265
2.68445
3.37373
3.96722
2.9556
9.3833
7.27961
7.39659
2.34063
4.13368
10.6126
8.68893
4.58948
6.80923
2.59872
0.930274
4.16652
1.10795
6.90265
3.3712
5.77209
9.59219
10.0433
3.43461
2.2181
4.51427
8.5651
9.39836
10.2413
1.9267
2.99773
0.799412
6.45775
1.07378
2.50478
1.24726
4.84586
4.46872
2.62181
5.64393
1.77094
2.22137
1.301
1.96835
7.05213
4.51739
7.54549
0.219531
4.76079
9.01387
4.59376
9.88245
1.20367
7.1291
9.51132
0.135866
0.231718
1.98614
5.38673
2.27291
8.54022
10.6049
8.28595
6.06906
5.62157
6.359
6.67084
3.25367
0.325785
2.65931
6.54342
11.7804
7.24594
1.7953
5.89598
8.02335
3.97186
3.67463
4.74689
4.01837
0.324207
8.18248
10.0692
0.31032
8.98779
7.17933
6.0092
6.34066
7.62071
7.21614
10.4839
0.280923
9.50992
3.76669
4.29962
6.2105
7.81766
4.38694
9.21821
5.39696
9.58718
3.99758
7.54485
8.71702
4.16126
9.00596
3.64991
5.25696
4.26228
8.31413
4.9615
1.12921
5.34142
2.80107
0.846011
2.76256
5.04872
8.50571
1.65477
7.82181
7.04654
3.13401
9.16259
1.38648
6.52927
2.22649
6.29448
7.64775
5.92613
7.44481
2.21478
19.1539
3.14904
8.44017
2.02919
1.65842
4.88186
3.65887
2.04863
1.34982
11.1738
1.58054
2.45312
4.91643
9.13455
1.31592
2.23102
4.92208
1.38944
4.01492
6.59172
0.75649
1.83817
0.686128
4.18557
8.87404
11.0289
6.30731
7.46252
5.14199
8.73995
7.20729
6.04457
12.745
1.73555
0.480624
1.1849
5.82352
1.406
1.1839
7.03002
6.60068
11.6768
0.388631
0.635483
1.03874
3.55668
4.95357
8.73588
5.46259
7.84162
3.04981
1.03851
1.49804
0.944082
6.12322
1.85961
0.23086
7.03664
10.7211
1.58894
9.15638
1.02176
5.01928
0.369419
9.7689
5.47832
1.73643
2.28115
1.96105
2.21711
2.89005
0.634255
6.05933
1.5628
7.97897
4.84004
4.56079
10.896
0.82089
3.27396
1.68472
12.1607
2.6472
1.29929
6.21053
9.26422
2.6462
1.20526
5.88552
4.30175
4.49002
2.80195
4.90656
2.92649
10.7264
11.1769
6.49992
7.03932
7.82162
1.43123
0.192349
2.37361
7.63785
6.72902
7.15465
8.89832
5.8775
17.4223
6.85574
2.09614
1.51505
8.44606
4.29858
7.31657
6.71372
10.0912
7.40127
9.04152
4.0899
9.77318
8.24412
3.27298
3.71815
1.86857
8.41966
2.76226
7.21348
5.82139
4.07305
4.24367
2.32615
2.94144
8.55235
5.60467
5.99705
5.12933
6.16834
9.096
3.41822
8.90547
6.56215
6.05239
7.87957
4.6267
2.66581
1.86939
3.6131
1.81507
3.63077
7.00859
2.32942
7.34435
3.03931
4.78484
6.99852
3.60205
1.33714
1.04243
1.22484
5.34828
0.730983
6.74911
0.557039
5.21625
1.43286
1.73804
1.14231
5.27857
13.2487
1.5585
1.45681
2.15564
3.57067
8.12021
5.64983
1.27478
1.25939
2.04121
6.60874
3.20551
1.9342
1.77279
3.38043
20.8986
1.697
1.25723
8.62249
1.89734
1.01121
0.792225
3.62971
1.07724
4.78672
2.13316
0.86588
1.60039
3.9953
4.16314
1.12482
1.06598
5.4095
1.15683
1.60173
1.91761
6.1201
1.10975
5.924
0.972959
6.1618
0.872198
10.11
1.01903
0.982362
0.853054
1.47867
2.19354
1.53648
1.29001
3.6162
1.07291
1.10465
8.03835
1.29137
3.10738
0.576395
1.03361
0.741758
0.885356
1.83986
0.756796
1.14562
0.987029
1.18272
1.33863
0.778541
9.38098
1.10324
2.21278
1.32028
13.0598
4.79689
1.536
1.7294
6.02518
4.74645
2.50948
0.617021
0.554314
3.36088
0.480357
0.558881
0.595591
2.56385
0.505931
0.63001
0.711095
0.752113
1.98688
1.85827
4.29276
0.535822
0.864111
0.593634
2.46861
1.61204
0.531122
0.897787
0.981822
0.802245
1.88565
3.89705
0.575441
0.92363
1.85926
0.93904
0.64076
0.65669
0.551039
7.98773
0.468056
0.522558
1.08732
2.16091
2.06167
0.497133
0.711402
0.57004
0.732248
1.91043
1.03101
2.00187
0.703076
2.24876
0.778612
2.59154
0.947831
7.62095
2.80194
1.14417
1.07585
4.82535
1.03558
2.26377
0.888021
1.0476
2.52878
1.17132
1.37609
1.16502
1.56846
1.86314
1.02859
3.19941
1.02086
1.63899
5.36375
5.25506
1.26572
0.655848
2.38112
1.86444
8.98265
5.0218
3.49887
1.57486
2.66754
3.55548
4.24739
1.05046
1.8522
2.18742
9.44959
2.52589
2.2432
1.10888
0.590115
1.15004
2.12425
9.19412
2.83226
3.07702
1.72076
4.90757
1.49526
1.16582
6.65102
5.10975
0.92738
1.88089
0.869656
9.2528
3.06999
3.06425
5.06349
6.39634
1.11395
8.3856
1.95945
1.73642
1.44134
6.58855
1.12181
2.56037
8.65831
2.14798
1.07479
1.01297
8.09788
0.969626
6.19529
2.6914
1.6636
3.12461
6.02066
9.00674
8.37629
3.37588
4.7528
5.14845
2.4929
8.96346
1.13706
2.06172
3.38944
10.1334
0.892939
0.897136
5.50656
6.87489
9.19055
8.77399
1.73896
0.521839
2.32736
3.42874
1.34639
1.27174
1.67252
0.833655
0.263722
1.24329
4.85162
0.737303
2.62738
0.199035
7.99183
2.46133
4.01153
1.39296
4.29871
1.29695
1.70273
0.584219
3.03949
5.75324
2.05576
1.40013
1.23044
3.79865
9.05175
2.14562
1.22702
2.55366
1.14143
6.12623
1.17884
1.69871
1.56437
3.85428
0.892265
1.417
1.05342
0.587316
0.390753
10.5594
6.00973
9.66162
0.647147
1.30752
3.04084
0.867065
0.463514
5.59197
7.7063
3.96502
3.80056
2.97301
4.09906
3.52472
1.15269
1.17491
2.57847
1.30442
0.985537
1.01137
1.21072
1.10817
1.30591
4.08265
1.32474
2.73061
1.73738
1.51836
0.972004
1.29823
2.71866
0.59547
2.09382
0.93809
0.945319
2.0557
2.20902
2.06493
1.59216
1.12447
9.93933
1.18634
5.53614
1.63537
2.17423
7.04707
1.07451
0.996821
1.21028
1.38407
1.09532
1.26434
1.0905
1.11471
1.12667
10.3515
1.21095
1.12577
0.583031
0.846347
0.755404
1.29776
1.15697
0.288812
0.0142847
1.30469
1.27424
2.4216
6.68613
0.895739
1.2043
1.27314
0.0404286
2.43173
0.894216
0.98444
1.07404
5.56179
1.14732
1.16176
1.0603
1.0039
0.709025
1.22441
1.01375
1.06785
1.15863
3.3086
1.83524
1.19792
1.37048
1.20169
1.6167
3.86522
1.09539
0.869467
1.25378
1.26563
1.33278
0.895313
1.27367
0.225557
0.967779
1.13869
1.05489
0.950765
3.82044
1.11618
0.695254
1.03187
1.03597
1.27619
0.985087
1.12032
0.533299
0.825019
2.08053
1.97061
2.08039
1.03761
0.964186
1.0739
0.981252
1.09879
0.739876
2.71802
0.805714
0.840458
0.864315
0.157486
1.1488
0.602331
0.342961
1.31727
0.435747
4.03283
0.0659245
0.764246
3.35678
0.864959
0.440459
0.0751936
0.40009
0.433298
0.0181595
0.374075
0.0382452
0.301333
0.482545
0.963474
0.529131
0.148431
0.732802
1.93344
0.279089
0.099173
0.0406501
0.0962256
0.0926745
0.140048
0.458527
9.10534
0.897915
0.98283
0.604116
0.69155
0.994287
3.23787
0.842429
0.841013
0.849402
0.949913
1.11056
2.55246
0.550065
0.859274
0.202644
0.837816
0.604263
25.4413
0.793642
0.938199
1.85282
0.747873
0.11181
0.929254
1.13467
0.546079
0.567572
0.470905
0.663688
0.708061
1.34456
0.794545
1.45779
1.07482
0.98224
1.26915
1.02578
1.01033
1.07381
1.49398
0.137795
1.40944
1.29712
3.59708
5.20713
1.35223
0.88989
1.09562
2.24164
1.70992
3.60339
1.91698
0.511268
1.32607
2.49773
1.20009
1.21617
0.997872
1.03712
1.50411
0.865596
1.00463
2.98704
2.40234
0.79421
2.37736
1.9878
27.5035
0.719043
0.904789
2.10529
0.826551
0.775417
2.19744
0.69294
0.794229
0.790466
0.848061
0.64466
13.9687
0.679232
1.36397
0.910241
0.770927
1.2726
0.717655
2.76891
3.88346
2.19415
0.951618
0.656116
1.29303
0.781707
1.05271
0.870457
2.22789
1.88727
0.631956
3.80502
8.37141
2.81978
1.08963
0.73483
0.781448
6.1421
7.89113
0.962826
0.802728
0.807655
11.2584
0.672505
0.650445
6.86558
1.11131
0.726954
0.657721
2.87809
1.14376
2.16798
0.48902
0.22055
1.07941
0.965823
2.39423
1.14132
1.13529
1.2186
3.01723
0.976117
12.8013
1.3798
0.981887
1.32338
3.59687
3.62769
7.18742
1.89075
5.50744
2.80077
2.5872
5.8031
0.577556
4.08991
1.39955
4.94085
6.22183
6.42041
5.8158
5.52055
10.8545
1.24767
2.54406
6.46765
0.835027
2.44055
0.810328
2.97533
7.47511
1.90252
0.841134
10.5619
7.08977
1.75108
0.769685
2.09411
0.715003
0.913122
0.906995
7.12188
1.25024
2.0179
4.92467
1.75703
4.36513
4.78421
1.31105
8.29987
4.94132
2.4552
4.26373
1.09113
2.79151
9.38656
1.24439
1.19492
0.771877
6.3492
0.713443
2.30248
1.66946
2.54957
1.02904
1.20679
6.94683
0.878114
1.27517
2.54919
0.855179
0.812195
1.08019
0.890789
1.52204
0.680861
0.891129
19.9323
2.65875
2.57731
2.8869
3.26638
1.4649
1.34232
0.758939
0.626906
0.851278
0.587754
3.09176
2.75648
2.46771
0.566643
0.848107
0.75654
1.39928
0.970117
1.79757
1.34791
2.83355
0.227962
0.551504
1.89165
0.735543
0.775163
0.868264
1.00363
0.272578
0.719189
0.75625
0.623523
0.779921
0.802187
0.724963
0.730908
0.833294
0.609803
0.33911
0.725941
0.626737
1.12617
1.04206
0.719801
0.626436
0.6889
0.527105
1.51469
2.0782
0.644788
5.40174
0.692838
0.663731
0.945467
0.719237
0.919798
3.598
0.70294
0.735124
0.634503
0.830698
0.930779
0.688318
1.25547
3.56338
3.03118
1.7016
3.73831
0.834224
0.590722
2.24265
0.792118
11.2734
1.76652
0.720163
0.731966
0.947259
0.529243
0.54642
0.275006
3.03682
5.32534
0.853079
2.13628
0.576805
0.528605
2.85179
0.648414
0.382713
1.49015
0.695937
0.681085
0.742882
0.553861
0.501836
0.107713
0.0607088
0.60156
0.735832
0.791166
0.771288
0.11583
0.652242
0.771315
0.720293
1.01581
0.709567
0.0907402
0.755813
32.7198
0.604775
0.400412
0.580509
0.582247
0.141354
1.66543
0.107384
0.404126
0.53418
0.563684
0.569011
0.616819
0.597211
0.565597
3.67925
1.77106
12.8227
1.62304
0.402239
0.100428
4.00087
0.202895
2.57256
18.4236
0.368014
1.02058
0.769592
0.609701
0.6936
1.30852
0.282722
4.11194
0.277261
6.46637
3.95555
40.3746
0.582327
2.23193
34.5638
8.02773
1.85672
2.11331
2.34031
1.31787
1.9336
5.58157
4.90852
0.623955
9.62827
2.71884
1.91098
1.10296
1.89848
3.08844
5.44599
1.12198
12.0348
4.48549
2.59354
1.16318
29.314
2.35677
3.00982
6.54792
1.89383
0.590987
0.555144
0.325842
5.35459
3.05945
0.93697
0.741693
4.10734
0.885595
0.703374
3.38399
2.18209
2.14496
0.450524
3.30042
9.5974
8.35959
1.51284
8.19362
6.03931
2.23461
2.73446
10.7103
1.82555
4.70046
0.459457
0.190428
1.13638
3.00008
1.44179
3.62823
2.95296
4.92073
5.59445
2.91082
0.500431
27.3289
2.84761
8.79663
2.02725
1.58943
8.99849
0.744545
3.24912
2.62987
5.71118
4.12757
7.43923
4.58045
1.16362
0.209142
4.17703
6.85906
8.08762
4.0986
1.07825
1.70733
6.18003
5.33865
3.29266
3.73373
4.19593
1.03548
2.88058
3.9493
6.0403
5.8095
5.59155
1.71185
19.1668
1.90184
2.96619
0.966254
4.43719
5.24277
2.95048
2.16751
0.482142
0.482446
0.342058
2.72704
0.489446
7.5931
1.80277
3.00553
7.01758
3.4358
4.78584
3.51403
8.61906
4.73191
10.9769
8.62391
5.31262
0.178708
2.48488
1.89178
1.45567
10.7609
6.72589
21.4879
4.72694
1.73279
1.69465
4.28645
9.39518
6.48622
2.37192
1.0192
1.68782
6.51644
1.80515
4.56004
2.70476
9.97941
0.702437
0.0911132
1.29752
1.91934
6.03652
1.66593
0.228887
1.01744
0.965175
1.29967
3.30329
1.42174
1.8809
7.77887
0.940064
1.42903
8.02755
5.96148
5.24503
2.86039
2.80602
5.70308
1.68556
5.80396
2.66273
7.97523
3.7505
3.32291
5.33863
7.24044
21.6277
8.04179
2.24409
6.01395
4.40648
0.384572
0.239995
1.19033
16.3229
0.45764
11.5121
13.4168
6.24612
3.81302
10.9805
4.46901
2.41438
10.0247
0.601448
8.29062
4.73437
5.79608
3.37676
6.38299
9.96604
7.76431
1.78857
0.931615
0.308841
2.09452
0.34253
1.46072
1.47497
2.59432
1.18908
4.6575
2.19979
10.8991
7.96379
4.25648
3.73597
8.10834
8.0089
24.0279
9.42444
14.2362
1.43871
8.65022
0.613845
0.70458
0.366963
0.60059
0.54012
6.78746
3.44615
7.94934
9.56618
4.50554
2.72025
6.50023
6.29923
18.2981
24.5843
16.295
14.903
6.74135
4.62972
3.60587
0.793807
0.652418
9.34053
10.0157
6.43606
2.48287
1.82198
6.82498
11.7602
5.12601
9.58283
1.01844
0.945179
0.7286
0.571661
0.582514
0.583071
8.14272
3.52849
1.18221
0.975183
1.16287
9.5986
6.36607
5.61266
0.927392
2.01025
7.08433
12.7223
6.03816
3.23441
4.83576
9.27179
2.68343
3.61976
4.06519
8.28923
3.64132
9.31728
0.306701
0.935248
8.96235
3.36995
0.782014
0.985883
10.8343
3.99277
1.40321
15.9747
0.870927
0.695194
0.807846
0.232798
22.153
3.2705
7.69552
5.29219
0.971218
8.52592
1.98131
5.72358
0.421755
4.88325
2.82195
5.34172
0.245654
2.02979
1.60102
14.3013
9.16622
15.0689
1.13431
9.2053
14.8618
0.837632
0.740446
0.800774
7.26275
1.33974
1.54212
0.648618
0.998834
7.31234
2.85672
7.41565
0.125046
0.253337
0.17296
5.9514
5.42383
0.975128
8.00598
4.50329
0.341347
8.56257
0.246028
0.601897
1.54977
6.97055
7.46397
5.40834
2.8959
17.5961
14.1381
2.07128
7.2771
4.90712
17.5632
3.26616
2.48418
9.73768
14.2678
4.80951
3.95758
6.91566
6.18257
2.47127
8.19638
2.09303
22.1167
6.08263
8.03085
3.65093
6.70599
6.1818
5.78927
3.1794
7.46258
1.19324
0.216631
14.9941
10.1789
0.147778
3.0864
1.39009
7.60593
6.64019
0.503872
0.181596
0.274782
0.532701
0.0620911
1.13259
0.236731
3.91554
2.71162
5.7913
0.889045
1.47979
6.46576
2.22637
1.29988
8.22671
3.60101
6.07445
1.67571
0.375292
1.10733
28.2204
10.8306
11.5483
2.99668
35.0228
4.82116
5.75464
2.38138
11.8718
8.3983
5.0878
14.0455
5.90075
0.48732
7.14799
13.7164
3.97729
4.74245
0.104894
0.295582
0.3578
1.25524
1.28526
1.5653
1.19393
1.4831
0.606881
1.54297
1.20533
6.04149
3.64275
6.06182
7.41769
1.46294
4.778
8.53297
9.62531
3.97788
7.51022
5.62616
5.52821
0.698603
0.177843
0.190602
0.167343
0.324152
4.78676
0.852307
11.5466
4.62124
2.21035
7.44012
3.8982
0.753381
5.37037
7.80932
5.3176
2.75563
0.505973
1.76506
3.26914
8.15117
0.992827
0.183295
1.38595
1.82347
0.18451
0.358456
1.86523
6.73463
6.27235
0.41242
4.40128
2.45239
0.416688
0.37791
2.35039
8.02509
22.2125
0.235857
6.08886
3.69211
4.37542
3.41873
5.31648
1.80352
0.770371
8.07796
4.83
2.65374
2.67222
16.4239
0.951611
2.85575
3.90659
3.95902
12.4779
6.96212
2.55792
1.88903
0.560874
0.621635
0.917246
6.55442
18.1432
19.9787
8.37429
1.1114
1.11604
1.41686
11.407
6.88028
4.98836
2.13031
2.59349
2.64653
0.0738589
0.506122
3.29988
1.79634
0.667064
1.23846
2.83943
1.99094
3.03893
3.09421
14.8859
9.30234
1.09002
0.561677
0.856472
0.325055
0.710499
5.49596
0.182597
2.77388
1.80467
1.81791
3.07651
4.80762
4.05965
1.63098
4.28815
19.6627
7.92566
0.533561
4.35164
3.08431
4.34711
6.81767
2.98282
4.3831
4.58366
0.694954
1.06098
0.745746
0.587042
2.2963
1.1105
5.80904
1.34115
1.08354
1.94791
5.40845
2.18788
28.1897
6.66162
1.59352
8.98121
1.10568
4.91689
0.679719
1.83853
3.91713
4.26713
0.238917
0.490594
0.553956
2.5335
2.90972
0.0400176
0.599413
1.90626
3.1726
2.8423
0.00824272
6.92669
0.395162
5.19355
5.58638
1.84677
5.14844
2.6204
6.43104
7.16758
0.171864
3.41012
0.0142735
1.61723
8.17314
1.63565
0.179718
0.0458998
0.960387
0.48063
0.530649
1.13172
0.72162
0.31311
0.168449
0.374676
0.454291
0.768095
1.34453
1.15983
3.43323
3.89579
0.826695
0.171893
0.0860291
9.4178
9.51443
1.12858
2.01126
3.46989
6.5544
6.71543
9.37458
4.65064
5.60335
2.12183
10.4345
7.41878
3.2913
7.81211
10.7409
8.4177
30.5375
43.8712
26.7413
11.4953
0.0863384
17.5662
6.6264
5.54371
23.0375
5.14933
4.75201
9.82582
0.608808
1.78638
0.180787
0.420776
13.3105
1.13119
34.259
6.92259
13.8298
8.37772
9.9924
9.61316
0.0468517
3.64824
8.10338
3.87285
1.75914
1.361
2.29275
7.26467
0.469105
0.916072
0.899595
0.042979
4.45061
0.168305
8.05933
3.31121
4.43439
0.0340499
0.439198
1.62383
0.651157
0.797231
0.121274
0.770944
7.47079
5.3095
0.670916
1.01313
2.14954
0.30325
26.3986
2.06414
10.8706
1.14519
2.48738
5.5698
6.17322
16.2928
3.80952
6.98442
2.56181
0.866609
1.10883
1.12702
4.07789
17.9447
6.13835
2.89047
1.27099
0.911904
2.91581
1.73877
6.8998
6.42205
15.5853
6.70223
31.2547
1.80704
2.9736
0.472083
0.580515
0.370479
2.64081
1.7171
0.930033
5.05569
5.75591
0.986198
0.157171
3.8674
7.30819
9.13412
0.310385
13.1494
2.79848
5.41484
4.18847
10.1725
0.46004
4.0929
1.22947
2.93732
5.54601
13.807
1.05044
21.3487
0.656505
0.982402
11.5607
0.145024
0.580802
0.660511
0.4315
6.14527
6.18187
6.89458
3.97625
0.581011
17.1322
8.5131
12.8957
23.1475
3.41029
1.28202
8.98446
1.92996
1.59191
14.4273
2.84903
1.70497
0.712947
3.46385
9.43508
12.0573
5.12462
34.3782
4.32296
6.35444
7.59605
5.03509
10.5254
6.54852
4.43904
3.30035
5.48631
1.50843
9.05859
1.97399
9.78652
17.5479
13.5741
22.1391
6.37199
12.1379
0.214887
0.712266
0.683707
0.208987
0.99145
0.561941
0.0854629
0.88971
1.32723
0.545014
1.01833
1.109
4.32487
2.95743
1.08533
0.794475
0.0143992
0.339145
0.96864
0.250648
2.19746
2.02302
12.9407
1.15956
1.76714
7.76932
21.6067
11.3416
3.77765
3.67629
9.06896
3.1509
2.05215
1.09619
3.57097
0.0337636
1.10977
1.75378
7.58085
7.17391
2.82087
3.21066
0.786043
6.57859
3.66237
1.55612
5.80977
0.0471575
4.90959
6.03758
2.96711
17.0225
2.83064
3.66349
4.46359
18.3283
1.39715
2.29502
0.62362
1.08026
0.399394
3.71555
4.61953
7.39996
9.84297
7.3676
2.92672
12.9324
8.56766
5.98917
2.46956
0.361691
1.03711
6.34641
0.182406
7.07321
6.00391
0.742315
2.3883
7.34463
6.64539
0.305048
0.8126
1.11381
0.662628
0.805813
1.49853
4.34877
0.266303
0.182398
0.141731
4.40004
0.278228
2.94881
0.898826
0.806158
2.04
0.611607
0.964513
0.714329
3.99639
0.331053
11.9927
5.82484
16.9338
2.32131
3.36876
1.06495
7.95104
8.49958
6.90896
16.0759
1.6512
1.23256
2.75762
4.95391
23.2071
0.192437
1.39485
0.886297
2.36696
5.76874
10.483
0.513794
9.54282
11.9324
9.44966
0.123603
2.42454
2.1505
2.36422
1.21112
4.7508
0.710143
2.84759
1.64948
0.54383
0.563122
0.30248
0.767837
1.30974
0.595139
0.931468
0.538538
0.274259
0.629331
4.01867
2.14596
8.84019
1.48633
7.73721
3.03535
17.6093
3.88174
18.2941
5.60666
3.66219
4.22988
3.9158
6.74988
5.15186
6.67063
8.22769
4.57458
2.24466
8.54599
9.41097
3.10011
4.96073
4.02446
7.77084
1.71592
0.822865
3.71355
8.86757
0.065918
0.338672
0.238593
1.11471
17.1675
5.53947
18.7958
8.90516
20.5634
11.5451
1.07901
6.7599
1.61475
16.7691
20.3463
1.5973
1.50387
0.438547
3.10902
2.2589
1.1808
5.86376
14.0692
3.37047
7.79929
3.25993
10.454
0.209806
6.27698
0.265441
4.78063
3.15101
13.1322
16.856
13.683
24.1208
2.41694
0.238478
0.331977
2.16121
3.48802
2.16743
7.93695
1.31736
0.416717
0.516274
6.20052
2.30844
1.65205
7.57504
5.87298
3.78583
8.15079
0.759022
10.6345
9.13576
8.07083
8.07375
6.87283
0.731007
0.381176
6.03498
6.9214
3.55558
4.06207
36.1831
1.23287
23.1649
0.438756
1.06414
0.0969333
1.0854
0.190663
0.206166
2.50607
1.9422
2.59871
8.76047
1.87399
2.64141
2.189
2.04375
29.1642
5.01854
1.87876
2.64978
0.907424
8.90115
4.17672
3.18369
5.16609
3.53079
5.57281
6.90864
1.20506
1.35651
6.42741
10.8029
3.29452
3.62947
4.11227
4.92814
8.12381
6.39036
5.74824
9.45962
6.26852
1.98218
6.78425
6.40187
3.93654
4.29878
8.8911
0.920377
2.29655
0.665173
1.33336
1.66529
0.0903673
12.067
3.69112
5.9657
2.57909
7.56353
1.26422
2.97403
0.0527951
1.74934
0.136012
2.07175
5.78387
3.51873
0.0522721
5.96408
7.17492
10.6146
13.8003
2.9643
3.71207
5.09433
0.60599
0.0655021
0.92229
0.108672
0.246164
0.850348
2.854
1.49755
5.06408
3.33851
9.16765
3.26041
11.3437
0.770844
5.05237
11.199
53.9754
13.799
6.49074
5.25466
1.71447
14.1085
0.535927
13.9428
2.34343
1.27101
0.0689407
0.947518
8.84698
1.85105
1.43616
1.49744
1.064
7.28138
0.393403
0.843534
2.09968
0.387452
0.746763
0.696569
2.50644
6.30615
4.49373
0.245779
12.3695
1.00414
5.98861
7.82644
6.30089
2.48026
1.85819
0.359657
0.414582
0.552422
1.13749
0.938507
7.95906
2.06952
4.97554
3.2758
0.387506
3.3546
8.28643
0.193146
0.181599
2.37914
2.69306
10.4589
0.437439
0.801352
6.31617
5.07757
1.13215
15.012
0.716106
1.22217
4.95675
0.92687
2.08461
1.47271
2.61764
2.20908
3.07227
20.2859
1.17766
3.94053
6.9255
11.7246
0.36044
14.3348
2.48407
0.819202
1.51052
1.1035
1.03468
1.50778
3.50986
5.24925
8.94606
0.6029
24.8105
0.172944
10.8382
5.94064
6.21076
9.27872
2.68167
3.17366
1.27008
9.51122
10.2824
7.73598
3.27926
5.42765
9.5469
1.68021
4.83679
23.2978
18.2287
7.76085
4.93735
2.31955
4.4792
2.44628
14.3995
0.568908
5.57754
0.610234
0.91889
1.61063
1.28197
6.86681
0.167527
0.170691
5.71514
3.73506
13.3824
0.978545
7.06659
6.42292
0.369375
4.43791
0.545272
1.50823
3.02886
9.41336
3.24662
2.31325
0.821358
2.52739
1.1032
1.52677
2.42067
18.0186
0.283222
0.909525
0.0440423
1.43556
8.14921
45.6025
0.0831702
1.07834
7.3762
2.89582
2.32532
2.07977
0.645463
0.521372
0.821396
22.1748
13.3319
5.67698
0.439688
0.609469
1.28208
3.98799
3.40451
3.34887
19.0072
2.53468
0.837119
7.41218
9.93842
2.35918
5.46492
4.57417
9.465
17.1283
4.73925
6.58355
4.96176
2.74206
1.72648
5.7675
1.49691
5.41714
0.338678
35.0128
3.0514
3.05739
6.82199
4.41913
15.7428
4.63004
6.68904
3.30208
3.94074
15.327
0.0583509
0.179031
1.0494
0.658636
17.6156
9.14008
1.78611
6.01696
12.2028
28.2338
5.75633
25.3945
0.893343
25.5559
1.94331
3.47536
1.09987
2.75336
1.46679
4.07435
29.8305
1.95808
5.6312
0.267701
9.69127
0.71489
0.685107
0.206859
5.48232
7.27409
5.97588
4.91378
3.84398
0.858293
1.31276
1.0869
10.4193
10.1399
6.95768
6.88625
5.47991
0.171963
0.362553
0.840353
0.883136
11.6715
1.5528
14.825
17.2838
2.53976
10.0288
7.496
0.485895
2.02735
0.826238
1.44114
2.36265
4.12744
7.16483
0.392031
24.2388
0.776143
0.186968
7.96967
5.31606
11.9803
2.03277
2.21277
10.0541
3.152
3.07736
18.8892
9.35318
1.79699
1.37163
26.0824
2.74003
1.24498
6.19361
0.953235
0.338581
0.490705
4.2519
2.35015
6.65853
14.9637
10.5592
3.33335
1.6306
15.7304
1.08494
7.06879
3.5833
3.47052
3.6646
22.2539
3.071
0.917426
1.63158
20.1807
9.96561
5.65416
3.316
3.1764
5.37357
6.71889
5.99376
8.84213
3.3666
8.70795
0.42257
0.432554
5.53487
2.57464
4.92512
2.01631
1.91444
24.2532
3.35794
10.2081
5.71532
6.17539
5.67983
4.17312
12.1449
15.2879
6.07958
0.199736
0.639616
3.12573
0.665297
3.12983
6.87584
2.05736
0.686418
1.11505
0.24803
28.3547
1.54024
0.780209
5.89398
6.70197
4.62979
0.351946
0.704211
1.01503
2.52151
4.72743
0.783028
2.07792
13.6279
1.61185
0.977185
2.74294
0.0264876
0.432246
0.158225
1.12077
0.286739
1.00836
3.6583
8.63384
7.23765
1.11586
1.15675
2.92611
7.18891
4.14473
2.32598
0.341586
4.29851
2.6881
2.17652
6.41909
4.66751
3.80304
8.48525
8.17772
0.663512
0.725833
9.46173
3.19963
8.48902
7.03511
6.40641
4.17811
1.70242
4.47424
2.47853
8.3636
1.50814
5.33418
1.33044
0.915021
11.027
3.06015
0.148685
16.4386
0.553526
5.26079
0.746044
0.270687
0.811646
0.942116
6.36386
1.64527
0.495564
1.37214
1.20739
2.96572
2.39212
3.04214
6.52559
8.95648
10.9483
24.2551
5.45559
1.22532
6.76894
3.56521
1.04632
4.29004
0.40925
7.6832
5.72856
3.37852
6.98591
1.86681
0.141385
26.3858
47.4075
5.4941
3.83217
0.429028
17.9259
7.91246
6.45848
11.2762
4.66786
0.034436
2.89814
23.3151
12.5974
5.5014
0.169143
0.0580252
0.105583
0.0193863
18.8155
8.14199
3.56881
17.4706
2.41651
1.56978
0.872275
5.1649
1.4533
4.42385
1.82693
3.90688
1.67057
10.5433
6.37777
59.1582
2.959
6.38232
2.65415
3.51417
8.65972
15.4978
2.82199
3.61997
1.44975
3.53083
7.38553
7.86025
7.79855
0.239741
47.925
2.15722
2.13116
6.21988
2.24849
0.182198
0.94987
0.20769
1.11471
0.0382081
6.45302
24.0521
3.17638
3.82965
8.80916
6.4562
1.60428
2.57153
0.78305
0.153236
0.608802
6.39631
1.20486
33.919
1.49352
5.32327
0.214474
16.3069
1.07113
1.35885
0.701023
1.53045
0.614049
4.81517
0.32726
0.44788
8.91062
23.774
31.8488
2.466
2.99906
6.53772
0.588079
0.445896
2.75479
0.359435
5.65874
2.24728
12.0846
1.31632
3.60193
4.81896
30.8677
7.00457
0.628732
1.20207
0.947076
0.240728
8.42683
0.129985
0.0276187
0.232443
3.06155
3.2948
6.31068
0.25489
0.140184
0.167986
20.5129
0.728092
0.970143
6.70815
2.30411
5.4662
0.832625
45.2841
5.8609
0.603346
0.903279
6.90988
5.13401
2.35448
8.06625
1.66433
2.25957
7.88938
0.287135
2.51891
4.10064
3.15925
3.12174
0.143688
6.96352
0.0222459
1.34373
6.43612
1.36595
0.624149
1.11682
1.48045
0.570654
2.17699
0.659337
0.804456
2.31478
6.14898
1.34011
1.88644
0.934561
0.93302
1.28259
1.99147
4.06721
2.80948
6.23595
2.35023
12.4187
17.7334
3.18595
2.38588
1.25847
0.848955
0.127396
7.40338
1.27829
4.90065
3.13526
9.22173
3.30839
3.9075
4.45295
2.53392
1.76116
12.6176
4.1885
0.893205
1.6791
0.184867
0.443461
0.294881
0.178914
4.05805
3.63294
4.4666
0.915016
2.66317
49.1761
2.31512
1.24779
0.935059
0.348499
0.0890627