/*--------------------------------*- C++ -*----------------------------------*\
| =========                 |                                                 |
| \\      /  F ield         | OpenFOAM: The Open Source CFD Toolbox           |
|  \\    /   O peration     | Version:  2412                                  |
|   \\  /    A nd           | Website:  www.openfoam.com                      |
|    \\/     M anipulation  |                                                 |
\*---------------------------------------------------------------------------*/
FoamFile
{
    version     2.0;
    format      ascii;
    arch        "LSB;label=32;scalar=64";
    class       volScalarField;
    location    "100";
    object      nut;
}
// * * * * * * * * * * * * * * * * * * * * * * * * * * * * * * * * * * * * * //

dimensions      [0 2 -1 0 0 0 0];

internalField   nonuniform List<scalar> 
65206
(
0.000232662
0.000106685
1.56348e-05
0.00111252
0.000148817
5.36576e-05
1.17561e-05
0.000175184
0.00139961
0.000515761
8.69e-05
0.000112926
3.50417e-05
3.47269e-06
0.000104018
7.09373e-06
0.000112215
9.01891e-05
2.13749e-05
0.00019963
0.000673753
4.32836e-05
0.000205741
0.00160893
4.82559e-05
0.000155409
0.000173197
0.000642587
0.000506608
2.94982e-05
0.000189831
0.000313356
0.000162762
2.65981e-05
1.6851e-05
0.000768272
0.00026269
5.38894e-05
3.5845e-05
0.000137946
0.000923072
0.00133574
0.000151197
0.000773996
0.000526433
0.000282106
0.000144267
0.000256008
6.17051e-05
5.03898e-05
0.000219396
0.000204545
0.00154208
0.00145759
0.000274047
0.00167166
0.000238777
4.87145e-05
0.000238788
0.000261115
0.000208037
6.40984e-05
0.000182322
0.000301599
0.000954999
6.9369e-05
0.000301087
0.00031027
0.000292454
5.3382e-05
0.000225695
0.0012999
0.00110573
0.000552326
0.000273766
6.81429e-05
0.000319472
6.12052e-05
0.000168148
0.00115898
0.000172763
0.000255316
0.000338877
0.000123407
2.00379e-05
0.00129316
8.3605e-05
0.00134917
6.90687e-05
0.000204734
4.78343e-05
5.22864e-05
0.00148197
0.000408485
0.000143792
8.47387e-05
0.000329302
6.59463e-05
0.00100225
8.58986e-05
4.98589e-05
0.000385082
0.000240237
0.00119184
7.7273e-05
3.46825e-05
1.49027e-05
0.000159927
0.000715623
0.000399697
0.000619969
0.000276219
0.00105481
0.000164991
0.0001823
0.000536618
0.000546476
0.00015382
0.000117682
5.79221e-05
0.00127232
8.14439e-05
2.16991e-05
6.83156e-05
5.30221e-05
0.000441784
0.000189381
0.000943815
0.000948231
7.354e-05
0.000305237
0.000152851
0.000525886
0.00101147
0.000427071
0.00011208
0.000689152
4.79604e-05
0.000193305
0.000123055
7.08516e-05
0.000950276
7.32723e-05
0.000100221
0.00142335
0.000526138
4.7778e-05
0.000172329
0.000240411
0.000196003
0.000411518
0.00025811
7.96167e-05
0.000207222
0.000133556
0.000149693
0.000237764
6.22449e-06
0.000111521
0.000438141
3.67726e-05
1.55023e-05
0.0002709
3.49014e-05
0.000149868
0.000431566
1.41561e-05
0.00012491
3.85377e-05
7.98622e-06
0.000419245
0.000677635
0.000376266
0.000278327
0.000277059
0.000211365
0.000150271
2.21225e-06
0.000233811
0.000363324
3.35341e-05
7.96305e-05
3.91508e-05
0.001058
2.98062e-05
8.79882e-05
0.000239874
0.000472515
1.01013e-05
0.00103328
0.000161211
0.00015123
0.000182644
5.70321e-05
0.000749645
0.000318066
0.00026322
4.59987e-05
0.000561676
0.000260193
1.50567e-05
4.69144e-05
9.85084e-05
7.37074e-06
4.58118e-05
0.000181463
0.000544717
2.46639e-05
0.000119735
0.000104584
0.000307626
6.18395e-06
0.000606417
0.000672383
0.000629898
0.000155732
7.84179e-06
1.09041e-05
0.00011631
0.000516376
2.29657e-05
5.96673e-05
1.60721e-05
7.29256e-05
0.000233665
0.000445747
3.68411e-05
3.06388e-05
0.000661808
0.000225332
5.50991e-05
1.9124e-06
0.000866425
0.000456494
0.000455832
5.11973e-05
0.000723458
0.000802601
0.00010466
1.98366e-05
0.000441709
0.000764425
1.45792e-05
7.19279e-05
1.10806e-05
0.00160781
0.000150687
0.000533111
0.00152044
0.00145803
0.000148258
5.07179e-06
0.000466517
0.00111699
2.35474e-05
0.000661193
3.1751e-05
0.000164237
0.00095353
0.000591091
0.000136541
0.00124101
0.00120306
0.00102981
0.000598072
0.000191316
0.000699477
0.00121951
6.00653e-05
0.00134618
0.00011225
0.00098224
8.19064e-06
0.000122874
0.000180546
5.08628e-05
0.000339149
0.000644335
0.000695391
1.19401e-06
0.000179387
2.96437e-05
0.000175358
0.000879626
0.00149204
0.000792335
0.000810068
6.30335e-05
0.00171749
0.00016686
0.000755661
0.000134953
0.00152352
0.00130085
0.000203148
0.00113484
6.05997e-05
0.00152884
0.000959483
0.000354888
6.29348e-05
0.000835037
0.000311383
1.35626e-06
0.00146146
1.74699e-05
0.000863523
5.74866e-05
8.23272e-05
0.000199053
7.42642e-05
1.881e-05
0.000164788
3.17069e-05
0.000200872
0.0005467
5.92636e-05
7.61799e-05
0.000946173
0.00152514
0.000205123
0.000101156
3.92833e-05
0.00142712
0.00033983
0.000191916
0.00145367
0.00131039
0.00108705
2.17775e-05
0.00117425
0.000100549
0.000468691
0.00130982
4.70498e-05
0.000892917
0.0015031
0.00113246
0.00119933
6.22987e-05
4.62525e-05
0.000542022
0.00133614
0.000315209
0.00149853
0.000911488
0.000501476
0.0010433
0.000109442
0.00076195
0.00012214
0.00151505
0.000645306
0.000777787
0.000613651
7.63456e-05
7.84559e-05
0.000576994
0.00141087
0.0015578
0.000289279
9.70765e-05
0.000164496
0.00130911
0.000251308
2.3727e-05
0.000844056
0.000347085
0.000146733
0.000315804
0.00147295
0.0013576
0.000327205
0.00111417
0.00159893
0.000683492
0.000668255
0.000624954
0.000750998
2.03999e-05
0.000541063
0.000151861
0.000854962
0.00105216
0.000620907
0.000267759
0.000276383
0.000227044
4.79406e-05
0.000230251
0.000976856
0.000784876
0.000168494
0.00160814
0.000486147
0.000194186
0.00124397
0.000765439
0.00159246
0.0011481
0.00062692
0.000548799
0.000725002
0.0013307
0.000560573
0.000245936
0.000768767
0.000734148
0.00114547
0.000205103
0.000795824
0.000553494
0.00106979
0.000680852
0.00133305
0.000173528
0.00117924
0.00117687
0.000486625
0.00157739
0.00151791
0.000938538
7.1338e-05
0.000142427
0.000138555
0.000105806
0.00114944
7.84114e-05
2.40018e-05
0.000182219
0.000741104
0.00127736
0.000176597
0.000108426
0.000749679
0.000395692
0.000107387
0.000601832
0.00194065
0.000466349
0.000971541
0.000853971
0.000710632
0.000588306
0.00112142
0.000496146
0.00127784
0.00129734
0.00133912
0.000149194
6.38869e-05
0.000478858
0.00109191
0.00092061
0.00120562
0.00182432
0.00120446
0.000302329
0.00103878
0.00153635
0.000627959
0.00107716
0.000213724
0.000256256
0.00129931
0.0010159
2.05291e-05
0.00149664
2.68647e-05
0.0011727
5.66612e-05
0.000652386
0.000465836
0.0016568
0.000146893
0.00148698
0.000777357
0.00109526
0.000499014
0.000209124
0.000985446
0.00109137
1.79076e-05
0.000744657
0.000126646
0.000779756
0.000238059
0.000575629
0.000617718
0.000242383
0.000920486
8.78864e-06
8.73141e-06
0.00157742
0.000927094
8.26671e-05
0.00016556
0.000514675
0.000176352
1.62749e-05
0.00175946
0.00034211
0.000292924
0.00133204
0.000782354
6.91251e-06
0.000455123
0.000116731
0.000792403
0.000316999
0.000266845
0.00084722
0.00078865
0.000557833
7.40426e-05
6.96934e-06
0.000719042
0.000153565
0.000121121
0.000965208
0.000638648
0.000712113
0.000970968
0.000753502
3.28504e-06
0.000980533
0.000251688
0.00120312
0.000246324
0.00104463
6.3728e-05
0.000395094
0.000509835
0.00111272
0.000631326
0.000776913
2.47804e-05
0.000619743
0.000916858
0.000837286
0.000623199
0.00011664
0.000575577
3.09018e-05
0.000133015
0.00077279
7.58481e-05
0.0010421
0.000541452
0.000643749
0.000205469
0.00148196
0.00118748
0.000130749
2.16552e-06
0.0011021
0.000388471
0.000272792
2.36538e-05
3.03197e-05
0.00165027
0.000461702
0.000248514
0.000339451
0.000204953
5.70261e-05
0.0003506
0.000153108
0.000177404
5.38762e-05
0.000506529
0.00128982
0.000712212
0.000299486
0.000158643
4.86144e-05
4.29667e-05
0.000108935
0.000524799
9.44674e-05
0.000706396
0.000995337
2.027e-05
0.000697644
0.000804375
0.000110477
0.000672479
0.000517803
0.00114103
0.000112964
4.61259e-06
0.000651779
0.000107814
0.000534113
0.00126044
0.000125464
0.000887133
0.00151958
0.00155486
0.000455425
0.000505376
0.000995293
5.22192e-06
0.00044103
0.000138541
2.46158e-05
6.28678e-05
0.000118555
0.00127049
9.11432e-06
0.00038888
0.000734302
0.000832628
0.00085231
0.000670506
1.85918e-05
1.60708e-05
0.00014317
0.0012036
1.64472e-05
0.000657626
0.000983843
0.000169065
0.000312152
0.000111644
0.000665707
0.000172875
0.000235902
0.000425818
0.00103549
0.000650573
3.11396e-05
0.00194073
6.77905e-05
2.31025e-05
0.000981872
0.000313415
6.91654e-05
0.000616126
0.00101544
0.000224465
0.000373079
3.68749e-05
5.46976e-06
8.65752e-05
0.00109538
0.000713676
0.000129918
0.0001763
0.000747989
0.000355461
0.000569907
0.000112506
0.000328344
0.00072142
0.00117891
0.000294654
6.33006e-05
0.00052774
0.000607466
4.66531e-05
0.00151807
0.00091932
0.000159961
0.000100393
3.89263e-05
2.2049e-06
0.000594532
0.00138077
0.000900118
7.08868e-05
0.00109966
0.00015891
0.000130415
0.000426393
0.000920707
0.000181042
0.00033796
0.000771494
0.000322143
0.000855355
0.000231852
1.23849e-05
0.00115632
0.000146894
0.0015702
7.28936e-05
0.000154566
0.000150479
0.00140592
0.00143279
0.000259275
5.06985e-05
0.00114749
0.000165686
0.000151567
0.000880085
0.000690789
2.23048e-05
0.000877701
0.000260937
0.000390695
0.000627368
0.000980693
0.000107739
0.000558012
0.000559982
0.00074952
0.000519387
7.01607e-05
0.00133693
0.000961284
0.00150265
0.000112416
0.00105399
1.61027e-05
0.000145666
0.000165157
0.00152393
1.50125e-06
0.0007876
6.34793e-05
2.65192e-05
0.000561418
0.000398854
0.000145055
0.000294173
0.000345426
0.000946633
7.4662e-05
0.00103005
0.000730463
0.00097585
0.00150034
0.000573378
8.22508e-05
0.000338257
0.000101928
0.000147133
0.000253816
0.000478953
0.000827178
4.17723e-05
0.000600702
0.000240172
1.63507e-06
3.95492e-05
0.00116052
0.00155861
0.000468422
0.000567458
0.000737022
2.44318e-05
4.09756e-05
0.000316992
0.000300621
4.19166e-05
0.000109897
0.00137109
0.000898275
0.000770504
0.000134013
0.000865262
0.00142991
0.000561639
0.000804914
0.00154808
0.000520436
0.000149719
0.0003745
0.000113774
0.000561722
0.000508295
0.000816791
0.0014664
0.00153377
0.000225823
0.000257698
0.000934714
0.0015615
0.000794143
0.00107616
0.000154571
0.000260314
0.000124632
0.000868519
4.24056e-05
0.000400134
0.000117602
0.000349678
0.0012134
5.35275e-05
0.000260129
2.52143e-05
0.000182498
2.32767e-05
0.000276018
0.000662874
0.000442908
0.000751845
1.06154e-05
0.000407634
0.00115491
8.82782e-05
0.00143629
9.25458e-05
0.0014587
0.00141721
5.45929e-06
2.05392e-05
0.000144194
0.000345983
0.000181128
0.00139408
0.00127279
0.00148091
0.000895946
0.00031338
0.000926687
0.00157696
0.000564417
9.33676e-06
0.000194551
0.00152411
0.00118847
0.00147231
4.34155e-05
0.000951304
0.00146143
0.000615158
0.00104451
0.000295555
0.000795066
3.51994e-06
0.00160295
0.00129658
1.70046e-05
0.00135773
0.00135586
0.00121643
0.00151998
0.00122548
0.0015418
0.0015324
1.2255e-05
0.00100388
0.000637212
0.000381062
0.000846575
0.000812647
7.23983e-05
0.00151401
0.0011858
0.00115219
0.000587774
0.000596081
0.00157063
0.000954243
0.00119827
0.000573761
0.000677689
0.00077036
0.00111275
0.00150509
2.73826e-05
0.0010452
0.000219359
8.43218e-05
0.000234552
0.00133597
0.00107534
0.00010873
0.00131776
0.00135362
0.000107562
0.00147809
6.44496e-05
0.000611429
0.00030707
0.000877275
0.000873654
0.000737177
0.000851573
0.000525525
0.00117515
0.000217235
0.00104994
0.00013729
0.00027691
0.000175307
0.0003253
3.99387e-05
1.8896e-05
0.00083472
0.000123111
0.00031818
0.00099717
0.00154321
0.000128452
3.02764e-05
0.000737707
8.03588e-05
0.000647824
0.00077809
7.44754e-05
0.000312731
3.34986e-05
0.00048673
0.00106342
0.000735338
0.000855825
0.00063508
0.00024952
0.0014561
0.00162839
0.0010437
0.00140056
0.000210343
4.31716e-05
2.12406e-05
0.000132175
0.00011732
1.66748e-05
0.00111114
0.000893312
0.00110715
2.22956e-05
5.67677e-05
0.000113193
0.000363237
0.000860136
0.00142275
0.000898585
0.00152429
0.000566065
9.51121e-05
0.000110469
0.000221794
0.000568379
0.000126199
2.0505e-05
0.00153049
0.000997508
0.00011906
0.00094709
0.0001029
0.000765785
4.65442e-05
0.00113523
0.000164672
0.000100536
0.000150062
0.000163916
0.000185376
0.000275264
3.66248e-05
0.000462286
4.82358e-05
0.00120566
0.000415292
0.000198352
0.00096623
1.97773e-05
0.000651595
0.000158098
0.000328943
0.000202131
0.000172257
0.00105373
0.00120661
0.000202574
0.000101314
0.000827583
0.000497505
0.000102259
3.01804e-05
0.000754524
8.95538e-05
0.00121332
0.00161338
0.00126107
0.00132249
0.00153017
0.000122485
2.59512e-05
0.000128132
0.00114804
0.000803779
0.00102263
0.00126537
0.000786557
0.00202977
0.0014348
0.00030624
0.000312337
0.000125676
0.000281448
0.00143825
0.00074105
0.00153494
9.36166e-05
1.92289e-05
8.65607e-05
0.00134277
0.00124928
0.000740423
0.000416288
9.68267e-05
0.00155627
4.88391e-05
0.000781862
0.000396586
0.000497307
0.000206733
0.000218055
0.000379079
0.000801578
0.00122461
0.000933739
0.000724854
0.00105665
0.000391044
0.000315449
2.4545e-05
0.00120044
0.00106746
0.00067031
0.000289236
0.000167812
0.00018784
0.000496675
3.81422e-05
0.000726686
0.00134357
0.00032321
0.00140723
7.08748e-05
0.000460361
0.00156452
0.000261897
0.000118797
8.48801e-05
4.30284e-05
0.000478702
6.43657e-05
0.00131947
3.12579e-05
0.00051102
0.000102483
0.000207877
8.73896e-05
0.000923785
0.00163061
8.92749e-05
2.72853e-05
0.000250916
0.000441509
0.00126879
0.000132914
1.73562e-05
8.26784e-05
0.000156027
0.00112286
0.000190367
9.99327e-05
0.000162527
0.000191128
0.00130333
5.8062e-05
9.41832e-05
0.000860667
0.000207396
5.57848e-05
4.05317e-05
0.000350828
5.60421e-05
0.000247573
0.000128031
3.41283e-05
0.000135211
0.000449166
0.00022566
0.000102559
6.84781e-06
0.000953974
4.01514e-05
2.05387e-05
2.30126e-05
0.000782978
6.91313e-05
1.66833e-05
5.24999e-06
7.537e-05
2.12855e-05
0.00116716
5.19405e-06
4.279e-06
3.5893e-05
9.63727e-05
2.13065e-05
0.000104002
5.30496e-05
5.23609e-05
1.43639e-05
6.32533e-06
0.000629627
9.87235e-05
0.000117054
2.59183e-05
4.0214e-06
4.15139e-06
4.05992e-06
0.000133252
4.84037e-06
1.39422e-05
7.02172e-05
6.74178e-05
5.6091e-05
6.2521e-05
0.00151064
1.78908e-05
0.000358357
9.85487e-05
0.00102113
0.000528104
0.000180053
1.86259e-05
0.000629269
5.66798e-05
0.000369035
3.58262e-05
6.83664e-06
0.000783795
3.02066e-05
3.89885e-05
4.12016e-06
0.00016388
1.39745e-05
2.84056e-05
1.12783e-05
8.26723e-05
5.04492e-05
2.58251e-05
0.00088762
5.00046e-06
6.55461e-05
4.42397e-06
7.89944e-06
0.000151387
2.55029e-05
9.65561e-05
9.65315e-05
7.64157e-05
0.000248519
0.00088787
7.04705e-06
4.5953e-05
0.000186685
6.2619e-05
4.57788e-06
4.58725e-06
2.01437e-05
2.14267e-05
1.85982e-05
4.17324e-06
1.50433e-05
0.000304134
0.00017019
2.21927e-05
5.38078e-06
4.33056e-06
4.51426e-06
0.000194685
9.29313e-06
0.000108076
3.49665e-06
0.000109927
5.42773e-06
0.000206997
2.47545e-05
0.000120611
0.00016227
0.000129335
3.10482e-06
0.00110754
3.71106e-05
0.000267886
3.90841e-05
0.000105705
0.000430156
1.63882e-05
0.000153687
6.3179e-06
0.000124592
0.000137156
3.90884e-06
3.42238e-05
7.091e-05
0.000144669
0.000481942
0.000613356
6.53004e-06
4.24254e-06
3.93477e-05
0.000228923
0.00143753
0.00105047
0.000372167
9.3912e-05
0.000230424
0.000403332
0.000712349
8.8609e-05
0.000140847
6.67429e-05
0.000975992
0.000354969
0.000283939
7.25852e-05
4.00561e-05
4.36626e-05
0.000151874
0.00149667
0.000265732
0.000135407
4.57131e-05
0.000195877
0.000125071
8.00911e-06
0.000867746
0.000898746
4.76891e-05
0.00023798
7.0235e-05
0.00127433
0.000163384
0.000394344
0.000542366
0.00114201
1.22408e-05
0.000887611
4.00608e-05
3.16045e-05
0.00025093
0.00129283
9.03259e-05
9.31492e-06
0.000377154
1.77633e-05
6.0539e-05
5.75007e-05
0.000439996
9.47782e-05
0.000830393
0.00043594
0.00011892
0.000358122
0.00104897
0.00135461
0.00120607
0.000300548
0.000281784
0.00118186
0.000177225
0.000619477
0.000174966
0.000384014
8.81401e-05
0.0015804
6.87484e-05
8.61153e-05
0.00101029
0.001409
0.00113782
0.000904229
4.49497e-05
5.89423e-05
0.00032883
0.000681985
0.000152829
0.000241669
0.000311275
0.000121405
2.54342e-05
5.91611e-05
0.000687541
9.50584e-05
0.000332691
2.48012e-05
0.00110185
0.000203006
0.00069431
3.45546e-05
0.000602453
0.000203509
2.89479e-05
5.91087e-05
0.000474783
0.000728375
0.000305212
0.000124033
9.40267e-05
0.000719407
0.00107226
0.000269034
7.83075e-05
0.000289481
2.39438e-05
0.000322957
9.3543e-06
0.000193469
0.000114218
0.00080425
2.16701e-05
0.000107474
0.00011162
6.47719e-05
6.8537e-06
9.46135e-05
0.00067895
3.29383e-05
4.44284e-05
0.000118455
0.000612278
6.57477e-05
3.24346e-05
0.00105721
8.49107e-06
0.000971123
0.000536722
0.000420583
0.000478191
0.000730224
8.96443e-05
0.000114498
0.000272932
3.52548e-05
6.45e-05
5.74616e-05
1.28981e-05
7.49195e-05
8.18673e-06
0.000620392
1.84593e-05
0.00054187
0.000207202
0.000152585
8.90061e-05
9.57773e-05
0.000420325
3.96107e-06
0.000216195
9.39724e-05
6.26528e-05
0.00014382
0.000288808
0.000231055
0.000129846
5.98724e-06
8.9779e-05
9.63377e-05
0.000898216
2.89635e-05
0.000179382
0.00113266
4.76271e-05
4.49732e-05
9.30675e-05
0.000146986
3.99141e-05
8.7815e-06
4.16272e-06
8.22629e-05
1.05057e-05
0.000934098
4.93683e-06
4.04315e-05
5.77663e-06
5.72863e-06
4.55082e-05
4.55894e-06
7.64155e-06
2.18148e-05
5.98684e-07
4.3464e-06
3.95479e-05
0.000152435
0.000896896
2.81809e-06
2.82753e-05
5.25229e-06
2.59195e-06
0.000193964
2.82235e-05
6.03343e-05
5.75421e-05
0.000595963
1.50124e-05
8.88953e-05
6.28474e-05
5.54428e-05
6.31253e-05
4.19162e-05
6.709e-05
5.06298e-05
4.13664e-05
0.000563348
0.000259279
4.17841e-06
1.05931e-05
4.1352e-05
0.000224718
0.000447412
9.92579e-06
4.51842e-05
4.36457e-05
6.59085e-06
0.000100372
4.98278e-05
0.00019034
2.14484e-05
5.90016e-05
4.20743e-05
4.33603e-05
5.97853e-05
0.000455771
1.17892e-05
4.54077e-05
7.57502e-05
6.49447e-05
6.51015e-06
1.1021e-05
4.66407e-05
1.14267e-05
0.000130689
0.000149955
0.000118963
0.000164736
1.33652e-05
5.34197e-05
7.46004e-05
2.08668e-05
7.42688e-06
3.33965e-05
0.000583939
3.59038e-05
4.78018e-05
3.58473e-05
2.29822e-05
7.95351e-05
1.59976e-05
1.56005e-05
5.45604e-06
2.07716e-05
0.000535881
3.46168e-06
4.75601e-05
0.000387512
2.33861e-05
7.65944e-06
4.62705e-06
3.75944e-05
6.24293e-05
5.42289e-07
2.95331e-05
1.64429e-06
2.25275e-05
2.10648e-05
6.54699e-05
7.20967e-06
1.75447e-05
3.42811e-05
0.000198731
2.53833e-05
6.44003e-06
1.88222e-06
2.77483e-06
3.72564e-06
5.29132e-06
8.76277e-06
0.00159218
1.73691e-05
9.87722e-05
3.64847e-05
3.28859e-05
6.54284e-05
0.000499455
5.93113e-05
5.97832e-05
6.40795e-05
8.42444e-05
4.54049e-05
0.000241453
4.08027e-05
5.15015e-05
5.65446e-06
4.46936e-05
9.57991e-06
0.00020942
3.42716e-06
6.493e-05
0.000131409
4.51998e-05
1.44229e-05
1.20477e-05
9.32898e-05
2.25951e-05
2.02625e-05
5.78219e-05
2.77952e-05
4.82109e-06
0.000155928
4.17543e-05
0.000136282
8.53136e-05
7.16317e-05
0.000111531
1.18915e-05
6.2508e-05
5.29514e-05
7.16779e-05
1.02804e-05
4.63725e-05
5.27014e-06
0.00044554
0.00077501
7.57824e-05
5.36529e-06
7.34438e-05
0.000156927
0.000126294
0.000555309
0.000306241
1.22003e-05
0.000132182
0.000372941
8.6019e-05
9.20937e-05
8.83029e-05
1.319e-05
8.9501e-05
7.3837e-05
7.05603e-05
0.000445984
0.000373596
4.71333e-05
0.000453668
0.000221679
3.13023e-05
4.66614e-05
3.83663e-06
0.000121924
5.11338e-06
2.75036e-05
0.000340538
8.43273e-05
2.21142e-05
2.32448e-05
4.25069e-05
3.22142e-05
0.000283214
3.48453e-05
0.000123643
5.90073e-05
2.62641e-05
1.21896e-05
7.44732e-06
0.000328309
0.000538361
0.000346687
6.9714e-05
3.35897e-05
1.23186e-05
2.7978e-05
0.000101977
1.27365e-05
0.000187359
0.00027439
4.55248e-05
0.000271218
0.00159501
0.000753235
0.000101022
2.62738e-05
6.15516e-06
0.00120138
0.00117906
8.48636e-05
5.03664e-06
5.3325e-06
0.00163112
4.5476e-05
1.99185e-05
0.00099534
2.52279e-05
4.96876e-05
6.03619e-05
0.000356214
8.75306e-05
0.000161416
6.22923e-05
9.8635e-06
0.000111342
1.69077e-05
0.000434815
0.000107783
9.98416e-05
4.92938e-06
0.000521627
1.34602e-05
0.001419
0.000127988
2.08772e-05
9.81592e-05
0.000203911
0.000708804
0.00152251
2.80238e-05
0.000194163
0.000333295
0.000262999
0.000944386
7.94625e-05
0.000757784
3.38005e-05
0.00123443
0.000637962
0.000848761
0.00079223
0.000511785
0.00100923
0.00018042
0.000210595
0.000682558
0.000131255
0.000242298
1.18045e-05
0.000310447
0.000427026
0.000191457
7.46026e-05
0.00153695
0.00060871
0.00013191
9.2807e-06
0.000385496
7.97586e-06
2.72314e-05
6.23182e-05
0.000751123
4.93382e-05
0.000359425
0.000626504
0.000122988
0.000389484
0.000798969
2.87433e-05
0.000583012
0.000986988
0.000275914
0.000579646
2.1024e-05
7.45558e-05
0.000378394
1.0184e-05
0.000119873
7.3823e-05
0.000587839
3.37447e-05
0.000262672
0.000240454
0.000276985
8.50254e-05
0.000220851
0.00103709
0.000118245
0.000200684
0.000686538
8.09214e-05
7.41132e-05
2.54369e-05
8.16399e-05
0.000219316
0.000100438
1.11796e-05
0.000993459
0.000356634
0.00021991
0.000362923
0.000715498
1.99354e-05
3.01121e-05
5.81882e-05
7.08959e-06
9.52551e-06
2.14121e-05
0.000368147
0.000387863
0.000471402
2.81939e-05
4.20428e-06
2.00981e-05
1.90665e-05
2.88114e-06
0.000303857
0.000195349
0.000420602
1.76777e-05
3.74215e-06
0.00029978
1.22617e-05
1.37005e-05
1.68174e-05
1.05306e-05
2.4594e-05
2.5299e-05
5.449e-06
6.73007e-05
4.58247e-06
4.69313e-06
6.46195e-05
5.63775e-06
5.92869e-06
3.90806e-05
6.98446e-06
7.92934e-05
5.78461e-05
3.52031e-06
0.000123688
1.79614e-05
4.55159e-05
8.99551e-06
3.82724e-05
0.000154555
0.000331103
6.74607e-06
0.000563204
7.10595e-06
5.93984e-05
6.58143e-05
1.36262e-05
0.000104854
0.000704015
1.11499e-05
0.000102816
8.49085e-06
2.07962e-05
0.000110653
9.1358e-06
4.83712e-05
0.000214078
0.000224613
0.000290267
0.00050664
9.34069e-05
5.63448e-05
0.000123616
9.65491e-05
0.000677415
0.00030452
3.23296e-05
3.27982e-05
3.28923e-05
4.21234e-05
4.15417e-05
3.16104e-05
5.49337e-05
0.000679165
0.000127961
0.000136195
8.21386e-06
3.76398e-05
0.000270998
2.86237e-05
4.32629e-05
0.000327418
2.79782e-05
2.70267e-05
5.31359e-06
3.62894e-05
7.06425e-05
1.55226e-05
4.16307e-06
5.71234e-05
5.68512e-06
5.59866e-06
1.32531e-05
1.55042e-05
2.52879e-05
4.68907e-06
5.87165e-06
2.28897e-05
5.69891e-05
6.04725e-06
7.9501e-06
0.00218733
7.37493e-06
1.54178e-05
9.97454e-06
1.88978e-05
5.55036e-06
5.55902e-05
9.57791e-06
6.88651e-05
3.27729e-05
3.40125e-05
2.85852e-05
6.02571e-06
8.85843e-06
3.90205e-05
0.000145584
0.00020812
0.00178898
3.19137e-05
3.85852e-05
9.47427e-06
0.00108057
2.53641e-05
0.000399089
0.00121529
5.03429e-05
8.47074e-05
4.51302e-06
4.42426e-05
5.5703e-06
1.93161e-05
1.21638e-05
0.000335891
1.07404e-05
0.000768576
0.000649089
0.000945776
5.22723e-05
0.000686915
0.0012399
0.000806411
6.16337e-05
4.84452e-05
0.000327296
0.000144671
1.02537e-05
0.000402853
0.000771551
8.32614e-05
0.000979829
0.000207211
0.000173718
1.12401e-05
0.000314188
0.000465264
0.00123909
0.000104397
0.00139554
0.000502912
0.000227555
1.53926e-05
0.00182246
0.000468633
0.000241188
0.000593118
0.000303788
4.56827e-05
5.82068e-05
4.23239e-05
0.000773836
0.000531696
8.15834e-05
8.22163e-05
0.000512754
7.18968e-05
8.18681e-06
0.000441078
0.00029943
0.000370689
3.48504e-05
0.000328796
0.00129545
0.00056645
1.96883e-05
0.00098096
0.000739569
7.73534e-05
0.000376308
0.000719719
0.000179191
0.000766293
4.78375e-05
2.63633e-05
0.000118225
0.000832412
2.61076e-05
0.000284709
0.00078364
0.000825703
0.000574372
7.06003e-05
3.80415e-05
0.00106651
0.000137785
0.00147905
6.61764e-05
0.000179841
0.000732003
6.85255e-05
0.000946756
0.000373414
0.00156597
0.000620536
0.00148602
0.000363013
1.52845e-05
8.9828e-06
0.00017684
0.000721847
0.00100532
0.000629066
1.82798e-05
0.000236887
0.000113265
6.23774e-05
0.000798536
9.48718e-05
0.000336691
3.99448e-05
0.000105442
0.000273622
0.000100692
0.000134834
0.000582809
5.44875e-05
0.000906704
0.000206896
0.000173591
3.29525e-05
0.000177031
0.000376401
0.00027268
0.0001672
1.57695e-05
5.6508e-05
3.87326e-05
0.000500546
6.61748e-05
0.000940639
0.000100912
0.000130527
0.00119853
0.000280476
0.000539741
0.000387564
0.00108839
0.000213211
0.000136141
0.000304838
0.000580779
3.56646e-05
0.000123273
9.9778e-06
0.000137013
0.000295912
0.00120476
0.00196559
0.000545838
4.11169e-05
5.26196e-05
0.000727716
0.000866019
0.00136299
0.000227732
7.91764e-06
0.000126614
9.63822e-05
1.07044e-05
3.07632e-05
0.000151355
0.00110329
2.04277e-05
1.15887e-05
0.000119999
1.14505e-05
0.00124186
0.00014196
1.16961e-05
6.37933e-05
0.000172056
1.6968e-05
0.00010311
0.00014138
0.00016637
0.000361328
1.09497e-05
0.000120373
0.00162805
0.000161964
0.000946242
0.000104717
0.000141046
0.000872108
0.000319452
0.000554645
0.000221163
0.000410709
0.000177364
0.000213812
0.00060366
0.000653571
0.000340254
0.000311421
0.00043765
0.00161446
0.00131749
5.91723e-06
3.97173e-06
5.82477e-05
0.00065252
4.54656e-05
2.11911e-05
0.000492764
0.000490176
0.000304928
0.000767486
0.000193814
0.000118285
0.000501964
9.706e-06
0.000777086
0.000415214
0.000264092
0.000219354
0.000731139
0.00112617
0.000906885
8.77766e-06
2.20174e-05
9.54755e-06
0.000230638
2.02021e-05
0.000166016
7.71569e-06
0.000369258
0.00013191
0.00101332
3.47694e-05
0.000375254
0.000278701
0.00010702
0.000226699
0.000132046
0.00164174
0.000417705
7.5689e-06
0.000181815
0.000158911
0.00153554
4.43615e-05
4.58519e-05
2.11128e-05
0.000149043
1.68844e-05
0.000970991
0.000267846
0.00113569
0.00154138
0.000948956
0.00017638
0.00161539
0.000875481
0.000879113
0.00180602
0.0011113
0.00178318
0.00126505
0.000197466
0.000867475
0.000224208
8.31357e-05
0.00165315
0.00108237
0.00149039
6.27344e-05
0.000118392
0.00145454
0.00158987
0.000279152
0.000332734
8.48276e-05
8.67226e-05
5.74474e-05
5.18167e-05
5.5465e-05
1.29949e-05
0.000799058
0.00024991
9.96885e-05
0.000185412
9.04891e-05
0.00118765
0.000762863
0.000549503
5.62967e-05
0.000137476
0.000963855
0.000667327
0.000437402
0.000481008
4.93176e-05
0.00139411
0.000105504
0.000208322
3.25579e-05
0.000173041
0.000322637
0.000225643
4.73294e-06
4.32541e-05
0.000854404
0.000197336
9.87781e-05
5.39165e-05
0.00106449
0.000689469
0.000113611
0.00137948
4.73682e-06
1.68698e-05
4.23931e-05
4.7438e-06
0.00150535
0.00041918
0.00141972
0.00125441
0.000144283
0.00080087
7.01494e-05
0.00013674
1.25255e-05
0.000267779
0.000355869
4.83504e-05
8.11328e-06
2.98627e-05
6.22184e-05
0.000798506
0.00165997
3.00756e-05
8.92485e-05
0.00172419
0.000825003
2.02548e-05
2.43216e-05
1.90702e-05
0.000923444
0.000179496
0.000156793
1.13943e-05
5.13126e-05
0.00128609
0.000483425
0.00157065
4.27054e-06
6.18122e-06
3.03193e-05
0.000198927
0.000494659
4.36254e-05
0.00153596
0.000464771
2.68055e-05
0.000678314
2.84555e-06
7.53632e-05
0.000112265
0.00140483
0.00155089
0.00105779
6.84375e-05
0.000903647
0.000971839
0.000100138
0.00143091
0.000459988
0.00101284
0.000190162
0.000160248
0.0014943
0.000901527
0.000736124
4.86813e-05
0.00101293
0.000276855
0.000203184
0.000482594
7.2728e-05
0.00164181
0.000129783
0.00167699
0.000684766
0.000184343
0.00010272
0.00126155
9.07433e-05
0.000284346
0.00012193
6.28536e-06
0.0012617
0.000701519
7.53872e-06
0.000621052
8.74766e-05
0.000574126
0.00102473
1.62002e-05
1.33551e-05
3.47819e-05
6.56456e-05
2.17338e-06
8.78363e-05
1.07628e-05
0.000536479
0.000498431
0.000122207
3.01689e-05
0.000221558
0.000114858
7.79147e-06
3.50564e-05
0.000151273
0.000897694
3.75777e-05
0.000127502
6.61076e-06
8.33091e-05
0.000512099
0.0014782
0.000352498
0.00020468
0.00196271
0.000125723
0.000112722
0.000199179
0.00107139
0.00144641
0.000510177
0.000981193
0.000121992
1.90556e-05
0.000995634
0.00138857
5.05346e-05
0.00030418
7.33955e-06
1.96666e-05
2.43871e-05
0.000101681
0.000189187
4.81859e-05
2.80475e-05
9.73203e-05
2.04247e-05
0.000150495
0.000134503
0.00127947
0.000766028
0.000798924
0.000350396
6.87908e-06
0.000495405
0.00116763
0.00117972
0.000659126
0.00105736
0.00107722
0.000724687
5.20014e-05
1.22695e-05
7.17783e-06
1.20474e-05
5.72448e-05
0.000654821
0.000168211
0.000944439
2.90623e-05
4.57508e-05
0.000685315
0.000342714
8.54523e-05
0.000952932
0.00149438
0.00135072
0.000312544
4.32923e-05
0.000102837
0.000507523
0.00066657
4.36421e-06
2.8601e-05
0.00036393
0.000518253
2.74087e-05
9.81514e-06
0.000113437
0.00086217
0.00111838
3.43247e-05
0.000119565
0.000799703
3.45268e-05
4.04257e-05
0.000681802
9.8384e-05
9.97545e-05
1.45442e-05
0.000634713
0.00031395
0.000832465
0.000304611
3.36015e-05
0.000187587
2.92399e-05
0.00083285
0.00113991
0.000147794
0.000274035
0.00135986
7.95889e-05
0.000153054
3.14539e-05
0.000223816
0.00066996
0.00123035
0.000190472
6.96038e-05
3.8696e-05
2.48168e-05
1.55929e-05
0.000907872
0.000737553
0.00163935
0.000782646
1.08345e-05
5.98538e-06
0.000119612
0.00113941
0.00125689
0.000156053
5.75488e-05
3.98994e-05
6.4567e-05
7.12388e-06
3.27775e-05
0.000158576
0.000207459
9.34566e-05
0.000157844
0.000421662
6.19247e-05
3.80543e-05
0.000155439
0.0017402
0.00144076
0.000121224
7.42398e-06
9.30783e-05
3.37795e-05
2.68619e-05
0.000688677
7.42646e-06
0.000540927
7.60248e-06
8.55697e-06
0.000200669
0.000158645
0.000350069
9.96114e-05
0.000750343
0.000671068
0.000862332
5.16247e-05
0.000188558
0.000139694
0.000133394
0.000302694
0.000118431
0.000364635
0.000282892
1.8009e-05
2.57089e-05
1.78009e-05
2.22033e-05
0.000331839
3.8847e-06
0.000817757
5.56429e-05
7.64564e-05
0.000137493
0.000359625
0.000223485
0.00129517
0.000397126
0.00014768
0.00151544
9.35258e-05
0.000162744
7.36168e-05
0.000101917
0.000166786
0.000601197
7.67138e-06
1.04536e-05
8.45348e-05
0.000597177
1.13013e-05
3.7179e-06
6.94636e-05
5.54568e-05
0.000189103
0.000154236
4.31345e-07
0.00106248
5.29138e-05
0.000736737
0.000514385
5.21514e-05
0.000410933
5.50466e-05
7.56321e-05
0.000291936
3.40813e-05
0.000367055
4.16066e-07
0.000115519
0.0011976
9.36274e-05
4.25918e-06
2.81166e-06
0.000250787
4.16654e-05
3.16725e-05
0.000232418
8.00472e-05
3.28334e-05
2.22271e-05
7.67067e-05
6.95011e-06
3.61068e-06
9.53967e-05
0.00010945
9.65988e-06
0.00034291
3.56864e-05
3.24737e-06
1.34231e-06
0.000908199
0.00103975
6.03659e-05
9.20274e-05
0.000288353
0.000549218
0.000668783
0.000255278
0.000742614
0.000431496
4.8218e-05
0.000598449
0.000909061
0.000588018
0.00151586
0.00173704
0.00133629
0.000157046
0.000269165
0.00215293
0.000156341
6.907e-06
0.000416859
0.00145758
0.0004913