/*--------------------------------*- C++ -*----------------------------------*\
| =========                 |                                                 |
| \\      /  F ield         | OpenFOAM: The Open Source CFD Toolbox           |
|  \\    /   O peration     | Version:  2412                                  |
|   \\  /    A nd           | Website:  www.openfoam.com                      |
|    \\/     M anipulation  |                                                 |
\*---------------------------------------------------------------------------*/
FoamFile
{
    version     2.0;
    format      ascii;
    arch        "LSB;label=32;scalar=64";
    class       volScalarField;
    location    "100";
    object      omega;
}
// * * * * * * * * * * * * * * * * * * * * * * * * * * * * * * * * * * * * * //

dimensions      [0 0 -1 0 0 0 0];

internalField   nonuniform List<scalar> 
65206
(
24519.3
6467.83
18206.7
5777.94
18468.1
10676.4
95353.2
22256.8
4645.07
4900.03
11453.4
16845.5
70428
92516.6
16106.3
103613
24898.5
28368.9
22801.2
12868.8
5768.68
20773.1
14222.3
5404.76
26822.9
22862.2
31000.6
8049.26
13680
23548.4
20210.5
12411.3
12633.7
16898.5
12440.8
9844.54
11668.2
20817.1
14225.1
15286.7
8555.92
5889.14
13863.6
5049.67
13758.5
7978.5
12692.1
38817.3
36513.8
71099.4
29182.6
19539.7
6061.12
5759.39
13147.5
4998.42
19062.3
27103.5
23899.3
25040.2
25955.6
32911.9
14886.9
28984.1
6008.7
55197.4
26715.1
33965.7
21712.4
27582
32632
6141.35
6147.56
10493
21156.1
58700.1
17276.2
41533.1
37086.6
13001.6
49440.3
22800.9
38049.9
40891.8
116203
14369.8
12028.4
18753.4
96328.3
18610.3
27196.5
26791.5
5502.54
37029.4
35311.2
17332.4
25010.9
39216.4
5806.78
102143
28488.2
19533.6
22317.9
5476.06
60973.2
16013.9
14489.2
33611.4
7498.02
33915.4
5057.68
24900.6
7333.55
20652
11923
8241.17
8173.88
23934.7
19651
24279.8
6903.87
21239.6
24660.1
37780.2
26078.5
21082.2
28561.5
9210.42
6209.46
33649.6
9724.75
17216.5
5747.24
6873.72
14371
13111.8
7845.48
57003.1
11363
12318.8
32434.7
5725.04
22444.6
26021.6
4873.89
5585.82
25548.8
20848.6
25584.8
6442.66
7329.55
20902
12654.8
11204.4
14688.1
9832.78
11912.8
15405.6
16074.6
11362.3
23755.3
11817.4
7127.97
15299.5
9785.45
11732.1
86412.9
35165.9
25392.2
11790.1
14194.6
8094.79
6505.89
9300.76
22643.7
14740
9671.31
13352.1
18287.3
7013.81
14694.7
4756.29
22416.7
5534.59
22509.3
24428.9
10642.3
17453.2
13358.4
5657.59
9245.3
14226.8
16109.3
22018.8
8329.4
9240.05
11008
13556.6
6156.21
8302.47
13616.6
12373.7
10996.8
14149.7
12969.9
9359.32
7814.99
11786.7
12530.1
9615.63
8853.08
10186.3
6317.01
13982.6
5469.4
10299.5
6961.32
15378.4
10842.3
7263.9
31416.9
15975.5
18844.2
28926.8
11645.2
10279.4
27736.5
22632.1
7926.62
9910.51
21890
17251.5
8197.35
5910.62
9041.99
20948.3
6785.62
8100.76
9945.42
20053.6
12355.5
9598.63
13736.1
12376.5
15309.2
4074.11
13382.6
5603.19
6723.99
5894.02
23599.3
10281
17546.1
5835.81
18500.4
5759.43
15041.2
10354.6
7957.13
6858.77
13533.2
4839.11
8304.03
6223.98
8093.41
16315.9
6879.68
5565.25
21210.4
6826.62
12252.7
6445.92
9602.94
15746
14428.5
24455.1
7698.62
15608
5196.31
22131.1
19778.1
12717.3
14344.2
7359.55
5586.46
5654.02
7728.91
36179.6
11569.6
15849.4
7076.04
15659.5
5275.35
5302.82
26032.7
5090.31
38119.4
6850.95
5621.22
7556.75
29015.9
6719.76
11682.4
22183.4
4507.77
113356
9741.48
29655.2
5930.03
18031.9
10614.3
9329.75
17540.4
15841.8
14982.5
8657.62
7196.94
9386.9
4327.3
6614.02
20671.6
29989.2
29667.2
7628.87
10342.3
9756.3
6371.55
6046.06
5362.99
20579.6
6542.09
20944.9
5135.21
3679.63
29232.7
7797.27
7053.03
12661.2
5332.21
8378.86
22418.7
5736.3
7435.26
11751.8
6268.1
6657.25
19049.7
5292.14
11620.2
7633.94
10871.6
5171.78
5625.82
6945.4
5501.64
15302.9
10303.1
6946.58
4348.79
4102.24
11877.9
26902.2
7852.18
6951.48
4015.45
20624.9
7366.16
12321.4
11251.7
13299.8
5563.04
6805.71
10570
6260.52
5125.68
7819.74
6991.69
5462.05
6301.41
14858
6291.29
17800.5
6485.84
6656.07
8113.33
9998.8
15723.9
12396.5
71261.4
19656.2
7790.44
6756.89
10690.2
4075.9
10296.3
8381.04
6541.43
4648.97
4645.26
4152.21
7648.78
4413.08
7269.49
6835.93
4291.25
18491.5
4385.05
6568.26
4963.05
13486.1
5984.25
4293.88
6980.93
5172.44
5712.62
18051.8
5601.64
5564.63
5595.11
5424.08
4610.43
5962.22
10953.5
18175.1
4586.56
11209.7
3946
23064
21529.7
10622.1
5774.29
5182.79
14904
15526
6831.81
7041.14
12394.5
7706.95
14177.6
5950.89
6432.81
6832.31
7107.76
6068.93
6145.71
9577.15
6607.8
5499.04
5961.65
27185.5
9379.49
7662.23
5520.84
6103.31
7494.63
5597.96
6103.15
7613.76
7407.41
4723.89
6878.45
5991.53
4988.11
10285.3
7606.02
6414.53
19583.1
6840.44
22657.2
6965.69
22140.4
4103.1
5339.6
7636.54
53846.8
5712.15
8213.79
12643.1
5607.2
9029.93
12372.9
5909.26
19187
7831.46
9943
9857.42
7000.33
8816.85
6371.92
14206.3
5372.52
9714.81
10629.8
5607
6160.51
12551.2
13404.8
8419.88
9946.95
15720.2
17535.5
11396.9
7024.42
5789.82
5875.22
12320.3
5283.36
13579.5
5553.08
7904.92
9959.37
8103.95
4317.48
17568.2
12715.9
8065.88
6116.45
12304.5
6473.22
6080.19
7026.46
7561.98
7255.2
5050.7
12967.9
6205.26
4657.43
7228.91
5353.91
6502.2
13492.9
11211
7250.04
5774.52
3735.69
6637.13
24030.4
7310.27
6042.23
7838.82
5606.97
10887.3
6009.98
24390
17334.5
5844.3
7804.83
5160.82
7433.88
7108.87
14639.2
6392.8
6688.63
10453.6
14085.4
10976.4
8476.95
6165.76
18398.5
17477.2
5418.37
3839.75
13595.7
24965.7
15105.3
12448.2
5257.01
17371.4
14757.3
14247.3
7892.64
5523.12
6601.21
10470.1
13997.1
8474.69
7291.27
12579.5
7726.73
19701.6
6299.13
5892.97
8987.29
7518.93
10620.9
7450.17
5381.81
9013.69
7417.23
11789
12265.7
5779.54
10822.4
6281.38
7001.71
11941.9
4788.84
5271.96
6501.68
4854.22
6544.14
7745.48
12349.4
8143.45
12669.3
16115.4
24073.8
9921.92
8579.36
8386.76
9365.13
6454.27
12488
7976.13
7951.13
9271.61
16724.5
15478.9
6997.04
17406.7
7906.22
5541.39
7829.58
5725.69
33927.4
6927.87
23049.3
12431.4
5780.92
6274.28
6965.27
7393.82
16301
16882
13977.1
7736.95
7887.16
8492.43
5807.68
5372.88
4267.83
5722.32
18723.8
16751
7933.06
3695.45
6966.19
10781.2
11511.8
5217.39
7570.01
4858.37
18776.1
8085.44
10638.6
5973.16
7336.28
55950.4
6331.36
8672.39
34206.8
5681.16
6829.54
17688.2
15709.9
6976.93
21773.6
6621.65
7815.15
6274.13
8586.46
4977.13
6244.26
6168.33
8628.6
5075.65
21938.7
11536.4
6017.82
12905
6847.17
11301.3
10525
5412.93
11032.3
7147.36
8372.18
9009.28
12511.3
6587.57
7832.53
12414.3
8728.68
28745.8
14739.5
12401.8
5102.5
6312.18
11316
5406.29
11473.6
7580.47
7071.6
7003.69
7231.48
9962.74
13830.7
5477.12
7362.84
14261.8
5012.31
5978.18
5519.39
18391.8
4932.03
19768.7
19985.5
15895
6987.9
31837.8
12570.7
31739.5
5464.18
12169.8
4799.42
18087.3
13126.5
11475.1
6817.16
6478.35
6480.06
6944.76
6035.02
4960.83
7555.91
9848.8
8544.3
16296.1
22206.5
12948.8
4163.86
7128.7
16682.7
5449.98
10939.3
20330.8
25193.4
5849.49
6014.13
7231.25
8938.46
8141.42
27351.4
23400.8
8468.51
6966.35
23899.3
26894.3
6843.66
7038.86
7080.19
16789.2
4777.38
7343.02
7486.9
5701.82
4398.5
4993.36
6213.48
11125.6
9738.19
6417.89
6632.36
6304.61
6541.34
6548.12
15209.3
8607.36
4829.57
5485.17
7637.25
7476.55
12464.8
11515.8
6414.19
7435.36
25321.6
6259.86
10605.8
13858.1
3682.82
27531.6
21696.7
22455.2
12172
17699.3
5920.09
7408.42
10199.4
10036
20680.5
11679.1
7804.83
29173.9
6880.55
13006.2
4887.31
6334.07
24887.1
11281.7
8936.27
9477.62
12548.6
6126.05
7825.54
5595.17
6632.51
13773.7
5099.87
4230.2
5764.65
34892.7
13668.9
4293.26
9912.26
4921.49
18222.3
6197.78
5490.06
6456.64
3518.03
16060.9
5054.14
40700.8
5104.63
7068.71
18249.2
6619.7
5295.04
4940.04
4171.55
6218.57
4680.34
6841.52
22923.1
9473.15
5911.2
10858.5
7336.04
6589.06
52721.6
6088.6
4551.31
7325.29
6801.23
9132.2
5550.02
4360.8
7515.79
6361.37
6231.24
5532.84
7471.68
3296.48
15196.7
5110.42
11216.9
10033.1
11778.1
3779.07
7909.82
15219
5935.71
5205.7
21358.3
6198.93
12896.9
10678.7
7250.76
7175.04
6708.11
8038.95
7021.59
4214.42
11605.5
14496
6183.91
14780.3
5989.03
27671.3
11247.7
20892.6
12168.4
12182.7
12838.3
7709.84
4930.39
5919.17
10244.5
18792.2
6672.14
13387.6
6197.55
8471.67
10157.6
5877.81
9336.85
7808.72
8344.81
10762.1
7369.86
7283.96
20607.5
6002.29
4426.03
5791.48
9099.91
8251.03
9703.76
18628.2
42372.9
11984.4
17988.3
6326.83
7388.99
8906.17
6385.14
8596.48
9176.79
9791.62
5759.05
6140.15
6079.1
5144.44
5387.73
10918.8
13560.7
4256.58
6561.33
13752.8
11258.7
4597.65
7459.96
13345.7
6790.06
9929.64
6554.42
7936.94
7453.64
33268
17271.7
14585.7
11963.7
11960.1
10499.2
17317.6
6916.85
17433.8
6617.93
11654.5
22993.4
7940.58
10177.3
5024.53
10656.2
36968.9
13096.5
7542.71
5893.82
7124
13062.9
11896.3
7111.7
8646.65
27818.9
44173.5
5655.85
15320.5
8840.53
6927.59
5154.3
5322.79
5111.6
11684.9
7411.96
18524.7
6652.95
8371.73
6996.34
7032.19
7472.45
8389.1
4778.17
6844.78
4850.69
66754.6
13960.8
5087.14
7544.65
6574.3
45662.9
72519.2
32138.4
7050.94
6599.07
4420.42
8931.68
19298
5410.14
25789.7
9226.03
14678.7
8190.21
20527.2
10667.7
7759.43
7317.05
4576.72
6422.61
7076.37
5837.66
23260.8
10066
72069.5
4973.8
5669.89
11755.1
15996.3
15885.7
9952
7274.58
22463.7
4996.34
5216.39
6360.99
5104.8
26770.9
5293.29
4473.27
13753.7
11255.7
12281.2
16510.3
10243.5
11356.7
5115.03
16441.2
9044.66
13981.4
8360.91
13071.5
5714.06
8124.97
17457.3
13766.2
8591.07
8087.41
6399.96
27768.7
16818.1
15232.4
13082.4
5885.61
13253.9
19355.1
10907.6
10583.1
11770.4
20146
13348.8
7934.87
9148.4
18127
19545.8
10346.1
19221.9
19334.6
16661.2
25371.3
11836.2
8894.93
10614.9
10967.5
37345
5670.49
18937.4
18803.1
18764.4
7816.44
16052.8
77166.1
46041.2
24537.6
40976.2
7640.84
46447.8
90584.5
23766.6
15343.3
20892.4
14773.5
20045.5
20139
14857.3
30468.6
12447.6
13080.7
26546.5
22238.9
91040.2
47833.3
89474.2
13807.4
47970.4
17322.9
14056.8
17543.2
23865.3
12452.5
6209.94
15836.4
6174.78
13397.3
12549.9
9083.23
8530.78
19410.8
7260.38
27782.2
6800.13
17222.6
24617.4
4287.96
15902.4
14334.5
31319.8
15644.6
36204
22179.1
63049.9
9097.52
39383.8
14963.4
4836.26
30641.2
13183.2
31279.2
64629.9
10648.5
20825.9
9298.09
10171
10498.4
7587.52
4389.22
14244.4
15002.1
9959.32
14996.1
31779.9
22001.8
27355.4
68556.1
25166.7
30479.1
16225.8
7105.11
12113.9
22400.7
22368.2
39836.2
22641.9
9812.92
14339.8
18522.8
23286.2
20456.8
22974.3
12519.7
38289.2
51122.4
17267.1
8846.56
49476.6
4356.81
27905.3
8450.51
14622.4
9910.54
5878.75
11576.4
8953.82
18830.7
12588.7
13584.1
30218.6
24928.8
14396.6
11329.3
6423.19
6479.18
19456.4
22820.2
19580.5
8144.38
6248.65
4780.52
9401.35
16769.5
11576.7
8815.27
5962.51
11855
13150.5
32773.9
6812.28
5423.26
7900.29
15276.9
14732.2
26339.3
13987
6143.06
10658.4
16236.7
17863.2
25054.4
11955.3
15728.1
6387.24
5685.42
12969.2
7903.55
12382.1
7260.91
18790.1
5363.09
9335.92
5600.96
15856.4
7126.93
16091.9
17079.2
5744
5096.22
12419.6
65608.2
22957
26250.2
11148.9
14431.1
16897.6
10230.5
7460.67
6173.78
8679.74
8724.98
5739.57
6212.05
6945.13
11232.4
16866.9
4356.23
14066.3
8263.9
6498.74
5368.86
38455.1
6288.29
12988.5
10417.8
5450.48
4879.25
6224.65
7572.93
18661.8
8853.39
5619.29
5027.59
8474.75
5208.12
5373.12
6866.72
10368.8
10356.7
7056.47
7756.32
7897.34
8025.22
7253.11
6217.81
5777.71
12227.2
6685.89
6372.95
16016.1
9883.8
6401.85
7898.74
6735.52
11288.3
13086
5280.25
6830.87
7975.28
15669.3
8821.5
12560.4
18969.2
13475
7792.4
13696.4
4686.73
10559.8
13184.6
9437.55
9067.45
11431.3
39650
8851.51
111610
14566.1
11038.1
4966.43
13187.8
10111.7
5289.39
92432.6
4082.92
7081.05
6505.42
8439.88
4673.58
12858.5
10261.4
7096.22
13791.1
15279.6
17600.8
12736.5
14791.5
20464.2
4536.52
15763.1
5039.23
8384.97
9950.91
10920.6
13554.7
6467.99
22271.4
8244.08
9982.61
14175.5
14293.5
7311.22
8936.99
12261.9
18574.8
35141.2
12314.4
6163.48
14415.4
12120.6
6221.71
22560.9
22164.8
13004.3
9416.33
27441.9
20225.4
29023.7
13550.6
12233.7
11081.8
32825.7
27843.9
15553.6
15737.6
15507
30720.8
18093.1
13239.3
23860.1
33561.1
11986.6
15886.1
7407.91
47710.5
42592
29916.4
15597.8
8717.4
9752.92
13681.6
18665.3
9332.44
12326.8
13068.9
16871
18106.9
11232
29211
15110.2
21091.3
28009
5873.1
7078.25
29294.9
19093.6
29059.9
7194.36
8639.05
13956.8
18801.3
28726.4
30407.5
13278.5
17968.2
6691.57
10516.3
16402.6
27063.7
24328.6
15903
8382.35
23951.2
15311.4
13622
15951.5
49328.4
26192
23288.5
19913.2
6312.85
13874.4
12053.1
12628.6
14151.6
18049.2
11373.2
12316.8
23864.5
22154.3
4654.63
22440.9
17582.2
24111
6852.5
14443.9
22310.1
20645.5
49669.3
13681.6
7525.61
19044.1
13322.4
8662.39
9823.11
11833.2
14622
10642.3
6940.61
33486.8
12666.3
23259.4
13376.2
12900.4
12084.6
23892.3
7160.91
21376.2
9362.19
10995
9718.52
21596.9
34678
23618.9
25076.6
28822.6
5718.78
12081.6
9950.47
15210.5
17506.1
15196.6
5048.02
12499.1
13528.5
12733.7
11275.7
13840.4
7000.77
13481.1
13116.9
35837.9
18745.8
12992.5
121484
55139.6
14449.4
11692.1
16537.3
7752.3
15005
12162.9
24168
28010.9
8144.06
23877.8
24946.2
6072.67
19029.1
9068.48
12598.4
13712.4
11379.3
16430.3
16163.1
14527.5
10318.3
13403.6
16531.3
49544.6
8073.53
6718.8
11825.9
44679.9
14917.7
9776.96
7515
4997.67
5268.7
13185.6
10032.1
6697.39
13951.4
12916.7
11300.6
16502.5
14763.9
11723.1
12444.3
6697.64
6430.33
16850.3
5240.3
7196.57
130070
15409.8
44848.6
11976.3
30559.1
28193.3
6452.85
8217.26
35914.8
34006.1
19951.1
20011.6
41709.4
19492.8
11031.5
12209.5
29352.9
16921.1
13451.1
8433.85
7213.48
6328.91
13650.3
19533.3
20035.9
27940
10323
13758.2
10135.3
6878.06
13881.6
7916.07
5248.5
3743.56
10786
27968.2
25798.6
5112.52
6692.76
11345.6
41429
26036.6
6868.72
14788.1
14963.6
6897.72
10257.3
14630.5
10896.3
5985.28
13067
11808.5
7850.4
22360.2
9694.49
13356.4
5506.32
10589.1
11371
57147.9
5784.27
18251.1
7792.98
10780.7
13178.5
13482
17639.4
5118.05
4720.76
21409.8
28365
6495.44
9837.3
5506.79
7268.28
5397.19
27774.3
4002.54
6705.01
7564.45
7341.04
10786.8
10755.3
6915.37
12080.3
9475.61
6361.87
10072.5
17467
9584.02
11842.8
9937.03
11274.9
6661.2
11647.2
13274.8
15079.6
5432.24
17773.7
13111.4
14554.3
7319.76
25340.3
5614.25
7860.55
10529.2
5900.85
5987.97
25915.6
7033.25
5006.47
8898.44
7355.74
51899.5
18442.9
21338.2
20246.1
9968.21
7555.42
10800.9
11941.2
7540.38
6942.95
9154.17
12102.7
5464.27
6698.36
7426.22
6354.12
3713.11
10568
10958.8
42465.4
10911.2
6939.94
6778.94
11715.5
20063.5
6658.64
7365.57
5952.13
4565.18
14872.6
24597.7
13042.8
11179.8
12898.1
27449.6
4106.95
5249.62
5234.83
20098.1
40955.7
37642.4
14498.9
84302.9
5915.84
6141.4
5817.47
12895.5
47297
6310.12
59987.3
56579.2
15147
16249.6
11083.1
28427.6
24532.5
9264.73
26952.2
32446.1
11218.9
25678.8
27436.8
15603.7
48552.1
9155.12
10834.6
85987.3
8424.9
14198.7
11550.7
10693.9
13772.5
9800.34
6276.6
11295.9
9591.07
13487.6
11174.2
14365.7
10724.5
8772.16
5110.69
17642.3
7149.9
9515.08
8509.18
8411.71
10686.6
17871.2
16645.3
7493.07
5862.19
6329.53
8931.08
10484.1
15164.9
8204.3
9966.8
5800.98
22275.7
22317.3
13224.2
12564.1
13153.5
8699.86
25446.3
7841.01
6666.73
15685.4
11548.2
14043.8
10523.3
5822.46
7920.36
4551.21
24874.3
25200.5
27223.7
15262.3
7103.88
6939.08
14582.7
10530.9
26870.2
23712.9
58196.8
7470.91
25792.6
26028.6
27036.3
33204.5
12450.9
15005.2
14979.3
14728.6
32961.1
25970.7
13419.7
7645.92
25467.5
17899.6
11211.7
5175.47
16299.5
16572.9
19905.8
13957.7
11601.8
14494.9
23040.3
8448.29
7167.6
50857
6489.75
10600
3702.54
7999.31
6446.07
15159.8
7310.16
10269.7
37839.3
8009.88
28183.1
16020.5
23243
9163.39
11273.5
6369.11
6094.01
31815.4
11140.3
3249.22
27876.2
8929.01
30125.1
43622.6
7150.45
9109.4
70651.4
8829.77
6361.88
7493.93
9826.48
13121.1
11000.5
16905.3
6042.5
6638.05
4337.71
10747.2
8623.78
6284.45
5899.06
16788.7
16084.9
5029.04
6850.87
11039.8
6234.06
11801.5
9537.44
7698.78
5784.99
5754.14
11484.8
9021.24
8010.35
12317.6
17678
5655.21
7287.5
5786.41
12927.4
6369.59
7408.52
8027.36
17035.9
8352.65
8165.99
28888.3
7266.55
8366.84
8514.51
6134.03
8464.94
7223.2
9612.01
3374.1
20464.2
12743.6
3768.26
5959.44
8000.73
26539
13154.8
25624.7
20667
5947.49
30634
8837.98
8443.42
10865.2
3431.84
6251.07
3647.06
6651.62
5006.14
12617.9
17869.1
6695.96
17659.5
9502.09
8044.8
6515.38
18074.7
7207.37
54562.6
40438.7
4123.37
20946.6
12462.3
14565.7
20317.4
10240.4
44551
39030.9
9594.15
30513
21138.9
9192.24
17087.2
12816.4
25064.6
13928.7
10180.3
12963.6
9908.54
8537.66
8831.26
5448.13
7396.26
8072.28
17113.1
22675.7
5754.09
11404.5
8866.91
7246.53
7919.1
22193.5
38132.5
28290.2
6251.08
5010.8
19605.9
32786
10624.3
27923.8
5582.76
10932
8659.98
11059.3
19071.5
5887.45
7563.93
4758.83
10415.4
37028.1
13330.5
39996.8
56168.3
46141.1
16767.8
7006.5
9649.01
5942.85
10812.8
32997.8
4860.87
11735.2
19569.5
12543.9
5609.67
16951.1
20021.7
10056.2
11305.6
21528.6
16809.9
11871.7
4930.76
31469.7
5116.51
27315.5
19894.3
4632.86
5276.4
10464.3
12039.7
13130.5
21145.7
15541.3
8843.78
11078.3
63563.6
24408
5127.58
3725.06
3344.61
23542.7
18137.4
17391.6
18004.6
10065.6
70278.5
21347.6
12742.6
12504.6
14307
14770.6
16000.7
12577.3
43504.3
10668.9
9954.54
21947.2
15394.1
8730.2
7998.01
8561.52
32171.2
8930.94
32347.7
9081.39
16955.1
8798.69
30525.7
6690.54
9014.38
4596.29
15903.9
24696.2
28574.7
24073.4
12703.8
42777
4878.29
33213.8
137695
40391.7
9053.56
5633.35
13837.3
14196.4
9715.64
4029.63
11787.7
6990.24
12617.4
6031.32
6206.25
4747.89
15422.6
4023.93
6973.86
20814.3
12456.9
9899.98
8357.54
5328.92
23445.6
3641.18
3540.49
7847.63
5650.15
7649.42
4318.38
20292.2
15389.5
4692.19
6503.7
13653.9
25145.9
11979.1
10898.9
7174.61
11032.4
10502.4
7646.16
10190.4
14119
11467.2
5259.56
12851
6665.11
6498.63
10214.1
16473.3
14622.5
7349.99
19064.6
13804.6
6724.23
24718.7
5674.38
19209.7
17375.8
24117.9
18837.3
11286.1
26043.3
50047.4
21622.2
7094.74
17077.2
6460.95
13020
7330.09
5307.35
12351
11580.3
30880.4
41209.4
19056.1
49074.2
14716.2
7802.14
5420.45
4218.85
6731.32
10645.8
19612.8
41857.2
33671.7
14325.2
7929.73
30825.5
30278
18263.4
16836.9
13385.1
5521.93
89961.2
12709.6
5338.9
14448.9
14865.4
30443.9
41990.9
6834.08
7463.88
8653.3
17276.4
19465.7
5685.73
5909.34
4721.38
5807.92
7808.78
5225.74
29917.6
10320.2
15145.5
4955.73
9689.27
8608.53
10605.1
42182.8
7986.63
13804.6
4961.83
4812.71
5112.87
24567.2
11634
8700.11
13531
5085.63
10667.9
10497.8
17175.7
15502.1
6516.56
9067.49
4551.67
20717.1
6827.36
22331.4
12162.7
8033.01
23307.8
13470.9
46144.8
4689.11
5331.65
23307.3
52908.2
4061.58
16612.3
12135.7
9786.28
10877.9
9747.05
11492.2
8661.22
4969.63
12575.2
8096.71
6479.94
10056.5
13261.7
7900.14
8114.81
28568.9
12894.4
8749.86
6333.87
4937.22
45851.6
11681.8
6679.01
56293.7
87570.5
37079.6
39792.5
4011.4
53027.2
11454.5
11927.2
13291.8
55107.3
7326.86
32761.4
14640.8
17844.1
38347.3
28415
9578.39
9927.28
5806.31
9972.62
14314.7
43905
25573.6
6917.42
8279.99
30450.8
15590.9
14291.5
15029.6
14671.7
12344.8
6793.59
11011.4
17410.8
14764.8
15776.3
9124.81
7803.34
4248.95
4755.38
4837.29
17351.6
40858.5
7668.21
7307.93
7552.39
5885.23
6724.07
5222.86
7628.41
13434.3
14494.7
8810.79
8953.86
5662.56
7134.07
5066.88
9226.65
54106.1
27567.1
10856.5
11374.5
8816.39
5635.63
5225.78
3936.85
8118.16
6957.29
17163.6
5760.2
12228.5
73367.8
6408.68
3808.28
3518.49
6731.81
10308.2
16442.8
6944.22
5608.44
12015.2
26134.5
3066.63
12068.6
9348.28
3447.32
44678.1
52815.4
16216.5
9593.09
11760.2
5255.97
11223.3
29392.8
7086.54
26346.6
9342.06
4058.87
17955.7
9751.38
9721.02
7939.95
12142.9
28956.5
17688.7
12631.1
5658.65
13429.4
17982.6
14494.4
25048.9
16380.8
7219.54
24599.1
12187
8393.09
14726.5
18534.2
11845.5
9232.52
5474.06
20099.5
11842.4
37224.3
40988.9
10367.8
15441.2
20809.4
8658.79
7137.69
7846.07
6733.89
19607.5
23620.4
12298.5
7482.25
5536.25
8991.82
21523.7
9201.62
7901.15
16737.3
7980.46
24587.4
5128.02
39220.1
32363.8
10596.5
30304.3
11596.7
12118.3
5714.92
14004.8
9190.97
10335.4
17494.4
22079.1
23420.5
13542.5
16653.3
12020.5
14045.3
20432.7
12816.6
10899.6
26439.5
6919.92
30889.9
6252.77
24102.9
14172
14167.3
15039.1
8137.34
21765.2
16774.6
10790.4
5926.46
11699.8
28292
9233.2
18039.5
23486
6130.62
31143.9
46930.8
6552.99
4242.47
44483.6
10763.5
8629.18
14760.3
16777.1
16148
19109.3
6519.38
7468.03
7049.4
10845.9
20075.7
9661.9
24155.7
29603.1
24551.9
5042.76
9290.48
34305.9
12802.3
6824.57
16647.4
20489.7
11864
3829.5
11535.5
9359.75
4869.31
9014.93
9536.34
7578.55
4884.52
13185.5
55229
14094.1
10596.9
66352.5
11361
13384.5
38681.2
64090.1
8857.44
8813.53
9572.44
19742.8
10477.4
11934.1
7404.75
36723.1
6262.53
12985.9
19311.1
17436
6820.07
4368.34
5153.58
6183.44
6299.31
194449
159846
12412.8
42587.4
12500.1
42139.5
4546.16
10099.9
96857.1
16466.6
16915.4
6807.96
8504.31
7037.26
7037.33
7810.01
35133.2
13121.3
34714.1
38671.4
44604.2
31666.2
7465.96
6910.84
11294.6
19538.8
5237.89
10796.7
45296.9
20999.9
17530.6
5821.58
10916.2
7351.81
13136.2
18397.1
11953.5
8672.16
8042.03
3749.31
7791.77
36307.9
12538.9
14982.9
24445.8
9143.9
9880.29
10344
4583.27
6673.23
56819.7
52665.9
6781.55
7746.14
15056.1
22898.3
12197.9
16589.9
8854.45
5623.65
4522.6
8102.7
31888.4
6786.93
14580.7
17669.7
11430.1
9629.66
10592.5
8889.04
4971.48
20538.5
16254.8
12337.2
23505.6
15095.8
30704.5
12973.4
25704.5
8854
44307
10789.4
8862.39
10378.3
15707.6
30351.6
66161.8
13122.3
45532.6
4082.95
20895.7
10831.1
5822.35
17605.3
7462.43
6241.11
12827.2
24923.5
12208.8
28239.1
17503.3
17287.1
21128.8
6330.21
10468.5
7804.05
4634.5
14347.3
86592.6
10382.5
25988.5
10333.6
16567.2
7912.83
8528.35
9024.44
8061.29
5798.12
6099.69
8847.02
14265.4
10494.4
38309.4
5343.18
8483.15
16031.1
17123
11475.4
31006
6372.44
60498.9
8641.46
6558.71
12981
9577.79
17465.8
13983.6
21179.9
11159.5
35638
18283.7
4758.06
6123.02
23459.6
38385.3
21680.2
24694.6
11115.3
19621.6
13251.3
5806.29
20965.2
27331.2
9054.1
22319
55552.3
5806.85
8805.14
16908.5
10683.3
6952.85
16822.1
7134.11
5116.95
7164.41
17964.3
30300.3
13564.6
16282.1
19076.3
26061.3
4634.95
10897.1
16764
16792.8
7248.51
13164.8
13914.1
6667.93
6101.2
9987.15
47774.5
19026
5503.87
10401.5
32457.9
9133.68
10576.8
6366.88
13761.8
20911.2
12887.4
17512.1
18689.6
7044.62
3160.08
5826.75
6668.7
11761.4
24726.8
7092.97
5627.64
5914.93
12432.1
4801.57
18049.8
9960.36
33228.5
12963.4
48945.8
17480.2
15577
34919.6
20128.8
54561.7
5533.17
22562.2
16595.6
9303.14
6448.81
6941.12
5126.08
6523.19
6266.94
6004.58
8184.58
5322.08
4346.92
50704.6
18659
10326.5
31189.2
6243.21
7046.33
6911.48
11889.2
5704.74
32356
6472.16
8025.99
76272.6
28646.5
14325
11789
17102.8
4290.76
9866.89
14960.1
32561
50983.6
19177.8
11596.3
17513.6
27199.2
15093.6
19214.4
13336
10363.1
9567.78
7574.67
10391.4
26770.4
48683.2
14692.4
5723.6
14057.8
67411.9
69274.2
5612.46
18695.1
22399.6
4931.19
16561.1
24768.8
20920.3
15173
17331.6
10640.1
25271.4
5923.91
47329.3
22083.7
43837.8
8244.14
6833.96
16137.1
6341.53
14634.4
6593.94
18900.7
9389.5
16472.7
9912.07
17612.5
25205.5
17188.5
24538.9
10913.1
17647
8571.54
10029.2
17223
25520.7
7738.67
22385.3
16195.7
5584.73
10483.1
4619.16
10528.6
20240.3
25627.6
14706.9
3621.77
6680.79
15010.2
25774.1
38362.4
21583.2
16627.5
7779.01
5713.12
14576.3
7853.24
6933.8
3878.16
5737.65
20840.5
13831.6
20221.5
10483.8
7593.31
5973.57
16584.8
8425.31
27583.4
10008.7
57874.3
14835.7
46547
8502.85
16614.9
15270.1
22767.2
4708.11
6733.9
21979.4
43358.6
7085.7
3731.17
10688.4
12933.1
9067.23
5881.31
5903.96
12534.6
16850.6
35910.3
15972.4
13399.3
9831.53
6270.69
5401.04
11511.5
21917.2
8771.89
33122.8
21163.4
120214
3626.74
5399.56
19318.3
4598.98
12597
18017.3
5645.66
12160.6
13143
8711.12
4271.09
15820.2
22585.9
5082.8
4691.12
9802.23
6779.52
29553
8316.15
7949.3
31007.1
12990.1
4966.38
12237.5
12282.8
3767.41
20373.6
27266.4
20744.7
42091.6
11452.6
14472.1
11231.3
10673.8
32120.6
23718.7
51626.5
9716.14
6290.7
18655.7
26220.1
26181.4
19800.4
20249.1
9401.39
13269.3
18912.5
10702.2
12558.8
25325.3
7559.54
7097.25
21745.6
15211.7
3834.95
7319.95
31774.8
7602.8
31135.1
14380.6
44744.6
10669
4382.89
4498.03
55873.8
3853.67
7747.2
11225.6
12122.4
34460.3
4281.1
13505.6
38372.9
11549.2
4651.61
4782.61
6916.73
11056.5
15291.9
32022.4
16157.4
18763.2
23561.5
6592.61
9198.1
24553.4
9901.67
4812.78
9317.37
24154.1
23637.6
4137.49
6567.53
6643.36
7257.8
6210.68
37041.7
5007.67
44988.7
6002.02
8003.44
5372.45
9538.3
4381.3
11660.5
10233.3
36205.9
50805.2
7397.07
12906.7
19101.6
14616.6
22668.3
26929.6
10501.4
11603.2
6314.66
8929.75
5408.95
53089.6
27422.3
10013.5
23460.7
34578.6
9123.26
7593.93
18142.6
7658.19
9305.7
11605.6
50311
23319
6870.7
39530.2
18093.5
9091.26
8935.43
35820
13340.6
5307.95
13650.3
12031.2
54821.8
17621.9
12882.3
19633.6
4087.14
10975.1
6783.18
9415.83
5939.4
5514.61
6469.49
8502.38
22071
9150.15
11635.2
12311.7
22713
11321
15577.9
22059.9
9406.65
7019.51
7312.54
3894.03
14775.9
10779.2
11528.2
15297.8
3639.5
10033.9
4355.13
10958.4
7242.18
21970.3
16731.6
8065.76
9792.65
16366.2
4507.61
7097.65
3734.93
13127.7
8005.94
3623.98
27013.2
41334.7
8785.72
18309.1
6436.06
15253.1
18254.5
16533.8
13034.9
44029.6
18966.2
27278
20136.8
14304.5
15143.3
11253.6
5030.28
4689.78
18229.8
9273.04
9698.22
19820.6
23301.9
5380.71
14524.1
5698.84
11190.9
7852.9
8688.21
4610.89
4230.42
43149.7
6599.62
12315.7
8617.71
13322.5
11120.3
13581.9
37936.6
16541.3
17092.1
8631.85
26931
8677.76
8155.19
13470.7
12258.3
10108.8
12554.2
7823.13
12584.6
8450.18
5649.2
5725.66
16553.9
31183.9
6684.46
25478.2
40898.1
10944.6
12962.6
18000.7
8318.64
8314.1
9776.25
13318
32724.9
5255.19
9115.45
5276
7087.05
11080.7
30140.4
9578.11
20081.5
10834.2
6545.82
28223
14883.4
11910.7
5963.87
15209.7
8830.8
10418.5
8119.22
11661.5
30454.8
25635.1
10149.9
14623.3
6071.62
11069
12120.5
25897.4
13923.7
14955.1
10212.2
24757.5
16625.3
5724.27
15787.2
12548
3836.63
8268.91
18170.1
9869.45
6032.79
7136.67
27325.6
20176.1
15034.1
28883.6
15432.1
5467.12
39918.7
51932.2
15418.5
12941
10899.1
27057.3
9817.07
14142.1
42716.1
16150.6
12255.7
12208.5
12565.6
6113.02
9695.81
14637.7
12724.2
6585.14
17838.1
13324.6
100243
24517.5
7189.8
32762.9
7882.69
12780.2
4927.15
4962.36
14834.4
7844.75
5391.99
4130.34
21236.5
3793.16
5611.37
26672.7
6196.88
12728.1
7319.18
9785.53
17883.6
6723.2
12036.3
4386.15
7365.84
41337.9
21089.3
15172.9
10395.2
7026.41
5451.87
4867.02
6179.32
7249.65
7049.88
33864.6
5830.05
31763.1
22893.1
92633
10473.6
13259.9
51159.2
26560.7
12128
11565.7
41001.8
18569.9
13263.8
9810.42
38216.9
17473.6
16994.6
4026.61
10233.2
14336.7
21235.6
26871.4
20433.8
12226.5
5900.63
16808.1
10535.3
11084
25921.4
10609
9806.3
18322.6
12306.3
13657.2
18131.8
11741.5
46596.9
11227.5
24378.8
15190.3
4603.45
11064.4
40490.1
6472.19
12705.4
13356.5
21126.3
7237.18
3649.23
17324
10214.5
12798.7
16559
14347.8
18225.4
45182.7
46185
23253.3
12050
24512.5
7676.81
34411.9
4916.47
9074.69
27926.3
19299.8
51208.9
51173.8
12552.1
12952.1
20589.2
4965.29
3879.88
21604.2
14090.4
31941.2
4474.28
7924.64
35584.6
15478
10107.2
9893.09
4966.02
5605.38
9059.97
6281.77
14283.5
5670.33
23185.9
8422.08
14831.9
25972.4
15421
21073.7
3513.45
34653.9
13548.9
4023.27
9847.42
11007
11032.9
8028.02
6824.42
11160.1
9867.76
11444.6
24720.1
15205.8
25290.5
22777.5
37004.5
9507.29
16001.2
4003.52
6706.96
16322.9
18944.6
20028.4
4977.77
13077.9
21193.4
9300.5
8357.26
23686.6
16847.8
14018
24842.5
5790.82
6041.86
4413.37
7723.19
35393.9
19641.4
22914.1
9526.95
3710.64
9282.13
5907.53
7364.08
5951.03
88369.7
22268
19225.3
10055.6
26348.8
155012
16999.8
12347.3
11189.6
8490.92
7095.98
14339.5
5515.22
12538.5
10356.1
5949.62
14046.7
14347.2
14161.9
8477.46
12816.8
10345.5
13577.6
6625.4
14749.8
18452.2
16636.1
5646.76
29446.4
6888.43
36066.3
20107.8
31418.8
10659
22012.9
4159.39
9248.56
10609.5
4345
6761.22
8565.43
16902.6
5675.95
6342.45
11281.1
22512.7
30086.7
9055.93
10066.9
20100.2
9921.99
25972.4
24819.9
28183.6
8750.53
37050.6
5448.9
11616.9
14603.4
21051.1
52057.8
27644.2
20219.3
36912.8
11900.5
69186.1
25200.7
99221.8
8139.57
13533.3
9449.28
19200.9
16488.3
10752.3
9422.01
4871.89
13563.9
31056.2
17319.3
39156.9
14217.2
15721.9
20633
9903.92
29834.6
98994.9
23993.5
4168.33
42720.9
6766.85
91329.2
7809.53
25735.9
13534.2
31077.1
18178.3
12699.3
6686.8
18560
7623.23
72969
6237.57
11181.6
13403.6
7179.24
15597.7
12515.6
3981.23
6158.53
9562.73
12085.1
15789.6
3698.33
29648.4
13813
88947.5
5368.73
30426.6
3949.23
18216.2
15632
91784.5
26833.6
11554.1
8975.47
16105.8
32361.1
11789.6
10074.4
22129
26767.6
12287.1
52609.6
10405.9
11333.6
21649.1
3624.8
14062.1
5060.18
6684.17
4854.36
10014.9
16674.7
4955.73
27657.6
4676.66
31166.8
18228.5
7984.83
17023.8
13948.4
8756.7
7755.91
5978.76
20515.3
20733.1
19517.3
26709.4
4770.23
5777.18
9596.95
6764.76
12038.5
6246.66
12545.5
7014.98
7144.09
3615.27
10286
28689.9
8890.08
14454.8
10982.2
6757.89
4764.36
7264.86
6845.48
12245.3
16672.4
4600.95
41406
12036.5
5775.84
24595.4
8084.57
7251.65
18226.1
46044.6
20059.5
5662.48
13506.4
21694.4
12449.1
7603.5
10029
6985.78
25009.3
9662.56
8272.69
6046.06
10439.3
10554.8
9386.88
9004.62
14477.1
23185.6
10352.8
13153.9
19457.4
15325
22862.9
16509.5
3472.77
10952
7763.02
14525
32420.8
11155.2
7768.34
24770.3
40288.3
17597
16986.4
4670.39
9403.58
8618.28
31987.6
78731.8
27351.9
11230.1
22159.3
11945.7
11603.6
9355.21
10025.3
8549.68
19046
16648.5
9854.28
5055.82
29042.9
4118.16
12160.5
3652.11
12330.1
28937.7
8697.55
6842.56
4104.44
22252.9
7646.1
4489.68
9685.49
10187.6
6980.2
8535.31
6816.99
14232.3
10253.3
5043.26
6383.71
22154.7
14642.3
21032.5
15028
5752.12
10005.9
17582.5
16980.9
13459.6
30065.3
29615.1
10125
3959.25
12969
3818.64
34663
18237.9
20337.4
8950.18
9006.84
11795.4
14896.4
22458.4
20788.1
11794.5
81899.3
4653.34
23901
6289.89
6666.02
8708.24
4872.03
2876.61
14046
146337
11352.3
23267.4
21437.5
43751
10343.2
21863.1
4246.83
9321.45
21266.1
15924.2
5000.59
5320.39
16284.3
11255.1
18463.2
5368.61
34000.9
10867.1
11051.5
12031.2
10580
6474.62
7415.05
15235.2
4647.59
12557
8713.17
7056.89
7361
10273.8
8004.17
6931.62
7225.72
11762
9586.57
18965.2
11827.9
55542
4755.82
10449.9
27019.9
43276.2
16824.8
22682.9
20186.8
7916.42
6191.19
19638.7
11504.1
12536.7
51866.2
10001.3
6580.72
6849.72
8725.87
10060.7
8970.21
17375.2
24656.9
17589.9
13791.7
28999.2
18989.4
6179.64
38320.4
14376.6
4825.15
5315.25
8834.25
14186.2
19364.5
4958.84
7621.24
20011.1
44155.6
13389.2