/*--------------------------------*- C++ -*----------------------------------*\
| =========                 |                                                 |
| \\      /  F ield         | OpenFOAM: The Open Source CFD Toolbox           |
|  \\    /   O peration     | Version:  2412                                  |
|   \\  /    A nd           | Website:  www.openfoam.com                      |
|    \\/     M anipulation  |                                                 |
\*---------------------------------------------------------------------------*/
FoamFile
{
    version     2.0;
    format      ascii;
    arch        "LSB;label=32;scalar=64";
    class       volScalarField;
    location    "100";
    object      p;
}
// * * * * * * * * * * * * * * * * * * * * * * * * * * * * * * * * * * * * * //

dimensions      [0 2 -2 0 0 0 0];

internalField   nonuniform List<scalar> 
65206
(
3.00259
-19.7903
-21.9234
-24.5142
-48.5979
3.52973
-4.16131
-7.86383
-5.18388
-1.19822
-8.61748
-9.89182
-5.14609
-8.4261
-5.50932
-3.05014
-7.44856
-5.14647
-7.17896
-8.84512
-14.186
-7.10815
-5.65301
-17.5057
-6.1507
-4.20585
-0.619245
-6.39904
-2.97195
-5.64203
-4.54018
-5.93409
-8.64854
-8.02994
15.5442
-2.66405
-7.06429
-5.23909
-11.2861
-9.76488
-14.047
-13.503
-8.5745
-28.9698
-0.636551
-29.2087
-11.0775
-1.76404
0.83648
227.211
0.174274
-7.6975
-18.1694
-13.8763
-2.04359
-16.5822
-1.74675
-4.86224
-1.42816
3.8491
-0.573119
-22.118
-2.84373
2.76175
-34.7041
-6.45093
0.0455331
3.29256
-2.02042
-2.29069
4.33087
-21.3559
-5.33609
-1.96376
-1.83212
232.882
-2.4452
2.92977
2.19764
-0.896495
5.51995
1.54467
4.33355
0.308965
1.21043
-1.59319
12.7246
-1.35678
0.663909
-4.17277
-4.41185
-4.01991
-19.5211
-8.92007
227.269
-4.36461
2.09443
-0.227939
-3.85938
4.80826
-5.95354
-24.4185
-12.8198
-14.604
226.46
-19.8177
-12.0821
224.628
-14.321
-9.40246
-27.893
1.47355
-12.5856
-5.46382
-17.8344
-1.14448
-1.07647
0.307249
-2.28761
-2.23141
-15.6735
-2.28783
-6.75313
4.82647
-1.75015
-18.2254
-0.542991
-14.0339
-13.1488
-0.323551
-14.627
-6.10065
-29.1227
-35.307
-10.6521
-28.3429
-6.90275
-7.16111
-7.10386
-11.6001
-2.5023
-16.9292
-3.29338
-0.340433
-19.2422
-21.1021
-6.33261
-5.76967
1.98423
-20.2491
-10.3158
0.556223
6.37034
-20.8687
-18.7327
-22.6137
-2.98466
-10.274
-10.3421
-5.22423
-7.79035
-10.539
-12.982
-12.5432
-13.6567
-4.92236
248.579
204.893
-4.16058
22.4943
7.18411
-17.5044
-22.427
-17.8639
-0.827699
13.8021
-11.1928
38.2428
-2.07207
-23.3803
-25.5293
-5.45174
-8.22078
-8.44221
-9.15389
-17.9573
-2.60085
0.343101
-7.70576
-10.5334
6.5545
-19.8026
-7.05275
-5.20948
-26.0813
-9.98819
-14.2672
-10.4096
-13.0974
-12.5325
-8.45016
-11.4489
-8.41391
-9.40152
-8.75696
-13.3416
-0.176562
-15.374
-1.48962
-9.92661
-12.8204
37.1621
-37.0514
0.942405
-21.8515
-9.42236
37.123
-5.87447
-13.2289
-13.9525
-5.81643
-4.64193
-0.993658
1.36711
-2.44437
-4.17638
-0.393677
-8.79025
-5.09928
-4.97427
-1.64485
38.1432
-21.9209
-24.0019
-2.39353
-2.2614
-13.6638
-11.886
-9.74231
2.06764
-15.1511
-7.13651
-11.9501
-7.62578
-6.22781
-19.6898
-2.8109
-31.0517
-26.7848
-18.0151
-5.17888
38.1119
-12.417
-13.762
-15.9654
-28.2561
-23.5114
-20.4353
-26.2813
-25.1501
-22.9433
-2.65134
-23.6001
-37.3537
-3.45973
-15.1453
-30.7989
-20.6665
-9.03569
-30.1273
-13.4844
-29.4292
-2.92093
-11.1094
-8.06359
-5.34954
-11.4832
1.83596
-13.0789
38.1123
-3.06895
-13.8224
-2.32768
-13.0364
-13.1423
-26.7908
12.9913
-4.70662
-5.77121
-7.54164
-15.5944
-10.0488
-16.1312
-10.9938
-0.498995
-13.8045
3.71036
-18.2297
-17.0999
-24.5559
-6.99104
-38.5416
-6.42171
37.7918
-18.1242
2.6085
-4.93291
-5.90952
-2.73789
14.1171
-11.4898
36.9851
5.80573
-7.57318
-6.45197
-2.09094
-26.0281
-15.824
-22.4784
-5.85705
-7.58513
5.30381
6.86412
-13.2444
-15.3259
0.524244
-2.64844
-22.4987
-17.8908
-19.9873
-4.62365
-0.86228
3.50251
-12.8671
-3.80662
-32.2986
-15.3706
-6.13809
-5.40209
1.92108
-14.4563
-22.5382
-21.7194
-19.6954
-23.99
-29.169
5.68709
-11.1588
-24.5256
-17.355
-13.7706
-1.72991
-28.1172
-33.4642
-29.6528
-10.9599
-23.7354
-13.7128
-14.9233
-18.621
-7.38005
-4.04282
-28.9566
-18.3512
-6.33451
-11.6153
-15.1203
15.1696
-25.6053
-14.5082
-4.2354
-4.66093
-35.3881
8.96258
-25.6633
-13.8874
-23.2805
-23.5155
-14.1642
-3.69785
-31.5356
-1.78795
-23.4237
-18.7966
-18.3181
-0.497736
3.14175
-5.61702
228.559
-6.02906
-15.739
-22.002
-17.1886
-15.743
-10.8637
0.866309
-22.5945
-26.5807
-16.2436
-12.7693
-21.3699
2.32931
-28.7095
-17.9165
1.63085
-29.2197
-18.5813
-18.5312
-29.331
-9.45009
-26.7374
2.25337
-25.0685
-20.1169
-11.3365
-7.21998
-8.21376
-9.34232
-30.2502
-1.90151
-18.3125
-7.53435
-12.7859
-5.57295
-3.05926
-11.285
-14.5985
-11.8944
-29.3534
-9.57383
-29.3287
-4.22756
-9.79806
-24.307
-18.7082
-16.2043
-9.47954
-18.8189
10.664
-21.7682
21.0059
-13.1236
-30.9911
-31.1533
5.43737
-8.11237
-30.4306
-12.8348
-10.9983
7.52394
2.3448
-9.27875
-23.6726
-23.2731
-12.0712
7.5447
-9.50943
-27.7639
-23.3949
-4.76979
-21.2167
-13.882
-27.1034
-21.6884
-28.1085
-0.534416
-23.6743
-3.52261
-25.1099
-9.41938
0.645084
1.85495
-25.6807
6.07955
19.6032
-7.72459
-22.3749
2.00747
-22.8957
-27.128
1.3104
12.2786
-22.018
-36.1031
-21.5124
4.82479
-23.7753
-15.3119
-24.7867
-23.9272
-7.47244
38.1756
38.3612
-15.7813
-14.2095
-11.0628
-19.2642
-19.9163
14.6421
-2.23346
-11.3748
-3.23996
-24.1374
-24.9405
-29.2281
37.9213
-27.1083
-17.4318
-2.78934
-18.0093
-1.8219
-13.3086
-24.4494
-23.8479
-23.4509
0.535253
-14.8267
-20.1634
-7.10022
-18.8639
-13.8171
-35.652
-14.7586
-23.7458
37.976
-19.3754
-16.3725
-17.704
-6.61139
8.69474
-22.5477
-4.26715
-9.05159
-9.6836
-14.6359
-24.2747
-25.3388
-21.3143
-21.5347
-19.9949
-23.3716
-17.1743
-31.5559
-21.9365
-14.0836
-24.6491
-15.4371
-9.4418
-28.5748
-23.0021
-15.2632
-19.6401
-12.0635
-14.7932
31.5517
-6.84522
-9.68421
-28.4359
-23.0108
-1.81804
1.73584
-31.0584
-20.0787
-10.1895
-18.3306
-22.5452
-17.8478
-24.9337
-20.6578
-15.348
-4.94934
-19.5973
-25.0489
-19.2309
-18.2896
-12.7156
6.38066
-20.0771
-24.5104
-2.37936
-23.3846
-22.0346
-24.1162
-23.4192
0.931308
-13.3646
-25.3647
-4.84039
-29.0848
-23.1496
31.4832
-29.8717
-26.5271
-26.5107
-24.9531
-13.4001
-9.01436
-11.4677
-16.1382
-1.1319
-27.1678
-23.7206
31.4183
-11.7674
-12.3481
3.38605
-13.0076
-26.3382
-5.4745
-5.52443
-23.3609
-21.4966
2.63069
-28.1258
-26.6228
5.983
-23.579
-6.64223
-16.6967
-5.13532
-27.2152
1.25472
3.93746
7.55399
-11.0175
-17.0453
-2.32715
-0.956406
-24.8493
-26.3634
-35.8657
-5.2002
-20.6419
-8.60724
-20.2584
-11.501
0.00487849
-20.805
-27.2292
-4.8757
-5.04196
-25.7201
-7.33658
7.99217
-37.644
-17.8025
-44.5837
-1.57582
-18.9649
-33.7643
-17.3159
-27.0722
-11.4371
-10.6561
-1.18661
1.53321
-22.4093
2.99717
-32.6818
-6.15576
-7.69259
-27.8531
-21.9846
-28.4519
-9.16935
-7.81229
6.29913
-25.1043
28.7789
-34.3611
-1.13473
-33.6532
-20.0373
-25.8397
-13.2678
-16.8167
-10.7662
-20.653
-13.7449
-6.25997
-18.9903
-9.67781
-3.5877
-17.1933
-7.51149
6.73178
-25.6067
-20.2984
-29.1604
-18.3284
7.56245
0.993332
-6.08733
5.32579
13.8274
-4.48212
-27.6975
-13.5103
-0.304671
-24.8466
-20.0314
-8.17328
-29.2171
-38.7191
-19.4602
-20.2908
6.65337
-24.3058
-10.3284
8.38779
-12.1077
-17.461
-5.64417
-20.3083
-1.78599
-17.5164
-5.35811
-11.837
-12.681
6.73974
-5.78245
-9.26458
6.07417
-21.8201
-15.5032
-6.47834
-14.1953
-27.964
-31.1979
-1.88683
-15.5453
-26.7639
-32.236
-16.2756
-29.8019
-18.9516
-24.6759
-22.6725
-34.3341
-18.343
-3.13742
-18.7882
-22.3966
-11.8489
-2.06473
7.24091
-4.40696
-20.7581
-25.7615
-21.7548
-7.81559
-4.09769
-8.34062
10.2604
-10.498
-24.6918
3.71456
-4.2208
-29.2341
-36.3325
-18.3984
-10.8296
-31.8687
-12.4899
-17.3401
-27.523
-14.6573
-2.41164
-21.2425
-11.7812
-31.5802
-30.1727
-21.497
-18.007
-18.0961
-8.28298
-9.62466
-22.6692
-19.2849
-22.6265
-21.0906
26.7612
-6.86251
-6.04929
-17.3471
-1.47878
-8.5776
-21.8852
-15.8152
-6.67094
-14.1561
-13.0565
-7.69576
-17.1308
-5.61712
-17.7882
-24.7882
-20.257
-18.1122
-11.6267
8.17631
-1.51137
-24.4338
7.03068
-18.3656
-20.7167
-12.2797
-28.4971
8.47334
7.42178
-26.3853
-19.1611
-10.4118
-22.5635
-18.7966
-22.676
-1.43505
-14.096
-17.7354
-17.3187
-18.7033
-13.3787
-17.1831
-5.53976
-12.0692
-11.4286
-18.4243
-15.3223
-27.1905
-33.3195
-21.0262
-13.1032
-32.3052
-12.2612
6.17016
-11.8878
-13.3362
-2.41962
-13.0559
0.544987
-6.72481
-12.7272
-16.7632
-7.60844
-11.6655
-13.8297
-19.76
-21.1951
-28.6137
-26.2541
239.466
-29.7032
-9.33292
-19.2789
-13.6505
-16.0115
-25.5275
-13.218
-26.6791
-3.8063
-26.1636
-19.1011
-19.5239
-14.6311
-22.2849
-5.48688
-1.92784
-24.6241
-9.48186
-17.7344
-28.1897
-10.229
12.5689
-10.6971
5.20659
-23.5838
-19.6074
-3.55769
-20.0819
-10.1258
-23.1008
-6.83585
-27.014
-21.3889
-43.028
-6.20423
17.6295
-11.019
-26.3467
20.4124
-0.10705
-17.3949
-4.67965
-45.7415
-29.7997
-17.595
-16.4149
-24.6751
-23.8024
-4.22631
-27.1999
-22.7563
-20.5588
-17.388
-25.7579
-27.8212
-35.9895
-20.9562
-22.4436
-64.8248
-4.99034
-37.1843
0.203153
-33.0689
-21.8363
-17.7301
-45.9569
-19.0892
-14.6094
-23.5829
225.694
-26.6854
-6.74678
-14.8609
-6.01962
-22.7456
7.18205
-27.93
1.75218
-15.6218
-23.7185
0.699381
-18.8766
-4.33883
-3.59908
-22.7343
-23.6785
-3.94403
-13.1441
-7.55848
-2.42895
-8.32633
-28.4656
-31.6143
-17.0139
0.780712
-35.9
0.607613
-25.192
229.358
-8.46301
2.13223
17.7508
-20.919
-2.61878
4.68679
-36.3477
-15.4556
0.443283
4.89837
-4.69458
-11.4764
-10.3254
-27.4713
-10.5567
-2.13173
-9.29999
-21.0474
-16.5691
-24.0526
-8.2544
-22.5274
13.5729
-6.12973
240.818
239.743
-36.4839
3.00297
-30.9753
-6.76116
-16.1975
-28.7403
-16.4988
-30.6267
-4.44359
-7.85688
7.98531
2.19675
-2.41634
-23.5458
-13.8015
23.5739
-7.55567
4.15445
-2.72435
15.668
0.794488
-2.16212
-9.71193
-20.2616
11.5106
33.3505
6.63615
-4.92324
5.52354
-15.5
-3.16688
-3.33711
-26.5669
-5.08387
-15.8705
-1.00608
-10.8456
-14.2819
-4.85374
-9.48006
-22.5583
-21.6435
-14.3671
-13.9055
-20.019
3.7537
2.64794
42.4978
-1.01924
-15.7152
-3.70908
-10.1059
-9.30868
-9.32623
-30.5835
-25.1338
-25.2341
-15.8101
-27.7235
-28.0155
6.56725
-25.1814
-17.8106
-8.8784
-17.0442
-14.0861
-26.5642
-18.649
-8.53982
-14.9728
-8.14396
-16.1603
-8.94796
-19.0848
-13.1786
-0.614842
2.75161
-5.66293
-10.2745
-12.9208
-11.4801
-3.99111
12.3684
-5.46176
-5.90281
-19.9936
-15.4939
1.34757
-6.08314
-3.4991
1.27956
-32.7153
-8.98254
-15.5084
-17.5185
-9.70307
-4.16456
-5.87044
-7.07875
-3.26674
-3.15488
-14.3168
-5.6969
-7.71643
-4.39722
7.86833
-8.31465
-3.26803
-6.44575
19.3812
-7.39524
-1.07417
21.0226
-1.98523
1.56765
-4.41402
-0.599884
-5.16974
-12.8211
-3.84971
-6.50714
-4.87865
-8.84271
0.0909297
-5.80847
21.2338
-3.29725
-2.57567
-1.72155
-5.79439
-5.14626
-4.78708
-6.3681
-6.73668
-7.39137
-7.67822
-5.54724
-8.99931
-7.30535
-5.59206
-1.3011
-0.0502395
-9.35837
-2.93978
-9.58381
-10.7377
-14.6231
1.5067
-8.1739
-11.5052
-8.27482
-27.5379
-3.09758
-12.727
-6.1724
-9.38046
0.349768
-6.65621
-9.0059
-9.99326
-7.80815
-10.394
-6.22815
-6.79095
-17.8539
-7.7811
-16.8901
-27.6912
-10.567
-9.49049
-10.5949
-6.73683
-5.39573
-9.17309
-9.5884
-11.9728
-10.7745
-14.4712
-22.7605
-10.5926
-11.4437
21.6179
-8.55564
-8.41934
-7.95528
-15.7985
37.9503
-11.008
-8.1091
-10.4257
-17.1907
-9.75871
-8.66399
-10.9855
-7.6999
-10.5913
17.5924
-10.7838
-8.90637
-12.1605
-7.5842
-7.82278
-8.92914
-10.6285
29.8897
-6.68816
-12.0671
-10.9392
-15.8449
-6.0922
-9.93829
-13.4849
-12.004
-2.63515
21.7832
-12.2871
-13.6577
-11.2859
-18.4072
-7.77269
-5.47944
-0.583902
-21.4972
-38.6298
-39.9655
-7.4527
-4.46843
-12.5799
-16.1286
6.93584
-28.7908
-10.1771
-21.1763
-2.56801
-22.3519
-17.7937
10.4333
17.7814
13.6285
-30.8635
1.09096
-12.9978
-4.22001
-9.97901
9.9105
10.4152
0.21613
-8.31538
18.758
-18.7094
41.4202
-12.3216
-8.11155
-26.568
-5.20733
-31.3567
-12.3439
-8.3819
-28.1563
-6.16814
-0.603338
-5.18473
-19.7279
-10.3308
-22.4898
-10.1651
-8.48094
-27.8842
1.7181
-11.5134
-5.93132
0.41153
-13.4149
-5.90642
-13.0004
-3.7151
-21.4602
20.1331
-14.7402
-5.26458
-25.6493
-22.6355
6.48775
-12.2307
-3.0586
3.02955
-18.6682
-8.24099
-27.0925
-23.1599
-10.662
40.4474
-3.70094
-9.52527
-11.5951
-33.1319
-4.32556
7.01885
-23.8418
-22.9514
-26.4857
-10.0236
-26.0708
17.807
-19.1812
-27.5921
-18.4492
6.33421
14.5843
-25.75
-25.2778
13.5056
-2.93551
-20.4534
22.4199
-8.8257
-13.4782
-8.9506
-28.6065
-9.76598
-24.062
-26.703
-8.89322
-15.2194
-21.6883
2.06301
-14.307
-32.4126
4.06107
-17.2308
-20.9907
-12.1667
31.7342
19.3394
10.5984
-8.50917
-28.6679
91.9287
-4.74699
24.0627
15.5652
23.1162
-211.519
-10.2099
-144.864
28.2852
33.4138
5.86335
96.4855
-9.98581
-22.1799
-65.9036
-17.0727
-25.1906
9.28371
3.18479
-5.30388
53.8782
47.4905
12.4343
39.242
-3.06163
21.6596
37.8214
-1.68383
8.94136
-2.72932
-9.05883
-2.29454
-13.3059
-7.70553
13.044
-9.19723
-15.5852
-3.53832
2.82684
-12.2257
-4.5003
-15.8607
-18.8535
-4.47616
-22.5851
-16.03
-41.9388
-20.4515
-17.3825
-9.35226
-8.80687
-11.6807
6.95239
8.60665
0.053712
-10.895
-2.05189
8.18711
7.13037
-8.17246
22.9044
15.4421
3.09758
-2.04647
-9.07999
-10.7353
-17.4807
6.89451
-5.58659
10.2007
38.9711
8.30996
-0.111618
-7.20795
-11.1941
-8.59986
20.9777
24.2388
38.0544
13.1744
16.484
-6.61068
18.4488
-13.2985
27.4548
1.6237
16.2373
2.90192
17.5148
48.995
-5.15616
46.8442
32.9183
-11.1227
-8.71467
-3.31986
-7.38767
46.76
-1.90213
-0.485757
41.1725
93.9249
36.303
42.5296
-19.0115
91.3631
11.0926
27.6107
29.8949
58.0162
15.1736
34.4067
0.268061
68.3709
21.9104
58.3877
55.6093
54.8174
88.1515
75.9523
18.5373
15.4503
1.50908
9.72558
0.728471
61.9826
68.1692
86.2745
87.5117
65.6442
96.9971
-4.7495
97.0576
100.136
96.1403
30.4852
8.07861
101.585
103.072
56.8766
106.122
-2.10512
105.287
105.713
-1.92661
3.32494
20.5246
104.952
26.726
28.6309
31.606
105.814
32.2885
106.68
111.305
86.829
106.102
30.4917
95.2815
18.6109
27.5944
32.058
105.823
106.181
105.229
107.072
107.254
0.521147
89.9139
83.7337
105.747
106.671
56.7297
4.08942
93.3082
90.6852
101.692
85.3088
88.9594
16.1308
106.327
99.5815
106.307
78.5119
11.1648
-34.5599
75.6002
81.7687
17.2733
103.565
32.188
89.1017
7.03631
105.571
93.5266
21.991
77.9397
84.8771
-0.660923
65.6263
38.7294
46.1279
59.0276
36.8352
66.3666
18.9589
87.0519
19.2568
30.3391
22.1857
54.4628
-25.1378
-4.99303
54.3812
58.2723
17.3582
3.93087
-11.0086
3.88092
-15.4518
23.7993
-7.45423
-19.0248
-4.08989
68.2902
15.2024
81.3592
6.8385
21.7248
74.4039
-24.9825
-5.65182
63.0362
0.685237
22.9762
-47.8225
38.2409
53.1877
15.884
28.813
19.4772
3.83956
1.03696
48.2176
30.4802
53.4333
19.1602
-59.6962
33.9452
-13.8029
90.9539
38.9283
10.0831
1.84852
4.39673
-10.3805
-14.8479
11.198
19.2342
-13.862
31.204
65.9787
-13.0392
5.76024
-9.43896
6.71457
1.79024
-1.97032
-5.18966
49.4015
10.8088
9.01896
-2.48551
-10.6987
30.2091
3.84423
7.39837
1.80545
7.80426
-10.1091
-32.524
8.13718
12.6364
-5.81913
3.74427
-7.59853
-28.1527
-25.2159
1.102
25.6429
-7.56334
-18.4495
68.9249
19.6624
-8.54152
-19.5029
-18.8849
4.12173
-3.19537
2.81132
-2.68561
-3.25966
-27.8977
-14.5577
-17.6466
5.06209
1.58924
-27.1057
-24.6125
1.09967
-24.0543
-8.92135
-19.6174
-22.3981
-3.7588
-14.2587
-2.99324
-12.6767
-4.9861
-24.3447
-10.7953
-27.7592
-14.0385
-13.1614
-2.89615
0.926847
-10.1395
-7.41967
2.9755
0.613641
-8.05804
-7.62111
-10.0771
-8.64839
-19.7812
-22.0679
-22.1283
-8.11154
4.11907
-0.0558741
15.1559
-29.2438
-23.4284
-6.60492
-30.1694
-19.535
-14.0498
-35.4636
-9.39624
-6.84493
-10.6496
31.5106
-17.5961
22.5373
-3.13189
-28.9116
-0.457829
10.3847
2.70741
43.2572
-1.5936
-11.2902
-6.39346
-6.34012
-2.7154
-2.10127
0.954399
-7.79641
5.8893
-5.14318
-6.94159
-3.01136
-6.21894
9.13034
16.8272
-36.778
-19.9242
1.36702
-14.0555
-10.6639
-5.4511
6.16786
-1.29132
-5.06226
3.50134
-12.0684
0.209231
-0.281547
-1.29601
5.52328
-1.31894
-8.58255
-23.4939
-14.9125
-2.88077
-2.86305
-4.33809
-4.61395
1.62186
10.9116
16.6216
7.39865
-6.56037
-5.33476
-4.95948
-6.3671
-4.68789
-4.82731
-3.28985
-5.63989
-5.51282
-3.13124
-5.84551
-5.94467
-4.06903
-8.1252
-8.75702
11.7191
-5.73204
3.08464
-18.6801
-7.68959
-5.17929
-2.64706
-6.23072
-7.59968
-5.31671
-4.93599
-10.6239
-15.9298
-8.54336
-7.9752
-4.3176
-7.30597
-10.7647
-4.92167
-9.65293
-0.531185
2.24912
-9.46549
-1.06021
-5.18507
-3.04373
-20.3657
-9.86064
-0.37379
-9.08445
-3.52539
-2.9093
-19.469
-5.08828
-6.3966
-2.88548
-1.4274
-9.39278
-6.44659
-22.5584
4.95277
4.66984
-17.7482
3.85389
3.54619
-10.1999
1.10732
5.76998
4.74751
1.16225
-2.88157
-2.55529
-2.34335
-5.50255
-1.7802
-3.51583
-2.73342
-3.00502
5.93642
-3.27687
2.34704
-5.03543
-3.24625
-2.46413
-7.18465
-103.706
9.45787
13.2994
9.81453
6.7304
-1.68108
-5.33287
-1.79844
4.48205
0.520413
9.51491
9.28087
-2.97592
-2.45426
-2.53011
7.36207
-1.10649
-0.486418
-15.1297
2.36331
-2.0583
-21.3672
0.197627
-14.0554
-17.6408
-2.10103
-7.44681
-2.47186
6.25778
8.86484
-11.7466
12.3606
-3.0716
-8.23136
-19.4625
-3.36649
-11.2538
-5.17108
-9.61799
10.1661
-15.961
-14.0538
-4.74223
-8.90564
-12.0822
-10.9145
2.6651
-18.0726
-4.41297
-9.96056
5.87562
-23.9794
-6.95721
-5.23398
-4.33748
-25.8988
3.57735
-0.859487
-8.97151
1.60776
43.7317
-8.88792
-3.4291
11.4427
-2.49637
5.62394
8.70135
6.68638
-6.11608
-33.2038
-19.6502
-6.95708
-9.44024
-27.7458
-8.81897
-7.5606
-27.5069
-15.0235
-17.7843
-17.334
4.98537
-25.473
-29.3577
-13.3463
-21.8725
-17.9814
-3.76075
-37.1358
-28.7053
-22.5913
-16.9023
-11.147
-4.46697
-16.278
-10.9748
-26.2941
-22.7945
-26.9551
-18.7484
-13.6699
-11.3643
-5.87543
-123.868
0.0514644
1.32915
25.5458
-21.0678
-9.18624
-23.0976
-15.8082
-31.7075
-7.39558
-17.1764
-0.48779
-4.79586
-8.98629
-2.68109
24.5974
-4.63857
-4.97283
-17.6159
-16.3471
1.99789
14.2402
6.56691
3.73031
17.5653
7.37115
9.50895
21.8208
-2.67533
33.9887
36.9335
6.89902
28.0217
-75.6214
-0.85656
-5.74323
-9.76508
10.4536
31.7894
2.66421
12.9521
-11.9181
4.72029
5.7947
1.6586
-1.07606
23.8529
-3.67286
36.0247
-24.2177
-24.662
-0.642005
-1.90713
-1.41701
40.8811
-85.6977
14.2838
-24.077
-3.48871
-5.84886
19.7297
0.0225774
-37.2143
-7.59812
9.58769
-5.95472
-20.6404
-1.38467
-8.74723
-19.1592
-23.3862
-4.63367
-4.07639
2.66979
25.5954
18.1176
30.9979
13.4584
-10.4178
-1.65517
4.97277
-13.6322
23.3398
-18.6438
-11.8486
6.34421
5.57776
-2.70257
-9.18528
14.9705
-17.3624
-8.4614
-9.82051
-10.0991
-12.8652
-4.37184
3.39286
-3.90346
25.9095
16.5962
-27.0141
-3.66136
7.35315
-0.443991
17.5
-6.47336
-4.66908
-3.3757
-14.4073
-24.6303
-2.27978
-6.91924
-7.99626
-5.0542
2.84912
3.68699
-11.3339
-11.042
-8.68065
-170.81
-18.0468
26.4307
5.68875
18.9362
76.5503
21.2685
26.6986
33.1639
24.1588
7.49448
15.7198
-5.34787
-5.95634
-22.0565
-0.0882645
-9.06454
-11.5797
26.6905
-29.5179
4.90413
-10.4002
-4.3215
1.14239
21.3494
-15.8603
-5.14071
-72.1689
-49.649
4.22914
-12.6656
64.3229
-5.70085
-318.719
48.5546
-174.182
-20.4907
-27.3343
23.718
3.10227
3.90691
2.08654
3.44729
-4.61983
-12.8235
-30.8665
-21.6142
-14.7461
-31.1768
-8.13189
-14.2443
-105.328
-109.621
10.7161
-7.04955
-6.43144
-3.26943
-12.9328
-3.34563
4.11591
-5.4684
-26.9208
-19.2445
-5.07812
0.319195
-3.37303
0.302613
-0.369606
-34.74
-2.85983
-9.19248
6.69895
2.09035
-4.86575
4.35269
-5.02984
-16.6378
-10.0809
2.4059
-18.4836
-32.0964
-30.4755
0.223335
4.24539
25.0916
15.5356
-24.5513
-3.81586
9.406
129.144
-4.65849
3.24536
35.1299
12.5157
-28.4954
18.0422
41.5474
30.6175
-24.1175
-14.3101
-1.79221
22.5299
-29.0892
-15.7741
-26.1448
-21.6828
-2.97387
32.8284
65.8259
49.3315
31.6347
-79.5728
8.42538
-7.16542
-23.9291
-4.33035
19.7012
13.8491
17.2658
19.986
-31.0644
16.4801
22.5033
21.0949
-13.4332
34.5924
-12.8248
-6.0118
-0.115524
-25.9286
15.0845
-22.8124
7.66377
-4.72442
-6.4637
-11.9808
-1.91207
-2.05515
-3.64126
3.94343
-11.5179
-17.7008
-6.71561
1.024
-2.10233
-3.28027
12.1254
-11.2602
-2.75888
-6.40414
-6.36977
-15.5521
-47.3448
21.4551
-21.1578
-8.5897
-30.8193
-19.3335
-20.1338
7.64933
-3.54332
-5.20517
-29.7557
-4.26141
-3.08015
-4.64425
-0.734995
3.92964
-7.21525
-3.89555
3.71763
-48.3471
-15.2662
-15.3091
-23.9845
-25.9795
3.24686
-10.8292
230.394
-0.366298
-10.0331
-68.337
265.435
-5.27449
13.1411
0.150906
6.49146
-2.29719
-7.38533
10.5964
4.20779
-29.1438
-19.7431
-38.9226
6.77556
-10.8146
5.99731
6.31529
-1.72933
8.22209
-11.3577
8.60805
-30.7959
-27.8769
186.712
-17.7558
-27.6053
205.274
-7.15388
-43.3754
-44.6409
-6.83577
231.445
5.662
12.2338
9.92128
187.256
-0.104611
-84.0682
-15.2949
-34.176
142.027
-28.1983
-21.1535
10.8001
-23.439
-9.60695
-0.265496
203.684
15.4677
-13.6413
14.6155
0.0524706
11.8443
8.39701
8.99616
4.79317
-2.37214
-10.9009
0.390322
-22.4253
6.44727
-1.9987
1.4643
2.77667
-8.21636
1.14567
-11.642
-83.8678
-45.3243
-2.84887
-26.9553
-40.3618
-15.7697
-8.205
-17.0748
-10.5193
16.4667
3.42797
9.5399
6.6509
-3.53916
-19.7689
-22.058
13.9884
185.257
10.6378
1.00961
-8.68309
-4.91024
3.3447
-4.95798
-11.9784
-7.61109
3.88886
22.6063
1.62739
24.3685
12.6698
1.94197
0.819538
2.29803
7.3218
5.69191
-18.0664
-14.7899
-5.41106
9.42531
171.043
0.537603
-1.09043
0.578677
4.44799
243.348
258.574
9.70665
14.7449
-29.5199
-10.6526
-1.88936
-52.247
-26.6878
5.59227
-4.84629
-20.5981
2.24692
31.5114
10.9038
-3.63923
-6.55374
-7.2328
-0.786181
0.188659
-26.4938
0.178449
-28.0408
-6.21507
9.31037
-9.39552
10.6308
-82.763
-11.6734
0.869481
-8.59903
-15.365
-0.162215
6.65484
-23.1109
-11.8766
4.18756
14.6399
12.3831
30.6341
-0.767197
-37.8015
1.03064
-1.94889
-8.04262
5.30212
-25.0981
-17.5873
-25.262
15.4586
-3.76037
-4.9877
-1.45114
-2.80858
2.34953
1.10102
16.3547
12.4407
-2.54199
-9.7008
-8.01574
-0.045369
52.9542
13.968
14.9628
-8.32697
0.0816978
-2.73052
-1.00263
223.198
100.603
156.237
27.0218
31.0673
11.3737
18.8305
17.0359
17.0511
-6.01302
79.5617
-2.14777
-7.23431
-31.5861
0.262118
2.14516
-9.32674
-12.8022
6.54842
-45.2259
8.872
-9.47007
-22.4708
4.18123
-5.13
34.3185
33.6787
24.4172
-26.502
24.149
5.26335
-16.5982
-4.12943
11.8479
30.7369
0.0268939
10.3413
-11.8831
-7.86541
30.2428
-8.90098
-3.95022
-16.7421
-39.406
1.89533
6.39537
-18.7947
-95.2634
14.0845
-2.61412
-3.26646
30.6807
14.2851
26.45
30.7835
7.0845
30.9542
4.79475
6.02941
4.79392
2.83609
-3.19245
5.86386
3.99376
5.98248
-7.68531
12.0705
2.73303
-3.6482
23.86
-19.973
-3.11761
7.27222
10.758
-21.8261
-20.0879
-19.2436
-16.945
1.69722
16.0808
-10.8157
-6.86518
-14.8352
0.388665
-0.0173115
-40.5077
0.0468174
9.24373
-6.75156
-0.282558
13.5032
487.087
410.826
-63.0736
-205.351
30.1012
-49.1841
-5.02603
5.71721
-24.2321
13.214
7.97886
14.0941
13.2824
-7.16116
29.6094
29.88
-128.515
-12.8134
-100.886
56.992
-26.2141
-23.6028
-6.66819
12.3261
7.37326
14.4307
-7.84284
20.4065
-19.0151
-18.9647
-8.65483
-4.98884
-13.5966
-4.18246
-2.97785
7.8093
14.8548
-2.50671
0.65409
-31.6958
0.328389
8.22733
106.21
-20.448
91.5736
15.7986
30.9894
-7.42618
-0.846151
-15.5174
12.2228
6.76168
-4.48609
12.5911
-50.8677
29.0524
1.74867
-19.4371
-10.3173
-24.388
-13.7377
-17.8225
5.91799
-7.883
-5.58973
90.3118
5.10688
31.7295
-3.84778
17.4549
-4.37328
55.6343
5.40226
-1.16545
-8.00063
6.83544
-0.128053
13.5753
-146.658
-2.13318
430.51
-30.001
-6.29568
14.0198
-2.80534
12.0276
-6.36846
-12.5899
-5.55189
0.54285
4.45325
-6.56969
-3.36143
-8.55107
23.4029
-4.93169
5.11635
-86.3264
13.7418
44.5965
36.0713
2.28065
103.099
-33.2308
30.1273
-29.7328
-25.1974
-87.6442
-1.45152
21.7674
6.06275
-14.0767
-82.8027
-3.82094
-18.7991
-10.2609
-2.73568
-36.1411
-19.852
-0.795288
-2.87627
-10.1566
-195.852
-3.52165
13.948
-99.3804
-6.56491
-5.84511
8.33847
-2.85682
52.9341
-27.4535
-26.437
-17.1914
-21.3197
25.641
-50.0345
-10.0401
2.36303
-136.017
-0.488173
-16.3752
-19.6078
26.3585
8.50624
-80.3001
-43.8961
-14.9771
-39.9267
19.1594
-17.846
17.967
-128.398
-18.2641
-25.5383
-199.845
0.402899
-2.84615
8.25143
-4.63004
20.2603
7.78314
2.01553
5.12808
6.7383
101.981
28.9237
107.427
-4.1676
9.04556
146.585
-20.1198
7.18074
7.57187
7.92084
-0.606131
14.588
-5.81016
1.31795
-26.5066
-4.25667
-3.23785
-0.556743
-11.9093
-1.02428
-36.422
-3.47202
-2.27505
-21.2571
-21.1019
-13.3071
7.87877
153.404
7.33318
1.8683
-10.9028
-24.1119
-1.07043
-1.35321
-5.27174
16.5886
-23.6732
-2.47153
-17.952
-22.3423
7.81327
-11.274
-22.5811
-27.9549
-177.393
36.4423
-2.07332
-3.26724
-199.393
14.5664
-2.74008
102.097
-9.85196
-11.2304
-25.3096
-37.6689
-26.4751
-3.34176
-29.9177
-3.05262
-15.2688
16.2596
-2.3302
15.9141
9.48447
2.99398
-0.261412
-0.168351
-25.3134
-30.732
-7.18195
-2.74025
-83.3482
-2.05472
-5.9369
13.4375
-4.88913
20.8898
97.0966
9.44384
-22.6179
-5.8934
36.5677
8.68603
151.24
20.7568
17.564
18.5289
21.7876
9.37028
21.9606
-25.6043
-1.60715
-2.52071
7.30793
-13.1041
13.3685
-173.764
-7.46887
-23.106
87.1289
46.2803
32.0008
-10.7507
-26.8248
2.71091
-0.58454
-3.55583
131.375
-202.609
36.5711
-22.8546
-23.9382
-0.478114
-25.7835
-81.8436
-10.4266
-217.23
-5.0263
-16.5492
7.90831
-28.5596
0.451668
-20.454
-3.44247
-17.3355
-6.13431
-15.7792
-0.0984735
-4.37279
-0.717526
-2.83638
5.42848
3.07202
1.8539
0.118637
-0.611519
5.45769
-4.85309
-32.2322
21.6256
-0.195146
29.5
4.00622
-28.8138
-176.81
-4.65508
-30.0263
-13.9129
-35.3536
-3.87705
-4.79596
2.21135
-13.1597
-31.145
-34.3324
-13.0961
-10.6531
-22.8895
-4.47857
-23.2407
-9.99847
22.9662
-48.3241
-0.384207
3.20789
1.47548
-7.90492
5.85555
23.0508
-3.00576
12.0657
-34.1217
17.3969
-22.0287
16.7636
-9.6373
-50.3807
74.266
-2.36029
3.55695
-167.287
-205.141
0.615052
7.86417
-1.90479
2.34895
-5.04302
-5.81145
-27.1341
-9.41253
-16.0933
5.37335
-26.6521
-27.0834
-1.19503
-32.5718
3.1251
0.977391
5.21168
-1.51933
-82.1786
-36.4233
-18.1046
2.91892
-0.994831
-0.856328
1.97508
-23.6716
28.579
23.2257
-17.3528
-14.4376
3.71349
-6.55267
-8.75428
-12.1786
10.5407
-17.5607
-5.60369
-20.2074
11.0052
-15.2797
-29.9385
-29.3347
-32.4579
-1.59787
-5.63759
2.84359
-9.75855
23.1248
18.7162
6.05286
-238.732
-12.3409
-2.42997
0.533943
-22.7949
6.90078
5.22838
2.90774
-2.68651
-21.9796
27.8371
-6.51294
-28.1355
-1.62562
2.98488
10.2883
7.82061
-18.5335
2.02528
4.74242
-4.7814
-17.8325
-26.2323
-14.9568
-20.1787
-6.83234
-2.54819
-11.8724
-23.1215
-5.18421
-3.84097
-1.74315
-22.3473
-17.7382
-8.3097
46.0064
0.400795
-19.8232
2.15711
-6.07213
-15.0008
-6.22461
-9.32035
16.0512
-12.6831
-11.3032
-7.01757
-22.81
-22.9054
-40.5725
-7.49038
-11.5404
-9.3977
6.43662
-25.8936
2.36048
-7.17525
-24.6913
-2.54118
4.20058
-19.8904
6.9155
-8.39081
-3.12176
-10.3941
-9.52797
-34.2235
6.31123
-18.483
4.90644
-19.0423
-22.2394
-2.49567
-0.801414
-6.80762
0.288822
6.06394
2.95021
6.43057
-0.123953
9.47846
20.5611
-20.0095
38.4242
20.9342
9.46396
-19.6556
-24.0272
-9.8898
-2.37526
-47.6628
-202.534
-12.7444
0.346903
4.89211
0.0319521
-27.2323
-0.830656
-23.3182
8.57194
5.73682
8.87454
32.3928
6.38366
-10.2707
-11.6342
-20.2835
-10.2453
-40.7341
-14.1579
-13.0586
-23.1148
8.49681
-5.71382
-6.591
10.8834
30.1803
-3.07767
26.3035
-25.9452
-13.1401
-18.5299
-24.0306
-14.4933
-15.8081
-24.1093
6.4462
7.04344
1.86087
4.80389
13.1317
-3.64559
-8.15499
-3.6996
-1.28466
-2.45538
-16.9474
-39.3517
8.22095
7.12628
-13.5115
-4.34216
-7.67305
0.0501815
9.64185
-38.3242
58.4814
-25.9422
-2.81338
-13.1169
-4.68958
-7.15387
-3.48535
1.88543
6.27884
-18.7792
1.18763
27.415
-88.2536
31.0216
-3.72685
-17.1411
-65.4338
4.03279
13.1238
26.3585
61.0254
17.1175
35.4146
47.3329
-8.83973
24.6311
10.5871
6.1634
-0.60002
3.11274
1.34424
-17.2622
17.3476
24.2634
-17.7445
0.985803
-3.90772
-0.663186
-23.264
-14.3359
-0.280714
-4.31888
12.9329
-2.80761
-6.08795
-2.96775
15.1208
-59.7864
-25.0362
169.052
24.0747
0.528836
29.8351
-128.26
35.4024
-8.78051
34.9447
-19.0502
-21.3703
-16.3494
-29.2992
9.16471
7.37033
-33.4117
-21.5333
-15.8174
36.338
16.4022
9.76066
7.64628
6.57
35.0222
-9.19941
-11.4465
-21.8694
-19.8269
-25.9871
17.1669
-28.4207
-19.3877
-9.18415
-24.8296
-49.6655
-3.04507
4.19442
-2.06831
-5.48087
-18.2235
-193.455
-3.52108
-6.47405
10.9852
-16.1997
30.7775
30.9921
10.2505
16.8268
36.084
4.40372
-0.48601
3.54384
0.877364
1.10194
-18.4451
-2.50903
1.79444
-11.5415
-46.2661
-19.9897
25.2135
22.3321
3.46182
4.7929
-4.40179
-7.41096
4.72874
-38.937
-16.7117
-11.1969
-8.71442
-12.0074
-22.3374
0.0155679
7.32122
-20.135
11.0401
7.96427
-7.06429
-4.78194
-0.0314029
188.434
-31.1482
-2.66729
-6.56999
7.78025
-29.8815
-51.4509
3.8742
-0.299657
7.07331
8.39939
1.91741
-8.3241
9.36848
2.29901
-171.519
-65.276
-8.98581
-11.5402
-13.2636
13.2986
-6.38886
-8.02061
44.9911
10.6956
-12.4288
-23.6664
-37.3864
-21.0039
-8.91082
7.93539
-20.5006
14.1632
7.38365
2.34067
-49.0748
-2.58982
-1.41243
-24.2378
-1.05502
6.28272
3.29232
7.10381
-50.8906
-5.54867
-21.3057
-6.21011
-17.1526
2.39164
7.65054
7.21066
3.02847
2.2429
-11.1524
-50.3878
9.66766
-1.11461
-2.98102
-47.3093
-26.977
-1.70159
-5.23536
1.7387
0.60715
-8.45206
-26.4797
8.35745
-47.3303
5.53397
7.44062
30.1318
-11.7681
-12.7179
-15.8212
-3.61512
16.9134
28.6584
31.2622
8.75567
-15.9967
7.7778
2.41224
-51.8229
-4.47739
1.71914
-13.0056
3.80855
-2.4615
-17.3441
-3.29584
-9.05457
-3.88202
-23.3422
5.94312
-0.567183
12.1264
-6.57062
5.40567
-3.43627
4.77534
0.859729
-4.01213
-72.4917
-11.4378
-0.289648
31.6674
-144.937
-83.7531
-2.60414
0.996176
5.34043
-12.4156
31.273
-4.79802
-5.23844
11.3601
-3.68748
8.50326
10.7262
7.15052
-8.93283
0.989551
-6.11367
3.12584
0.498841
-17.2854
18.6108
-3.3572
-28.1176
2.38458
6.47517
-16.5443
-23.5308
-23.7277
-3.50193
13.9064
-28.1517
31.8314
-24.1622
3.0674
-20.5434
-21.9321
-4.19793
6.76866
-44.1645
1.41577
31.1772
7.43615
-10.0075
-6.06828
3.70836
1.55238
-28.8809
9.57684
9.28188
-5.0381
-18.0755
-9.87177
-5.50419
-5.66841
-23.5527
105.438
-1.25745
9.02749
3.95549
5.69373
-26.3248
-42.7194
12.3592
1.14282
-8.03388
-20.9167
5.11457
-4.51284
24.1108
18.0376
5.7499
1.92961
-19.8415
-26.8481
-15.4989
-1.85988
42.32
-45.3399
-5.51378
3.02175
2.87486
-3.47231
-22.8007
-29.5784
-8.31813
2.03229
8.89468
-6.14645
0.397579
-3.50516
-20.9903
11.4863
-61.0703
9.42858
6.14937
-0.419318
8.5389
1.4121
-2.72876
-10.2628
-36.9376
41.2948
105.687
99.9013
19.4001
-7.60269
17.2765
-0.977049
-16.2558
-15.0123
-5.20614
-10.27
-25.9547
17.829
-9.96435
-65.8335
-110.893
-5.10364
-4.48395
14.1895
-7.72194
2.12449
-9.05012
-5.03766
7.30528
-20.5211
1.86943