/*--------------------------------*- C++ -*----------------------------------*\
| =========                 |                                                 |
| \\      /  F ield         | OpenFOAM: The Open Source CFD Toolbox           |
|  \\    /   O peration     | Version:  2412                                  |
|   \\  /    A nd           | Website:  www.openfoam.com                      |
|    \\/     M anipulation  |                                                 |
\*---------------------------------------------------------------------------*/
FoamFile
{
    version     2.0;
    format      ascii;
    arch        "LSB;label=32;scalar=64";
    class       surfaceScalarField;
    location    "100";
    object      phi;
}
// * * * * * * * * * * * * * * * * * * * * * * * * * * * * * * * * * * * * * //

dimensions      [0 3 -1 0 0 0 0];

oriented        oriented;

internalField   nonuniform List<scalar> 
124195
(
9.8945e-06
-4.15853e-06
3.57109e-06
-9.30706e-06
1.9924e-06
-3.91112e-06
6.01301e-06
-4.09429e-06
-4.62469e-06
1.62594e-06
2.99874e-06
-1.29667e-06
-1.72536e-06
-7.28071e-06
1.03028e-05
-6.83469e-07
8.75856e-06
4.98324e-06
-1.30584e-05
-3.93648e-07
-6.4486e-06
6.02459e-06
8.17683e-07
3.40658e-06
1.27056e-06
-4.67715e-06
1.25969e-05
-7.24613e-06
7.44748e-06
-1.27982e-05
-1.23912e-05
1.81706e-06
8.78735e-07
9.69541e-06
8.51802e-06
-4.53602e-06
7.41891e-07
-4.72389e-06
6.7912e-06
6.56933e-06
-6.05415e-06
-7.30639e-06
-3.08996e-06
1.50515e-05
-1.02979e-05
-1.66364e-06
-3.88399e-06
5.12647e-06
-1.51299e-06
2.70524e-07
-9.58332e-07
3.50357e-06
-2.54523e-06
9.72686e-06
-9.28159e-06
7.04383e-07
-1.14966e-06
-3.87148e-06
-1.25106e-08
9.51114e-06
3.21145e-06
-5.52193e-06
-7.20065e-06
-1.44119e-06
3.0664e-06
7.88593e-06
3.33644e-06
5.76062e-06
-9.09706e-06
-5.88622e-06
1.05867e-05
-1.38877e-05
9.18728e-06
9.04e-06
-1.19585e-05
-9.18929e-06
1.21078e-05
8.05555e-06
-4.0176e-06
-4.03794e-06
-4.6281e-06
-9.33868e-06
1.3787e-05
1.7977e-07
6.59249e-06
3.83657e-06
-1.7197e-06
-8.70935e-06
1.01684e-06
9.79175e-06
-1.08086e-05
-5.4116e-06
5.17722e-06
2.17384e-06
-1.93942e-06
-1.23532e-05
1.02085e-05
-9.62652e-06
1.17712e-05
8.04332e-06
1.51176e-06
-9.56314e-06
8.05889e-09
-1.96903e-06
7.60788e-06
-1.29227e-05
7.2838e-06
3.48237e-06
4.73512e-06
-8.2175e-06
4.23988e-06
-1.48163e-05
1.11593e-05
-5.8295e-07
1.51203e-05
-1.00045e-05
-5.70164e-06
5.8584e-07
2.23471e-06
5.61164e-06
2.52442e-06
-1.03708e-05
-8.12024e-06
6.74808e-06
1.37217e-06
-3.81216e-06
-1.31737e-06
5.12953e-06
-1.20115e-05
-4.54653e-07
1.30042e-05
-5.38034e-07
7.53691e-07
7.06101e-06
-9.95536e-06
2.14068e-06
-1.25737e-06
6.49145e-06
-5.23408e-06
4.37496e-06
4.31272e-06
-8.68767e-06
1.42963e-05
-4.82911e-06
-1.25571e-05
-2.27092e-06
7.33117e-07
-5.49423e-06
7.03204e-06
-5.54196e-06
6.9637e-06
-3.69266e-06
-7.72315e-06
-7.12415e-06
1.40944e-05
7.52926e-07
-7.44233e-06
5.69877e-06
1.97967e-06
-2.36108e-07
1.00088e-05
1.31097e-05
-2.50875e-05
-2.76325e-07
-1.31631e-06
-1.90086e-06
3.49348e-06
5.68313e-06
6.45824e-07
-8.71209e-06
2.38314e-06
-1.24692e-05
-6.0492e-06
1.97643e-05
-1.24594e-06
2.22335e-05
-4.29874e-06
-1.79347e-05
-1.48731e-06
4.50158e-06
3.31535e-07
-3.34581e-06
1.77885e-05
1.71518e-06
-1.46168e-05
-4.88688e-06
2.87393e-06
1.1753e-05
-3.1134e-06
-1.15135e-05
-4.42372e-06
1.25155e-06
-1.14974e-06
4.32191e-06
-5.20021e-06
2.11657e-07
-5.53405e-07
-2.08966e-05
1.83678e-05
8.26841e-06
-5.73963e-06
7.19855e-06
5.82736e-06
-6.43342e-06
-1.48639e-05
1.17773e-05
1.10835e-05
-7.9968e-06
-1.29604e-05
5.45203e-06
7.50839e-06
1.01228e-05
-6.76112e-06
1.01735e-05
-1.35352e-05
5.97287e-06
-7.30402e-06
9.86405e-06
-8.53292e-06
5.15915e-06
-5.62605e-06
6.42604e-06
-5.95914e-06
-9.64893e-06
2.58104e-06
7.06789e-06
1.44255e-05
-1.08823e-05
-3.39507e-06
-1.48078e-07
2.35038e-05
-3.71229e-06
-2.27134e-05
2.92183e-06
-3.71382e-06
-2.10992e-06
3.37953e-06
2.44423e-06
1.98691e-06
8.25167e-06
-1.02386e-05
-5.28029e-06
3.60019e-05
-7.21783e-06
-2.02476e-05
1.19936e-05
-1.14698e-05
1.97239e-05
6.32496e-06
7.78673e-06
-1.32361e-05
-8.75591e-07
-7.80127e-06
-9.67291e-06
9.57973e-06
-5.39081e-06
5.48399e-06
-3.4575e-06
3.25452e-06
4.03955e-06
1.97273e-06
2.39595e-06
1.14188e-06
-5.51055e-06
-5.91576e-06
8.63322e-06
-4.36487e-07
-2.28094e-06
1.37325e-05
-4.01423e-06
3.43584e-06
-1.31541e-05
1.09702e-07
-1.23903e-06
-3.57991e-07
3.10688e-06
-1.70722e-07
1.27885e-05
-1.57246e-05
1.44455e-05
-1.24706e-05
-1.97485e-06
-1.43273e-05
4.61149e-06
-2.6374e-06
-2.08268e-06
6.84309e-06
-1.77365e-06
-2.98675e-06
-3.70704e-07
-8.76693e-06
9.58844e-06
-4.50807e-07
-1.11413e-05
5.10984e-06
1.23564e-05
1.62249e-06
1.28075e-05
-3.73804e-05
2.29504e-05
-4.07487e-06
6.48208e-06
4.42827e-06
-4.47347e-06
4.51947e-08
-3.8477e-06
3.25725e-06
-1.49223e-06
-9.31544e-06
8.10532e-06
3.00522e-06
-1.79509e-06
-3.61348e-07
-3.50049e-06
1.41368e-08
-4.24895e-07
-1.37956e-07
4.99112e-06
-1.152e-05
7.48925e-06
1.19733e-05
-7.94256e-06
-4.70007e-07
1.08903e-05
-1.04203e-05
1.03233e-05
-4.87127e-06
5.21191e-07
7.45096e-06
-1.77383e-06
-6.19831e-06
1.05596e-06
2.26064e-05
-3.95978e-05
1.59355e-05
3.09796e-06
-2.53175e-06
-4.56514e-07
-4.95419e-06
-6.8457e-07
8.16057e-06
-2.52183e-06
-9.25298e-06
-2.1074e-05
2.50466e-05
9.97063e-06
3.42372e-06
-1.33943e-05
4.23954e-06
-1.57105e-06
4.01819e-07
-3.0703e-06
-3.51257e-07
-6.25553e-06
6.23609e-06
1.11396e-05
2.19919e-06
-1.66366e-05
2.10041e-05
-6.5667e-06
1.50819e-05
-1.48192e-05
-7.52109e-06
7.25835e-06
-6.98236e-07
3.3296e-06
-5.74532e-06
3.11395e-06
-2.75764e-06
-3.70516e-06
2.74959e-08
6.4353e-06
6.92568e-07
3.29588e-06
-3.98845e-06
-9.05161e-07
-3.89815e-07
1.29496e-06
2.0245e-06
-1.68418e-06
-1.24664e-05
1.37399e-07
5.47593e-06
6.85306e-06
-2.76456e-06
1.34392e-05
2.98268e-06
-1.36573e-05
-1.84691e-06
9.84092e-07
4.06205e-08
8.22205e-07
-1.0688e-06
1.03039e-05
-1.02407e-05
1.0056e-06
3.47299e-06
3.08274e-06
-9.98643e-06
3.43071e-06
3.81325e-06
4.35409e-06
-3.92746e-06
9.96964e-07
-7.06796e-07
6.07602e-06
-6.36618e-06
-2.5135e-06
5.61936e-06
6.55163e-07
-3.761e-06
-6.1758e-06
6.05076e-06
-2.38847e-06
-8.63538e-06
7.56656e-06
1.05002e-05
-2.95416e-06
-7.54601e-06
6.91171e-06
-2.18344e-06
-4.72827e-06
-3.59704e-06
2.91657e-06
-7.17307e-07
1.39779e-06
-1.35862e-06
-1.35053e-05
-2.11736e-07
1.01232e-05
-9.91145e-06
6.44984e-06
-1.61228e-05
4.9117e-06
1.71554e-05
-3.65916e-06
-1.23359e-05
-1.16035e-06
-2.20137e-05
6.11445e-06
-1.87458e-05
-8.72358e-07
1.35037e-05
6.1934e-06
2.59761e-06
-1.52206e-06
-7.26894e-06
-2.49949e-06
8.47236e-06
1.44549e-06
-5.71901e-06
5.01809e-06
-7.44567e-07
1.06111e-05
-1.1475e-05
4.34631e-06
-9.26983e-06
-3.09472e-07
1.28299e-06
8.29629e-06
-9.19299e-06
-1.37384e-05
1.76926e-05
5.23884e-06
1.22996e-05
-8.5743e-06
-2.4589e-05
2.08637e-05
-3.6862e-06
5.64172e-06
2.51471e-06
-4.47022e-06
7.30044e-06
7.77845e-06
-3.89739e-06
-1.11815e-05
-1.15304e-05
1.35173e-05
-8.06218e-06
1.1539e-05
-6.97705e-06
3.50024e-06
-8.88422e-06
1.03215e-05
6.16708e-06
-7.60432e-06
8.54739e-06
-5.46691e-06
-3.08048e-06
-9.28019e-06
1.66807e-05
-5.50032e-06
-1.90023e-06
4.11649e-06
2.36639e-07
-4.35313e-06
-5.87406e-06
1.17253e-06
4.70153e-06
-2.54437e-06
5.53475e-06
-2.12407e-06
-8.66296e-07
6.37821e-06
-9.61466e-06
9.8572e-06
-6.62074e-06
9.95599e-06
-1.0426e-05
1.23718e-05
3.32096e-07
-1.07023e-07
-2.13197e-06
-1.15088e-05
-2.90845e-06
5.66001e-07
5.43518e-06
-3.09274e-06
1.05416e-06
-1.15177e-05
5.86173e-06
4.6018e-06
1.96931e-05
4.21293e-06
-1.23243e-06
1.23751e-06
-4.36872e-06
4.36366e-06
1.08455e-07
2.09808e-06
3.76946e-07
-2.58348e-06
4.4689e-06
1.45663e-06
-3.63894e-06
-2.28658e-06
-5.52651e-06
-1.93868e-06
2.6258e-06
4.83942e-06
2.63814e-06
8.13549e-06
-3.67061e-06
-7.10302e-06
6.34714e-06
-5.95678e-06
-3.90363e-07
1.33976e-05
-2.37651e-07
1.89153e-06
4.43193e-06
6.10099e-06
-1.7655e-05
7.1221e-06
4.10312e-06
4.75022e-06
-8.85334e-06
-1.36491e-05
9.03828e-07
1.27453e-05
1.50858e-05
1.10814e-06
-1.87494e-05
2.55542e-06
-6.94756e-06
3.7373e-06
3.21025e-06
3.86741e-07
1.23716e-05
3.14645e-07
-1.30729e-05
-9.13621e-06
9.72848e-06
7.98217e-06
-8.57443e-06
7.9642e-07
2.32013e-06
-5.9253e-06
5.62967e-06
4.98808e-06
-3.27191e-06
-1.71617e-06
-1.94055e-06
4.57478e-06
-2.63424e-06
-5.10663e-06
-2.4961e-06
4.59125e-06
3.01148e-06
6.59788e-06
3.12445e-06
-2.05659e-05
1.08436e-05
1.02927e-06
-2.77758e-06
-6.5222e-06
8.27052e-06
6.20171e-06
1.12363e-05
-8.43755e-07
-1.65943e-05
1.22763e-06
6.79898e-06
2.27735e-06
-3.83873e-06
-5.35713e-06
3.01115e-08
9.16576e-06
-1.21838e-06
1.42712e-05
-6.23308e-06
-6.81973e-06
2.4694e-07
4.11996e-07
-5.68711e-07
-9.0224e-08
-2.2205e-06
9.94024e-06
2.78043e-06
-9.07661e-06
-2.91277e-06
1.10518e-05
9.37595e-07
-4.92145e-06
4.40764e-08
4.87737e-06
-4.82749e-07
-9.40974e-06
9.7627e-06
1.29775e-07
3.42404e-06
-7.14793e-06
3.72388e-06
-1.73404e-06
-5.99932e-06
1.12904e-05
-3.55705e-06
8.63163e-07
6.16068e-06
-7.02384e-06
-1.06929e-06
-8.16568e-07
1.88587e-06
-5.7474e-06
1.53326e-06
4.62614e-07
3.75154e-06
-2.36472e-05
3.69819e-06
1.65164e-05
3.43262e-06
-1.17989e-06
5.60902e-06
-4.42913e-06
-4.36968e-06
-3.0134e-06
-3.15911e-06
1.05422e-05
-7.82015e-06
1.18129e-05
-6.7038e-06
2.71106e-06
5.23165e-06
6.97339e-07
-5.17388e-06
-7.55037e-07
-4.66456e-06
-1.6887e-05
5.02634e-06
1.65252e-05
-5.25383e-06
-9.42064e-06
1.46745e-05
-3.31893e-06
4.15946e-06
-8.60063e-06
7.7601e-06
1.53517e-05
-9.17501e-06
-1.44664e-06
-4.73001e-06
9.10625e-07
1.13515e-05
-1.14353e-05
-8.26873e-07
7.8181e-06
-2.40968e-06
-4.08004e-06
-1.32838e-06
1.19022e-05
-3.68304e-06
-2.21929e-06
-5.99989e-06
1.77822e-05
-5.01225e-06
-2.24862e-06
-1.05213e-05
-3.69973e-06
-3.49514e-06
7.19488e-06
-8.75185e-06
1.61389e-06
1.27056e-06
5.8674e-06
7.041e-07
1.44827e-05
-8.39261e-06
-6.7942e-06
5.38903e-06
1.07548e-07
-5.49659e-06
-1.7935e-07
-7.54398e-07
-2.68012e-06
1.02315e-05
1.01755e-05
-1.7727e-05
-1.42159e-07
2.76441e-06
2.99712e-06
2.37157e-06
5.43694e-06
-7.80851e-06
-1.04204e-07
-8.79353e-06
9.28483e-06
-3.87103e-07
7.24564e-07
-2.22631e-07
1.85615e-05
-1.90634e-05
-4.2908e-06
1.06639e-05
4.20684e-06
-1.058e-05
2.1433e-07
-3.558e-07
3.88412e-07
4.02602e-07
-5.63373e-06
-7.14237e-07
5.94539e-06
3.43671e-07
8.61501e-06
1.81948e-05
-2.71535e-05
5.93223e-06
-2.00451e-06
-8.76325e-06
4.83555e-06
7.15392e-06
-7.41478e-06
1.814e-06
-1.55314e-06
8.79084e-07
1.69446e-07
-8.68316e-07
-1.80213e-07
5.883e-06
-5.48592e-06
-3.9708e-07
-4.24355e-06
-8.48265e-06
6.90714e-06
5.81906e-06
-8.41226e-06
9.50387e-06
6.61859e-06
-7.71019e-06
-2.12462e-06
-8.0382e-07
4.26554e-06
-1.3371e-06
-1.28461e-06
4.04825e-06
5.12069e-06
-7.88432e-06
7.46431e-06
-4.44113e-07
-7.02019e-06
1.39095e-05
-4.32978e-06
-4.76225e-06
-8.84115e-06
8.50846e-06
5.09493e-06
-8.76514e-06
2.52625e-06
8.62454e-06
-2.38566e-06
1.10675e-05
-5.05372e-06
-6.01374e-06
3.22254e-06
2.67671e-06
-5.89926e-06
7.64003e-08
-3.83958e-06
-6.91676e-07
4.45486e-06
3.44871e-06
-1.30739e-05
6.55018e-06
3.075e-06
-3.81682e-06
-2.62813e-07
3.52018e-06
5.59453e-07
-3.16898e-07
-9.75847e-09
1.39291e-07
1.8737e-07
-1.98824e-06
-2.40646e-06
-6.3898e-07
5.03365e-06
5.85908e-07
-1.24925e-06
4.83331e-06
-4.16996e-06
-2.2252e-06
5.32627e-06
-1.07774e-05
7.67634e-06
-6.79715e-06
7.5534e-06
3.89437e-06
-4.65062e-06
1.46326e-05
-1.53842e-07
2.20086e-06
-1.66796e-05
-1.54867e-06
1.23387e-06
1.10751e-05
-1.07603e-05
-1.17119e-05
3.27692e-06
-4.68664e-06
1.31216e-05
-2.80284e-06
7.88523e-06
-5.08239e-06
-2.58798e-06
-7.64815e-06
1.32862e-05
-3.0501e-06
-2.6957e-06
-2.70251e-06
8.99788e-06
-3.59967e-06
-1.02878e-05
-4.20412e-07
1.07082e-05
-9.76493e-06
-7.44094e-06
1.791e-05
5.79168e-07
5.30383e-06
9.96421e-07
-1.7019e-06
1.17199e-06
-4.66511e-07
2.38145e-06
6.5887e-06
-5.64373e-06
-3.3264e-06
-1.41047e-05
1.15411e-05
9.36383e-07
1.62725e-06
8.89067e-07
5.17233e-07
9.75386e-07
-2.38165e-06
7.3763e-07
-3.57354e-06
2.91551e-07
6.99408e-06
-9.00055e-06
3.98487e-06
-1.97839e-06
-4.58029e-07
7.9723e-07
5.3988e-07
-5.16752e-06
-5.63498e-06
-1.14823e-05
2.22848e-05
1.9054e-07
7.347e-06
-9.8704e-06
2.33287e-06
-4.19461e-06
-2.76341e-06
6.95802e-06
-1.00202e-06
1.4774e-05
1.46793e-06
-1.52399e-05
-2.28776e-07
-4.69268e-06
5.58067e-06
-5.0687e-06
1.80606e-07
8.30294e-06
-1.65561e-05
1.25592e-05
-4.30609e-06
1.53776e-05
-1.16327e-05
1.84401e-06
-5.58883e-06
6.5148e-06
-1.14414e-06
2.96992e-06
-8.34059e-06
-2.06485e-06
-2.11312e-06
2.21057e-06
1.96741e-06
-3.25233e-06
9.87758e-06
-1.66728e-05
1.00476e-05
-4.31217e-06
3.57104e-06
1.21304e-06
-4.71855e-07
-1.98604e-06
4.90352e-06
-2.84106e-06
6.7008e-06
3.88664e-06
-6.66288e-06
-3.92456e-06
7.15362e-06
-4.28196e-06
4.26151e-07
-3.29782e-06
-2.7521e-06
1.44487e-06
4.54558e-07
8.52669e-07
4.16013e-06
-4.87067e-06
7.10531e-07
-1.84301e-06
3.45635e-06
-7.56298e-07
-8.57041e-07
-1.01398e-05
1.03733e-05
2.08614e-06
-2.31962e-06
9.58248e-07
-2.08855e-05
9.49097e-06
1.04362e-05
2.99661e-06
-1.55423e-06
-1.44238e-06
1.58945e-06
-1.044e-05
8.32879e-06
5.21812e-07
8.79155e-06
-9.79112e-06
7.01606e-06
-6.01649e-06
2.0828e-06
3.83721e-06
-5.91999e-06
-2.31316e-05
1.27923e-05
1.0866e-05
-5.26778e-07
1.39457e-05
5.09354e-06
-1.07551e-05
-8.28414e-06
-2.16008e-05
5.4659e-06
1.15524e-05
4.58254e-06
4.81567e-07
-6.95693e-08
-1.5987e-06
1.90462e-06
6.74319e-06
-7.0491e-06
5.87437e-06
-9.81271e-06
3.93833e-06
1.79935e-06
6.0719e-07
5.41216e-06
-7.8187e-06
-1.03353e-06
6.88672e-06
7.14947e-06
-1.30027e-05
9.43844e-07
4.66365e-06
1.98834e-06
-7.59582e-06
-1.05491e-05
2.80261e-06
3.61877e-06
4.12772e-06
9.99666e-06
-1.01251e-05
-1.44485e-06
1.57325e-06
-7.70584e-06
1.19766e-05
-4.27073e-06
1.45185e-05
-4.06241e-06
-9.7948e-06
-6.61243e-07
1.22577e-05
-6.70362e-06
6.95876e-06
-1.25128e-05
-5.61637e-06
5.32381e-07
2.14581e-06
2.93821e-06
-6.11315e-06
6.96247e-06
-5.62434e-06
4.77502e-06
-4.10447e-08
1.96619e-06
4.69993e-07
-2.39512e-06
-1.03322e-05
3.90325e-06
3.92094e-06
2.50797e-06
1.33689e-05
-1.46592e-05
9.83759e-06
1.4178e-06
-4.49384e-06
7.99175e-06
-4.91572e-06
1.10289e-05
-1.33982e-05
2.36934e-06
-2.51388e-07
-2.11513e-06
3.02144e-06
-6.54903e-07
3.71895e-06
5.36294e-06
-1.57215e-06
-7.50974e-06
-3.52581e-06
-4.00184e-07
1.16497e-05
-7.72369e-06
-1.80561e-06
8.50642e-06
-6.71025e-06
5.97358e-06
6.51739e-06
-5.7807e-06
5.36675e-06
2.99434e-06
6.75918e-06
1.64668e-07
-1.36143e-06
3.64656e-06
4.21166e-06
-6.49679e-06
4.91738e-06
-2.36543e-06
-2.55196e-06
2.82951e-06
-3.75265e-06
-7.36953e-08
9.9683e-07
-4.75129e-06
1.28491e-05
-8.09781e-06
2.0803e-07
6.43485e-07
-6.15536e-06
5.30383e-06
5.59934e-07
1.83793e-06
-2.39785e-06
-1.06241e-05
-4.82742e-06
1.43015e-05
1.15006e-06
1.28922e-06
-4.78135e-07
-5.75218e-07
-2.35865e-07
1.02271e-06
-1.66045e-06
-7.38688e-06
8.02462e-06
3.58947e-06
3.20709e-06
-6.79655e-06
-3.90761e-06
-1.8218e-06
1.11438e-05
-5.41435e-06
1.97449e-06
-8.66453e-06
5.14254e-07
2.57379e-06
-6.59062e-07
-2.0812e-06
1.66458e-07
3.23335e-06
-4.62102e-06
7.68459e-09
1.38e-06
9.06825e-07
-1.34561e-06
-9.498e-06
9.93678e-06
-1.39462e-05
-6.21602e-06
1.33369e-05
6.82531e-06
-1.04e-05
5.89805e-06
1.17835e-05
-7.28154e-06
6.05599e-07
-2.86999e-06
2.26439e-06
4.32424e-06
-5.83898e-06
1.51474e-06
-6.04061e-07
-1.41137e-05
-2.50352e-06
1.72213e-05
1.65281e-07
2.0859e-06
-1.65093e-06
-6.0026e-07
-4.02864e-06
4.36047e-06
3.33282e-07
-6.6512e-07
-5.15421e-06
-1.2402e-06
6.83674e-07
5.71074e-06
3.13591e-06
1.3937e-06
-7.22592e-06
2.69631e-06
-5.87325e-06
4.89916e-06
2.19426e-06
-1.22017e-06
6.46471e-06
-6.24296e-06
-2.21742e-07
-1.42842e-05
1.35642e-06
5.14515e-06
7.78259e-06
2.8452e-06
5.80877e-07
-3.35907e-06
-6.70192e-08
-1.09855e-05
4.86365e-06
1.77434e-06
4.34747e-06
8.2782e-07
3.23913e-06
-2.47158e-06
-1.59538e-06
4.57964e-06
3.52273e-06
-8.10237e-06
-1.41624e-05
1.22727e-05
1.32586e-07
1.75713e-06
-2.32323e-06
-5.64157e-06
1.33457e-05
-5.38092e-06
6.45811e-06
-5.32747e-06
-7.2491e-06
6.11846e-06
-3.06174e-06
-3.94884e-06
4.94255e-06
2.06804e-06
-6.43163e-06
4.80827e-06
1.22974e-06
2.97631e-06
-8.6042e-07
-2.11587e-06
4.42756e-06
7.18959e-07
-5.12939e-06
-1.71428e-08
-9.94941e-06
7.15454e-06
1.80637e-05
-1.52689e-05
-7.93278e-06
1.75039e-06
-8.6276e-06
1.481e-05
-5.29323e-07
6.29605e-06
-4.1294e-06
-1.63732e-06
-8.36692e-06
9.04136e-06
6.24578e-06
-6.92021e-06
-4.99595e-06
-4.33519e-06
2.47878e-06
6.85237e-06
8.05826e-06
-1.06255e-07
-5.39574e-06
-2.55627e-06
3.17836e-06
-2.6496e-06
2.27296e-06
-2.80173e-06
-3.88688e-07
1.02399e-05
-1.16586e-05
1.80741e-06
5.56828e-06
7.4462e-06
-8.44767e-06
-4.56681e-06
3.72297e-06
-4.26659e-06
1.41514e-06
-8.71513e-07
3.03645e-06
-5.69948e-06
-9.84789e-06
1.25109e-05
-1.39929e-05
4.23762e-06
-4.56891e-06
1.43242e-05
-6.98875e-06
-4.83428e-06
-2.28171e-06
1.92109e-06
-1.91463e-06
4.26631e-06
-4.27271e-06
4.38105e-06
9.3433e-07
-4.32064e-06
-9.94726e-07
-3.43076e-06
-1.04149e-05
5.43337e-06
1.72227e-06
-1.34768e-06
2.51059e-06
-2.88518e-06
-6.4093e-08
-2.72665e-07
2.88199e-06
-2.54523e-06
2.17257e-06
8.57072e-06
-5.79861e-06
-4.94468e-06
-8.11288e-07
7.68493e-07
4.27703e-08
4.20732e-06
-6.25328e-06
2.48098e-06
-4.35085e-07
-1.66402e-05
-7.26312e-06
-4.96227e-06
2.88656e-05
-2.37785e-06
-6.75901e-07
9.19943e-06
-6.14567e-06
7.01212e-07
-1.97983e-06
2.0969e-06
-8.18282e-07
3.52579e-06
-8.84253e-06
-4.16648e-06
9.48322e-06
-4.3336e-06
-3.15673e-06
2.60996e-06
4.88036e-06
9.27657e-07
-2.24018e-06
4.8429e-07
8.2827e-07
-2.37837e-06
-1.15657e-06
2.19037e-06
1.34456e-06
-7.59444e-06
1.48945e-06
1.14285e-05
-5.32352e-06
-1.15137e-05
1.35637e-05
8.08291e-06
-1.0133e-05
-3.7417e-06
1.31447e-06
-6.87522e-06
9.30245e-06
7.06838e-06
-4.56394e-06
-2.87984e-06
3.75396e-07
-8.58146e-07
4.67237e-06
-3.164e-06
-6.50223e-07
1.15437e-06
6.96535e-06
-9.55833e-06
1.43862e-06
8.34737e-06
-3.72252e-06
9.14317e-06
-1.3768e-05
-2.99321e-06
4.76044e-06
-8.25234e-06
6.48514e-06
7.21526e-06
-8.93654e-06
-4.11676e-06
5.83806e-06
-1.11352e-06
1.08404e-05
-5.70121e-06
1.31552e-06
3.4458e-06
9.39897e-07
-1.52531e-06
5.78484e-07
-2.61132e-06
3.55815e-06
-1.51076e-05
-9.06028e-06
1.08748e-05
1.32931e-05
4.92705e-06
-7.64503e-07
-2.85131e-06
-1.31126e-06
6.51393e-08
-9.21551e-06
1.08377e-05
-1.68731e-06
-1.63599e-06
2.88156e-06
-2.41361e-06
1.16804e-06
2.07575e-05
-3.76436e-06
-1.53631e-05
-1.63003e-06
2.45684e-06
6.5661e-06
-9.66712e-06
6.44201e-07
-1.29528e-06
3.27058e-06
-1.64377e-06
-5.59783e-06
1.38592e-05
-1.05949e-05
2.33348e-06
5.1782e-06
1.38693e-07
-1.7911e-06
-3.6342e-06
3.65245e-07
-7.06288e-07
3.97526e-06
-3.11261e-07
3.16321e-06
3.29235e-07
-3.18119e-06
5.60256e-07
-1.794e-06
5.40951e-07
6.92804e-07
-3.1388e-06
7.29662e-06
-2.10575e-06
-2.05207e-06
3.53893e-07
6.75224e-07
-1.33007e-06
3.00996e-07
7.64839e-06
-2.29253e-06
-5.88518e-06
-5.31569e-06
5.78988e-07
7.43935e-06
-2.70266e-06
4.27207e-07
7.03848e-07
-5.70796e-07
4.42615e-06
5.50036e-06
-5.753e-06
-4.17352e-06
-8.6588e-07
5.6838e-06
6.41642e-07
-5.45956e-06
-2.57644e-06
4.69488e-06
1.20035e-06
-3.31879e-06
-4.30983e-06
1.07119e-05
1.14565e-06
-7.5477e-06
-1.76362e-06
6.28031e-06
-2.4712e-06
-2.0455e-06
-1.10762e-06
-5.1483e-06
3.67946e-06
1.95192e-05
-1.19851e-07
2.75532e-06
-2.21547e-05
-2.6561e-06
-4.87192e-06
9.0947e-06
-1.56668e-06
2.99193e-06
4.75698e-06
-1.30986e-05
5.34973e-06
7.27742e-07
-4.12513e-06
8.43928e-06
-5.04187e-06
3.04283e-06
-1.70793e-06
9.33835e-07
-2.26873e-06
-3.00503e-06
-7.0977e-07
3.69684e-06
1.79562e-08
1.70354e-06
1.7614e-06
1.22995e-06
-8.97262e-06
-2.56052e-06
5.36477e-06
6.16838e-06
-6.53814e-06
-9.88046e-06
1.80427e-05
-1.62405e-06
-8.26427e-06
7.0607e-06
-1.79112e-07
1.38268e-06
-5.8678e-06
1.42627e-05
-7.41126e-07
-7.65377e-06
-2.68481e-06
4.52552e-06
-5.69372e-07
-1.27136e-06
-9.15474e-06
4.63413e-06
4.34569e-06
1.74924e-07
-2.09817e-06
-8.77745e-06
1.05037e-06
9.82523e-06
-9.52182e-06
6.21039e-06
1.95924e-06
1.35218e-06
-4.39795e-06
-1.8954e-06
2.45397e-06
3.83938e-06
3.03525e-06
-2.85021e-06
-9.89978e-07
8.04949e-07
5.59474e-06
4.1876e-07
-7.35303e-07
-5.2782e-06
4.98178e-06
-1.80425e-06
1.84541e-06
-5.02293e-06
8.0709e-06
-6.28567e-06
-1.08821e-06
-6.97013e-07
1.54018e-07
3.75383e-06
5.8927e-06
-9.80055e-06
2.37223e-06
-1.56797e-06
-3.97058e-06
3.16631e-06
1.71999e-07
9.37446e-07
-1.1094e-06
2.65664e-06
2.65358e-06
-5.3102e-06
8.28475e-06
-1.35037e-05
5.47913e-06
-2.60201e-07
4.41879e-06
1.47471e-06
-5.12383e-06
-7.69674e-07
-2.97047e-06
-2.92592e-06
3.47772e-07
5.54863e-06
4.67831e-06
-2.23582e-06
1.71764e-06
1.81047e-06
-2.23276e-06
-3.61529e-06
4.03756e-06
-5.662e-06
2.68522e-06
2.90821e-06
6.85888e-08
1.32551e-05
-1.87875e-05
3.54579e-06
1.98655e-06
-5.09866e-07
-1.04413e-05
1.01419e-05
8.09282e-07
1.49072e-05
-1.02095e-05
-8.93738e-06
4.23967e-06
2.22718e-06
-9.39592e-06
1.22689e-05
-5.10013e-06
-6.0212e-06
5.22306e-06
6.58172e-06
-5.78357e-06
-4.78191e-06
4.24295e-06
-4.63134e-06
5.1703e-06
-4.43705e-06
-1.6793e-06
-1.82286e-06
7.93921e-06
7.03642e-07
3.15044e-06
3.029e-06
-6.88309e-06
7.8661e-06
2.80839e-06
-1.04701e-05
-2.04379e-07
1.07975e-05
-9.49419e-06
8.83641e-06
-1.01398e-05
-3.81469e-07
1.00204e-06
-2.06042e-06
1.43984e-06
8.73584e-06
-7.35523e-07
-3.74209e-06
-4.25824e-06
-7.49012e-06
3.25619e-06
-6.09823e-06
-5.17206e-06
-6.12649e-06
3.0343e-06
1.9085e-06
-2.8404e-06
9.31888e-07
-1.5111e-05
8.04382e-06
-3.01732e-06
1.00845e-05
-4.56166e-07
3.89699e-06
1.07745e-06
-4.51829e-06
6.48191e-06
-3.58672e-06
3.29622e-06
-6.1914e-06
-8.72676e-06
3.25394e-06
1.42277e-05
-8.75487e-06
2.52234e-07
2.63838e-06
2.28759e-06
7.66754e-06
2.03734e-06
-5.82234e-06
-3.88252e-06
4.04047e-06
-7.47201e-06
-1.7405e-06
2.93505e-06
-4.39048e-06
1.11069e-06
3.44736e-07
-2.22245e-05
-1.73669e-06
1.99498e-05
4.01146e-06
-2.04044e-06
2.57453e-06
-6.84753e-06
6.31344e-06
1.56735e-05
-1.01162e-05
-6.57349e-07
-4.8999e-06
7.13821e-06
1.038e-06
-6.65549e-06
-1.52068e-06
-1.34856e-06
-7.38542e-06
7.38643e-06
1.34756e-06
8.64644e-07
2.57601e-06
-2.85445e-06
-5.86136e-07
1.40883e-05
-1.54469e-05
7.76877e-06
-6.41022e-06
-1.20798e-06
-6.44614e-07
2.08542e-06
-2.32807e-07
-3.16623e-07
3.10189e-06
-2.78526e-06
8.75094e-06
-7.40802e-06
-3.33855e-06
1.99564e-06
4.50068e-06
-6.41275e-06
1.91207e-06
8.17839e-06
-3.30466e-07
8.86238e-06
-1.67103e-05
3.50263e-06
2.54471e-06
-6.04733e-06
3.55641e-06
1.45734e-06
-3.31021e-06
-8.74331e-06
-3.27158e-06
1.16339e-05
3.81046e-07
3.41639e-06
1.11825e-06
2.10932e-06
-6.64396e-06
1.10315e-05
-3.51391e-06
-1.232e-05
4.80245e-06
1.44227e-07
-1.02113e-05
5.03868e-06
5.02843e-06
1.32157e-05
-2.6486e-05
2.26899e-05
-9.41957e-06
1.48035e-05
-9.73508e-06
-9.82496e-06
4.75652e-06
3.1459e-06
-6.98549e-07
1.9802e-06
1.64837e-06
4.84707e-06
-1.95129e-06
-4.54416e-06
8.99856e-06
8.55029e-07
-6.98946e-06
-2.86413e-06
-8.07486e-06
-3.02624e-06
2.78703e-06
8.31408e-06
3.60017e-06
-8.67504e-07
-2.73266e-06
5.57551e-06
-7.16016e-08
-6.40367e-06
8.99762e-07
-3.7395e-06
6.37528e-06
-1.9245e-06
-7.11208e-07
-7.80519e-06
5.30382e-06
-7.42324e-06
9.92462e-06
-2.10506e-06
3.65341e-06
-7.29122e-06
5.74294e-06
3.75041e-06
1.03175e-05
-9.62335e-06
-4.44459e-06
2.25454e-06
-1.89666e-06
-2.04129e-06
1.6834e-06
1.73328e-06
-2.85598e-06
-1.33389e-06
2.45657e-06
-8.26413e-07
-4.99037e-06
4.51172e-06
1.30503e-06
-5.69777e-07
1.35645e-07
3.52073e-07
8.2064e-08
1.54697e-08
-3.80014e-07
-2.05233e-07
-3.20456e-07
1.02802e-06
-2.80355e-07
2.42073e-06
-4.75249e-06
2.49914e-06
-1.67369e-07
2.63334e-06
-3.22782e-06
-1.49301e-06
2.0875e-06
-5.44818e-06
6.08052e-07
5.11595e-06
-2.75801e-07
1.16606e-06
-1.14062e-06
3.53605e-07
-3.79106e-07
-7.3113e-06
1.06806e-05
2.97075e-06
-6.3401e-06
1.33824e-06
8.73366e-06
-1.00719e-05
-9.98108e-06
1.92708e-05
-6.48271e-06
-2.80705e-06
-7.37147e-06
7.74087e-06
-3.34074e-06
2.97135e-06
-5.24871e-06
4.52913e-08
3.09837e-06
2.263e-05
-8.58204e-06
-3.40453e-06
-1.06434e-05
4.42324e-06
3.8728e-06
-2.61011e-06
-5.6859e-06
9.4505e-07
-8.09402e-07
4.44645e-06
-4.89081e-06
-3.02249e-06
3.46686e-06
-7.58096e-07
7.09541e-07
2.7853e-06
-2.73676e-06
4.24583e-07
-5.22833e-06
2.77456e-06
2.02919e-06
-5.67316e-06
4.77967e-06
-4.64987e-06
5.54334e-06
-5.82223e-06
5.81689e-06
-1.14131e-07
1.1946e-07
3.83995e-06
2.48757e-06
-2.86737e-06
-3.46016e-06
1.20486e-05
-6.50212e-06
7.37751e-07
-6.28421e-06
1.89943e-05
-2.84176e-05
9.84387e-06
-4.20523e-07
-7.16894e-06
-3.18026e-06
3.9251e-06
6.42412e-06
-2.60214e-06
3.66725e-06
-1.06511e-06
-6.37187e-07
-1.82073e-05
2.0269e-06
1.68176e-05
1.38914e-05
-1.7327e-05
9.63731e-06
2.11241e-06
6.74839e-06
-1.14987e-05
2.63791e-06
2.2006e-07
4.60198e-06
3.52996e-06
-8.35199e-06
4.13639e-06
1.53583e-05
-9.54691e-06
-9.94775e-06
-6.97166e-06
8.43873e-06
-5.82659e-06
4.35952e-06
-2.53106e-06
6.62627e-07
1.11189e-06
7.56548e-07
-2.18408e-07
-1.44536e-06
-1.146e-07
1.77837e-06
-4.74904e-07
1.04131e-06
-4.90551e-06
1.80785e-06
9.12941e-07
2.18474e-06
7.87374e-07
1.36686e-06
-5.41786e-06
3.26364e-06
-2.67808e-05
-2.87626e-06
1.78573e-05
1.17998e-05
6.2528e-06
2.07655e-06
3.51872e-06
-1.18481e-05
-1.45775e-06
5.65255e-06
-3.61534e-06
-5.79452e-07
4.31492e-06
-3.22087e-06
2.4906e-06
-3.5846e-06
-2.67395e-06
-4.36555e-06
-3.3196e-07
-4.69663e-06
1.17997e-05
-1.22665e-06
-5.87642e-06
-6.97928e-07
2.92228e-06
4.91384e-06
2.4649e-06
-5.76304e-06
-4.69936e-06
7.9975e-06
2.47296e-06
-4.36692e-06
1.99317e-06
-9.92018e-08
-5.18485e-06
4.81913e-06
3.65723e-07
7.44249e-06
5.33657e-07
-1.34734e-06
-6.62882e-06
6.3281e-06
-1.50339e-05
2.0718e-05
-1.20122e-05
-1.80996e-05
1.14599e-05
2.094e-05
-1.43002e-05
-4.24411e-06
7.33514e-06
-2.64469e-07
-2.82656e-06
-1.03564e-06
-4.70986e-06
-2.42527e-06
8.17076e-06
-3.58136e-06
-2.31349e-06
1.93638e-07
-2.60406e-06
-2.58079e-06
-3.12438e-06
4.38052e-06
-3.8602e-06
-1.10538e-05
-2.58959e-06
1.10547e-05
2.58875e-06
2.90645e-06
3.14573e-06
-8.44684e-07
-5.2075e-06
5.94533e-07
5.28133e-06
2.18239e-06
-8.12704e-06
-1.27047e-05
1.36991e-05
7.13266e-06
6.9672e-06
-7.65151e-06
3.84314e-06
-3.15883e-06
7.2123e-06
-9.17955e-06
9.24569e-06
-7.27844e-06
1.14988e-05
-1.89043e-06
-4.87136e-06
-4.73705e-06
1.07046e-05
2.98701e-06
-4.10982e-06
-9.58176e-06
-3.16459e-06
7.58281e-06
-7.46329e-06
3.04507e-06
-7.29797e-08
-2.01085e-07
2.08809e-07
6.5257e-08
-8.58834e-06
5.71739e-06
2.26732e-06
6.03633e-07
8.55795e-07
-3.73984e-08
-3.78163e-06
2.96325e-06
-4.3198e-06
-2.35223e-06
4.02381e-06
2.64819e-06
-2.20948e-06
1.89289e-06
-4.83644e-06
1.54833e-06
3.28811e-06
9.42071e-06
-1.08937e-05
-3.01946e-06
4.49247e-06
-5.99425e-06
3.81774e-06
1.72494e-06
4.51543e-07
-2.15061e-07
-1.2437e-05
1.00485e-06
1.16472e-05
-1.55642e-07
-2.01992e-06
5.72859e-06
-2.10876e-07
3.69061e-06
6.45186e-06
-9.93158e-06
1.73739e-06
2.81824e-06
1.36054e-06
-5.91617e-06
-1.23056e-05
1.01873e-05
-2.15351e-06
4.27183e-06
-5.18044e-07
-1.6516e-06
-4.80673e-06
6.97639e-06
2.42156e-06
-1.73757e-06
4.2335e-07
-1.10731e-06
-3.28623e-06
3.97697e-06
-6.90755e-07
2.04993e-06
-2.55248e-06
-8.58229e-08
5.8838e-07
4.14424e-06
5.59068e-06
-2.20073e-06
-7.53418e-06
6.30433e-08
5.20485e-06
-4.91829e-06
-3.49586e-07
-7.39174e-06
5.36742e-06
8.18013e-06
-6.15581e-06
-4.96249e-06
4.94541e-06
1.32563e-06
-1.30853e-06
2.528e-06
-2.38034e-06
-2.84662e-07
1.36997e-07
5.57983e-07
-1.96302e-06
-4.39932e-07
1.84495e-06
-3.80494e-06
4.30137e-06
-2.11572e-06
1.61929e-06
-7.14892e-06
1.14362e-05
-3.30669e-06
-9.80619e-07
-3.22838e-06
6.04222e-07
2.62416e-06
5.23763e-06
-2.39278e-06
-1.11516e-05
8.3067e-06
-3.60389e-07
-5.06951e-06
2.74228e-06
2.68763e-06
6.10442e-06
-1.22155e-06
-4.88286e-06
6.51668e-06
-1.37588e-05
-1.06117e-06
8.30329e-06
-7.37176e-07
2.20805e-06
2.60658e-07
-1.73153e-06
-6.08859e-06
-4.60983e-06
1.32912e-05
-2.59278e-06
-2.58465e-06
-4.21478e-06
4.28417e-06
2.51524e-06
9.67324e-06
3.80896e-06
-9.80956e-06
-3.67264e-06
6.37032e-06
3.26089e-05
-9.09037e-06
-2.98888e-05
4.32601e-06
-1.96751e-06
-4.18987e-06
1.83136e-06
-2.72984e-07
1.29425e-07
-9.80756e-08
2.41636e-07
4.46695e-07
-1.89057e-06
-2.13749e-06
-1.42328e-06
-5.12179e-06
5.11473e-06
1.43035e-06
-2.49302e-06
-4.43473e-06
2.22861e-05
-1.53584e-05
-1.54224e-05
-1.0236e-05
6.67732e-07
2.49907e-05
-2.4343e-06
7.84175e-06
2.07787e-06
-7.48532e-06
-8.38391e-08
4.2828e-06
-5.8116e-06
1.61263e-06
-5.13419e-06
-7.76828e-06
3.5257e-06
9.37677e-06
4.01983e-07
-3.94655e-07
1.15597e-06
-1.16329e-06
-2.15106e-06
6.19489e-06
8.52725e-07
-4.89658e-06
2.53458e-06
-4.27594e-06
-2.56848e-06
-1.41424e-05
2.17638e-05
2.58299e-06
-1.02044e-05
-2.60873e-07
-2.50454e-08
1.29342e-08
-5.90838e-06
-5.43937e-06
1.41013e-05
-2.75356e-06
3.67286e-06
1.23026e-05
-1.16005e-05
4.5331e-06
2.73718e-06
-7.27028e-06
1.42653e-06
1.24898e-06
-2.67553e-06
6.56703e-06
-4.78218e-06
2.00241e-06
-3.78727e-06
-4.7332e-06
3.84608e-06
-1.21801e-06
2.10514e-06
-4.05516e-06
2.12217e-06
1.933e-06
2.15513e-06
4.75103e-06
-6.98311e-07
-6.20787e-06
8.46382e-06
1.06117e-05
-2.03198e-05
1.24426e-06
-1.18509e-07
2.84306e-06
1.8551e-07
-1.19069e-05
-1.45906e-05
1.23552e-05
-4.66501e-06
8.35292e-06
6.30579e-06
-9.99369e-06
6.59353e-07
3.04577e-06
-3.70511e-06
5.51937e-07
-3.52701e-06
2.97507e-06
8.61022e-06
-2.80734e-06
-8.21093e-07
2.09661e-06
-1.9886e-06
1.95963e-06
-2.06763e-06
5.63306e-06
3.67783e-06
-9.3109e-06
3.47801e-06
3.95353e-06
-1.07771e-05
3.3456e-06
-8.60947e-06
7.32606e-07
2.29012e-06
5.58674e-06
-1.85646e-06
-1.08292e-05
5.65663e-06
7.02905e-06
1.16104e-05
-1.19001e-06
-4.68065e-06
-5.73975e-06
-3.88698e-06
-3.57213e-05
3.96026e-05
5.62772e-09
6.96587e-06
-1.39705e-07
9.01523e-06
-1.58414e-05
7.95822e-07
-5.41319e-06
2.94906e-07
4.32247e-06
8.30141e-06
-3.82604e-06
2.63037e-08
-4.50169e-06
-4.54158e-06
8.32202e-06
4.68975e-06
-8.47021e-06
1.33245e-07
-1.33673e-05
-1.38054e-07
1.33721e-05
-1.05289e-05
9.76659e-06
3.84255e-06
-3.08027e-06
-4.47688e-06
-2.29185e-06
1.75576e-06
5.01298e-06
-6.01751e-06
-3.59527e-06
-6.24971e-06
1.58625e-05
2.86858e-06
7.48043e-06
-3.88955e-06
-6.45948e-06
-2.8511e-07
9.16012e-07
-6.30795e-07
-6.40849e-06
4.68732e-06
1.15254e-06
5.68624e-07
-7.05201e-07
3.18337e-07
1.38798e-06
-3.80348e-06
6.9074e-06
1.36669e-06
-4.4706e-06
-1.3614e-05
3.95832e-06
4.57223e-07
9.19845e-06
-4.09143e-06
2.58295e-06
6.82058e-07
1.01873e-05
-1.87529e-06
2.06284e-06
-1.03749e-05
-2.02293e-06
4.5009e-06
-6.15967e-06
3.68171e-06