/*--------------------------------*- C++ -*----------------------------------*\
| =========                 |                                                 |
| \\      /  F ield         | OpenFOAM: The Open Source CFD Toolbox           |
|  \\    /   O peration     | Version:  2412                                  |
|   \\  /    A nd           | Website:  www.openfoam.com                      |
|    \\/     M anipulation  |                                                 |
\*---------------------------------------------------------------------------*/
FoamFile
{
    version     2.0;
    format      ascii;
    arch        "LSB;label=32;scalar=64";
    class       volVectorField;
    location    "100";
    object      U;
}
// * * * * * * * * * * * * * * * * * * * * * * * * * * * * * * * * * * * * * //

dimensions      [0 1 -1 0 0 0 0];

internalField   nonuniform List<vector> 
65206
(
(-7.08236 -4.18305 0.562609)
(1.01004 -0.586603 3.3058)
(1.18016 5.40927 -0.164512)
(2.97204 -3.8412 -0.339718)
(-1.96981 -7.79462 1.52356)
(0.803765 5.86883 -0.211212)
(0.482362 -14.8013 0.323252)
(0.0261574 -10.4605 -0.0597415)
(-2.35003 2.84927 -3.92231)
(6.55004 -2.86855 -0.588735)
(3.00981 -7.24716 -0.0384542)
(0.0150597 -12.1419 -0.12143)
(0.0493354 -12.8245 0.0335036)
(0.19304 -13.4886 0.0192885)
(0.644454 -11.048 0.755072)
(0.229508 -12.9744 0.0234123)
(-0.252633 -11.4238 -0.0662524)
(-0.295527 -11.65 -0.0622051)
(-0.238265 -10.107 -0.1278)
(0.0215581 -7.20409 -0.12644)
(-1.10711 -7.65831 -1.33047)
(-0.148481 -7.2205 0.0576299)
(0.0467605 -7.81072 0.64548)
(1.03707 5.22956 0.361007)
(0.521687 -11.0066 0.505743)
(-0.105066 -9.87337 0.0659241)
(0.704145 -11.4625 0.600257)
(-0.256746 -5.82671 1.14698)
(1.70847 -9.47618 2.1253)
(-0.430019 -9.05849 -0.0311877)
(0.407462 -8.70478 -0.0284857)
(0.421972 -7.64187 0.271312)
(0.0172898 -6.13716 0.558199)
(0.0844429 -7.29301 -1.12647)
(1.07448 -4.82531 0.152184)
(0.202494 -5.81709 2.04719)
(-0.0947475 -5.16714 3.48525)
(-2.25012 5.91427 -0.205008)
(0.253498 -6.8166 -0.160737)
(0.0698345 -12.2139 -0.258888)
(0.315851 4.10297 0.160353)
(1.19177 4.97283 -0.245268)
(-0.0852507 -8.39891 -0.471259)
(-0.678401 -4.31815 -0.281522)
(2.12595 -9.32593 1.70558)
(-2.27455 -1.52312 -0.539146)
(0.307166 -6.46665 -0.146352)
(5.4053 -14.4167 1.09564)
(2.62205 -16.8558 3.64674)
(-3.51841 -13.513 0.33342)
(1.76559 -11.6393 2.73232)
(0.83671 -8.04743 3.09035)
(-1.75736 -1.75469 -1.40312)
(1.77564 5.20689 0.215593)
(2.23728 -10.0117 0.289699)
(1.39311 5.9121 0.181029)
(0.763675 -9.63457 1.40593)
(0.354509 -11.1164 0.351171)
(1.01573 -12.6325 1.26032)
(1.66445 -10.0091 0.44004)
(0.846352 -11.2644 0.461845)
(-1.02753 -9.83997 -2.75398)
(1.38998 -10.1073 -0.226777)
(3.16895 -13.8852 0.866268)
(-1.21228 -1.0508 0.151133)
(5.71093 -11.9371 -0.0167725)
(2.79459 -12.713 0.956332)
(3.41982 -17.9037 1.46971)
(2.29809 -9.63026 1.32639)
(0.682867 -11.5757 0.439434)
(1.63797 -13.3994 0.636282)
(-0.13974 4.43328 -0.403401)
(-1.77476 -3.12052 -0.966089)
(1.29646 -5.02458 0.749771)
(1.23695 -11.3888 1.50726)
(-4.08904 -6.11047 2.93927)
(1.43973 -9.42058 0.895543)
(1.61105 -15.9551 2.08691)
(0.805202 -12.2696 0.657731)
(2.21048 2.30709 -0.00512045)
(1.41495 -15.0179 1.31066)
(1.91906 -9.10183 0.72593)
(4.19287 -24.3782 2.6645)
(0.417479 -12.2859 0.379696)
(0.796575 -18.9706 0.311954)
(2.23667 0.849634 0.422401)
(1.33739 -7.37753 1.50304)
(1.65508 -2.10925 1.04376)
(0.633007 -17.627 0.308595)
(0.377766 -9.22288 1.02525)
(0.415779 -11.2844 0.359963)
(0.154957 -9.96463 0.199436)
(-1.51189 -3.53774 -1.54978)
(1.80756 -32.8539 2.11949)
(-7.30144 -6.75473 2.07455)
(-0.680062 -6.24527 0.378634)
(3.22735 -13.4652 2.65327)
(2.15989 -14.4689 1.02304)
(-2.05007 -3.00414 0.489754)
(0.466825 -17.1498 0.871479)
(0.822552 -12.1937 0.97056)
(2.40089 -14.7365 0.116756)
(0.892014 -9.15408 0.826207)
(1.60554 -3.24513 2.31736)
(-3.19436 -11.6897 0.266161)
(-1.35244 -3.88314 0.0458075)
(1.1128 -1.2005 0.234077)
(-6.79872 -7.33447 1.72071)
(-1.69245 -2.80613 -4.42411)
(5.31638 -14.7215 0.212623)
(0.643815 0.235534 0.418755)
(2.98852 -7.92353 0.239102)
(1.21133 4.7472 1.46574)
(0.164154 -8.27878 0.105573)
(-1.7022 -5.08775 -0.202118)
(-3.25637 0.996949 2.31489)
(-2.97064 1.40022 2.83625)
(3.11739 -6.21881 0.283232)
(1.48775 -7.04817 0.148421)
(0.0832681 -5.61522 3.04433)
(-0.0342029 1.59965 0.600498)
(1.04324 -10.0632 1.49804)
(-0.00752761 -12.3387 -0.239294)
(2.01585 -14.0253 0.750219)
(-0.000355024 -9.45692 0.141686)
(-1.43008 -6.09926 -3.64963)
(0.982119 -11.8048 0.774274)
(1.09235 10.2221 2.10714)
(-2.05339 -1.25771 -3.25426)
(1.64875 -8.69874 0.367588)
(-1.31147 -4.10867 -0.288582)
(-0.349331 -9.11315 -0.243383)
(0.948871 1.74533 4.5922)
(1.69753 9.52999 0.471178)
(3.6193 -11.769 5.67167)
(-4.1401 -0.206346 -0.839514)
(-3.94172 3.69747 -2.47537)
(6.37398 -17.9071 0.292213)
(-1.75546 -6.17516 0.653452)
(0.127575 -8.76252 -0.394442)
(1.3133 -8.06508 -0.0383894)
(-2.79647 6.55766 1.49968)
(-2.20682 -4.02641 0.169601)
(2.02788 -5.0109 0.0349421)
(-0.364716 -1.95597 -1.07517)
(-0.218506 -6.70355 0.764946)
(0.160444 -10.5849 0.270424)
(0.0290106 -9.85621 -0.248781)
(2.38384 -9.45817 0.326565)
(-0.119948 -1.14885 3.83834)
(-0.76703 -6.56266 0.585719)
(0.886435 -11.0223 1.09767)
(0.358982 -3.14201 1.6409)
(-0.72518 1.58968 -0.129866)
(-1.53134 -4.17403 -0.337717)
(-2.08985 -4.30467 0.441487)
(1.04083 -8.68572 0.725386)
(-0.39126 -7.74784 0.615269)
(0.111779 -12.1176 0.0085363)
(0.130582 -7.44219 1.73801)
(-0.0231033 -8.66186 -0.513354)
(-0.602075 -10.601 -0.1113)
(-1.35776 -11.1982 0.689562)
(0.07166 -5.98938 0.176094)
(-0.359934 -9.44009 -0.452052)
(0.77118 -7.18911 0.632939)
(-2.4901 -13.509 -0.250221)
(-4.01376 -8.26151 2.16194)
(1.00201 -5.8084 0.106874)
(5.25286 -0.626853 -0.208994)
(-1.78849 3.87634 -1.06127)
(-1.40625 11.7458 2.63178)
(-0.612617 -2.92569 1.6803)
(-3.58432 -9.15979 -0.23948)
(2.64561 -6.51971 0.509759)
(-2.51732 6.92754 -1.08561)
(0.22513 -8.883 -0.758774)
(-0.212116 -0.571262 0.501122)
(1.33973 -7.67753 0.246138)
(-0.107164 -6.56898 0.768794)
(-2.27437 -3.92702 0.139458)
(4.26295 1.67963 0.712147)
(-0.185582 -5.88313 3.03376)
(-0.985111 -4.5384 0.483323)
(-0.204473 -7.83075 -0.474896)
(-1.64043 -1.49674 -0.142807)
(-1.26425 -5.11995 0.569237)
(2.9511 -11.4404 2.76429)
(-0.0285827 -6.91585 -0.0513959)
(-1.70059 -4.8989 0.151432)
(5.76799 -6.31557 -5.08367)
(-2.9269 -3.96591 -0.718333)
(-0.73373 -8.61989 -0.751567)
(2.01769 -11.5825 0.292589)
(-2.02392 -4.02633 0.887751)
(-0.118401 -7.28258 -0.22379)
(-2.20583 -9.21606 -0.750638)
(-0.619335 -7.31254 -0.182554)
(0.159881 -6.39043 -1.0708)
(0.0457176 -8.92435 -0.902055)
(-0.142292 -6.83415 -0.0950477)
(-1.08096 -7.73872 -0.274291)
(0.271818 -8.31082 -0.534031)
(-0.0075102 -6.99293 -0.2067)
(-0.259878 -7.52089 -0.23376)
(-2.41611 -10.2031 -0.173153)
(-2.93736 0.986923 2.30839)
(1.46699 -5.99703 -0.258271)
(0.470036 -8.5049 0.0292203)
(-0.284459 -8.73911 -0.215983)
(0.461398 -7.21784 0.0987482)
(0.66713 -0.176805 0.422836)
(-2.88651 2.38696 1.0036)
(3.2336 -10.2296 2.6542)
(-0.843789 3.5734 0.826362)
(0.634933 -8.95727 -0.75458)
(0.503022 -0.655024 -0.104606)
(0.41138 -7.15883 -0.446758)
(1.37481 -7.11384 -0.60345)
(1.25731 -6.30261 1.28294)
(0.338396 -7.51498 -0.320383)
(0.569138 -7.79761 -0.179923)
(0.284683 -9.1921 -0.389525)
(1.42619 -12.0645 0.611181)
(1.42466 -9.93822 0.0719751)
(-0.383104 -4.73253 4.48053)
(1.1535 -11.2448 0.616256)
(0.017125 -5.28486 3.21521)
(-3.04643 -0.753049 3.02212)
(1.33171 -9.49574 0.0119673)
(0.16601 -9.66233 -0.0607895)
(0.142658 -0.689418 0.374712)
(-1.89424 -1.28531 -0.320385)
(-1.02789 -3.84864 0.021988)
(1.33085 -3.64636 4.9205)
(0.326176 -8.43558 -0.218266)
(1.01256 -8.66673 -1.35406)
(2.59183 -6.05102 -0.0543441)
(-0.338246 -8.30632 -0.809428)
(0.0853963 -10.0071 -0.381971)
(2.05082 -7.15437 5.92092)
(-4.30234 -1.75551 -0.107831)
(-0.24848 -9.68741 -0.022474)
(0.207732 -7.61185 -0.223705)
(0.376503 -6.89233 -0.571717)
(-0.993264 -0.0314014 -0.323969)
(-0.314559 -4.44898 2.67718)
(2.10248 4.81903 0.349934)
(-1.43354 -1.87077 -0.979368)
(-0.611818 -1.42365 -1.31476)
(0.952634 -8.46711 -0.492163)
(0.472726 -0.482659 -0.0174713)
(3.10816 -6.26668 -0.91489)
(-2.84613 0.0724904 -4.99258)
(-0.94812 -7.41586 0.143474)
(1.73748 5.93568 2.70061)
(-2.45883 -4.69055 -0.0510987)
(-1.97621 -4.05676 0.388575)
(1.11927 15.2106 -0.637131)
(3.15038 7.58962 0.13875)
(-2.39808 6.32857 -0.146808)
(0.230215 1.21853 -0.96446)
(-2.8482 13.5709 0.886753)
(-0.180664 1.34416 0.807508)
(-3.30935 -0.416838 2.14635)
(-2.44767 7.18228 1.29296)
(0.0866448 4.60004 -0.647774)
(-0.845051 -0.380444 1.42991)
(-2.15951 -4.55232 -0.304993)
(-0.816609 -1.28642 -1.19484)
(-3.74013 -10.7408 -0.0225952)
(0.849981 10.3273 0.501702)
(2.57572 1.69796 -0.000870094)
(-2.76325 -8.99543 -0.320288)
(-0.0852993 -8.21599 -0.00366303)
(1.24596 -6.24715 0.227586)
(-0.605087 -7.60986 -1.15105)
(1.21187 -11.6558 -0.677971)
(-0.143344 -9.12207 0.162095)
(-0.15261 -0.841788 0.240174)
(2.91341 -6.3432 -0.322947)
(-0.884264 -7.24848 0.180488)
(-0.318038 -4.45137 4.32774)
(-1.45094 9.64271 -0.153343)
(-2.70904 1.98588 -1.21944)
(0.69372 6.63443 0.611771)
(-3.79712 4.4812 0.2284)
(2.38745 -12.9654 3.15773)
(-8.16488 3.5561 -1.98038)
(-0.236478 -9.35583 -0.489568)
(-1.13765 1.04244 -2.00099)
(-0.240076 -6.32187 1.79742)
(-0.408879 -0.816339 -1.13913)
(3.63486 -0.150783 -1.71961)
(0.732945 -9.57489 0.218498)
(3.57328 -0.874536 -1.34287)
(1.35053 -13.5474 1.73724)
(-1.33694 -0.927382 -1.50752)
(0.681451 -3.05257 -0.886925)
(-2.68001 -7.5272 0.16232)
(-2.85911 7.42391 0.745099)
(-2.7778 5.32975 -0.0405525)
(0.281021 -7.62101 0.0516614)
(-0.0555829 -0.791042 0.527373)
(-0.904535 -4.11939 -1.05004)
(1.36574 -16.9466 0.331304)
(-3.48114 0.277336 -2.46224)
(2.69782 -11.9491 3.67174)
(4.12268 2.33201 0.292516)
(-0.86879 -1.47596 0.14236)
(-1.32714 -10.546 0.590134)
(-0.81603 -0.77073 0.951359)
(-3.51159 7.07772 -1.09071)
(-0.546822 -6.30982 0.121472)
(-2.18421 -3.38034 -4.09906)
(-3.30411 0.92477 3.10185)
(-1.22711 -0.76645 -0.74604)
(-0.539117 -2.24033 1.34525)
(1.42164 -4.40492 3.08341)
(1.81957 7.22748 0.755019)
(1.89913 -9.29075 -0.459947)
(2.29409 1.65908 0.560348)
(1.87856 6.59425 -0.321433)
(-2.58941 10.5599 1.33191)
(-1.27397 0.807354 -1.44532)
(1.49819 2.96571 0.35738)
(1.60357 5.02078 -2.81563)
(0.329141 2.56543 1.88252)
(3.6994 -0.0452807 -1.37275)
(-4.27776 -6.72986 -0.158673)
(-4.47928 10.2091 0.0743376)
(-1.77031 -4.4103 0.102087)
(3.1508 -5.00034 0.688434)
(-0.624079 -2.03155 -1.07312)
(-7.73325 -3.46826 -0.124218)
(2.31233 5.53445 0.252565)
(-3.11558 6.6205 0.624717)
(-0.627922 -6.83194 -3.48148)
(-2.18105 2.50007 0.460558)
(0.575261 4.86724 -0.217548)
(-0.876131 -3.65404 -0.0236748)
(2.85877 0.101508 -0.778046)
(-4.12418 9.87069 1.85968)
(6.06343 -7.65817 -2.49775)
(0.401095 2.51965 2.54453)
(0.715488 6.68759 0.668484)
(0.140433 4.64782 0.530449)
(3.42145 0.804936 -1.76607)
(-0.99736 -4.2894 -0.129187)
(-0.0504074 9.51165 1.48062)
(5.03101 -5.70517 0.408785)
(-2.12487 0.156088 -0.372474)
(2.90607 9.34236 2.16963)
(0.746715 8.56878 0.327727)
(2.5472 4.21601 0.104714)
(-4.43476 -0.0782111 -0.102761)
(2.75157 1.63945 1.228)
(1.35716 -6.47987 1.38076)
(-1.86688 -0.326253 -0.538356)
(-1.37131 0.019984 -0.418499)
(8.76911 2.18189 -0.0696376)
(0.46055 0.142369 -0.595673)
(2.52508 1.64382 -1.08761)
(0.290478 14.8927 1.18908)
(4.65501 2.6918 1.33227)
(-4.45483 0.00463276 -0.374013)
(0.832403 6.19174 0.453255)
(-1.1743 3.99572 0.8261)
(-1.09067 -0.426849 0.491919)
(1.36603 -1.1385 -0.886361)
(-3.73413 4.5335 -3.74108)
(-1.80033 10.3877 1.1581)
(1.46408 -5.94144 1.68486)
(-2.82924 6.74404 -3.53713)
(-1.24297 1.83701 1.57412)
(-0.55763 -4.90646 -3.74778)
(-2.86355 6.26352 0.509604)
(-0.0826754 4.11526 1.784)
(-0.352947 -5.49848 -3.58881)
(0.727123 -10.5862 0.786337)
(-1.82809 2.51428 1.00571)
(2.81562 2.19676 -0.285902)
(1.86789 7.45986 -0.515139)
(-0.142932 0.969186 2.7594)
(-1.47384 6.4598 0.197841)
(0.342581 -2.27293 0.399158)
(-4.01725 10.8737 -0.628225)
(0.211957 -4.79183 4.20511)
(2.08182 -10.3633 1.96067)
(1.64808 -8.86558 3.87108)
(0.0317177 3.82607 0.411453)
(-1.10937 1.32562 -0.688396)
(-0.696402 -3.58675 0.077942)
(-0.317595 -0.579302 -0.296403)
(-1.19576 -4.21197 -3.50349)
(2.03184 0.47011 -0.297865)
(1.31173 3.0287 2.78232)
(3.23971 0.395827 1.25816)
(-0.267259 -0.443563 -0.219206)
(-0.72116 -3.14998 -0.740128)
(1.19237 6.29297 1.39814)
(-0.0408155 -2.16196 -0.185139)
(2.4255 5.69297 0.355529)
(1.86795 3.27881 2.285)
(-0.130736 -2.42035 -0.113157)
(2.20827 -13.0499 5.96187)
(1.76373 -5.08013 2.09031)
(1.21426 7.61229 1.3841)
(-0.561434 -3.47607 -0.792517)
(3.74478 0.441359 -0.523987)
(0.910368 0.685366 1.58402)
(-0.137536 -2.03283 -0.170556)
(-0.553709 4.9327 0.140866)
(4.35724 6.7409 1.91653)
(3.64669 1.51134 -1.88556)
(-1.37677 -7.32311 -1.95995)
(2.66128 1.93011 -1.92651)
(-2.64514 -0.228666 -3.81778)
(2.66322 7.19994 1.68666)
(2.18394 3.79388 -4.37236)
(-1.89511 0.257777 -2.90886)
(-1.37944 1.39837 1.82375)
(1.98104 -5.05723 0.870166)
(0.965421 -5.57118 0.166823)
(4.82398 1.97205 0.633106)
(-0.162136 -8.60478 -0.672014)
(-0.481867 -2.80609 -0.885807)
(-0.935609 -1.43511 -0.308214)
(-5.25768 3.20755 -0.210615)
(-1.212 -6.7119 0.55555)
(3.70365 0.726397 2.14432)
(-2.48116 2.48454 -0.00279941)
(-2.17053 -4.7722 -0.40342)
(-3.01012 -3.9104 0.302458)
(-3.03579 -1.46504 0.369672)
(-1.59512 -9.39344 -1.2024)
(0.185761 -8.2232 -0.840925)
(-0.894934 8.89092 -0.102321)
(-7.20123 -0.332403 1.57335)
(-0.845854 3.85771 1.49903)
(-0.641284 3.50361 -3.60909)
(-3.02773 -0.25622 -3.33614)
(0.121215 4.47235 2.07082)
(0.0181104 6.84129 0.382677)
(-4.36138 6.88918 -3.4882)
(0.503284 0.202459 -0.712174)
(-2.71105 4.33426 2.30266)
(3.87759 0.404759 -1.88832)
(3.84826 1.86384 -1.55116)
(0.298712 3.34191 -0.17686)
(7.30662 2.43609 -1.02251)
(-0.540065 -2.42747 -0.478253)
(1.97502 4.44478 3.04713)
(-0.18881 7.29887 1.41009)
(0.0640187 2.68228 0.825796)
(1.67061 2.29211 -3.06697)
(3.59218 2.82922 -1.37295)
(-0.359976 2.88006 0.618848)
(-0.502318 15.1937 -0.421292)
(-2.59863 1.92943 -3.99357)
(1.68491 6.82696 1.98644)
(3.3624 2.88485 -1.78637)
(-1.09897 4.87163 -0.669352)
(-1.09784 0.514869 -0.27371)
(-2.7162 9.7632 0.683042)
(0.318606 1.51932 0.0470862)
(-2.2768 -3.6243 0.338854)
(1.55539 3.79615 -2.70704)
(-5.25132 5.23598 0.187687)
(0.387954 10.7003 2.05546)
(-5.14096 -2.30693 0.467784)
(-0.493807 -2.13428 -0.253108)
(0.795245 5.08799 1.24318)
(3.36287 0.813793 2.52435)
(23.0869 -0.971634 -1.6371)
(-0.148404 4.82692 -1.51445)
(0.425077 12.7056 -0.5045)
(-0.101845 9.47634 0.440832)
(2.62013 -0.721923 -0.608083)
(-0.78376 -4.8677 -0.159674)
(0.83099 -6.74969 2.42329)
(-2.24409 5.04285 -4.10113)
(-1.41368 -4.34203 0.109545)
(2.75564 5.2549 -1.76523)
(2.42582 -3.20912 0.392438)
(-1.80119 5.05989 0.759683)
(-1.7182 -2.96674 1.22981)
(-1.61469 8.84199 0.459028)
(-0.29022 -1.23721 1.54466)
(-1.39543 -1.73616 0.60176)
(2.84819 -1.1249 -0.622655)
(-0.546936 -0.200447 0.90007)
(-0.685274 0.215659 0.641659)
(-0.248694 -0.00546399 0.0634379)
(0.981339 -2.60062 -0.0246682)
(-1.43237 -1.01172 2.23584)
(-1.2219 3.20115 0.0213555)
(-0.579032 0.681303 1.33283)
(7.49728 -1.39313 -3.53215)
(1.14748 -10.6859 0.144571)
(-9.26501 -1.50508 2.25938)
(-2.24174 -4.21083 -0.229209)
(-1.92411 -2.78102 1.5892)
(-4.16197 6.92759 2.47232)
(-2.36672 1.69405 0.514948)
(-0.613425 -0.481965 0.837509)
(4.08465 1.24664 0.451575)
(-0.765994 -4.29811 -0.111702)
(3.15155 0.0158531 -0.0269295)
(-1.06189 -3.57356 -0.484538)
(2.39986 -4.07652 -0.322608)
(0.328997 2.34866 -1.00218)
(4.94766 1.20487 0.743881)
(1.81152 -20.2878 1.93804)
(-1.78516 -4.29833 0.288438)
(-3.32889 1.06679 -0.133961)
(-1.26469 -8.29947 -1.65288)
(-4.13516 -8.27741 -0.292205)
(7.18725 0.654379 -0.341434)
(0.830015 3.66569 2.46405)
(-1.56098 7.29291 0.0275012)
(4.98498 3.60687 1.38454)
(0.41164 1.24575 -0.319494)
(-0.845956 -1.81542 0.06191)
(0.319684 -0.607516 0.468741)
(-0.247888 2.21488 1.60919)
(-3.14095 1.38642 0.00700335)
(-0.279326 17.6926 1.21132)
(5.01133 -2.0738 1.88587)
(-1.28647 2.33595 -1.50715)
(-1.91716 -4.11086 0.39628)
(-2.23899 -4.06855 -0.438962)
(0.76656 -5.51798 1.52294)
(3.27727 2.18619 -2.00586)
(-2.9568 4.83545 1.12948)
(-1.34223 2.25682 1.51693)
(-2.04055 6.64961 -0.494541)
(-1.2304 5.60275 0.953698)
(2.20657 11.0484 0.839566)
(0.386248 9.70007 -0.407564)
(-0.681073 -3.6391 -0.386352)
(-0.698667 7.49262 0.0594587)
(-1.86639 1.22911 1.37665)
(0.657409 5.58094 -0.25313)
(-0.711837 7.39754 -0.0766273)
(3.39722 6.44042 0.420926)
(3.10498 -1.43534 0.953868)
(3.32889 0.368797 -1.55741)
(-0.457034 11.812 0.480818)
(-2.16721 5.17464 0.556251)
(-1.7702 7.01881 -0.00397752)
(-4.29122 6.24789 0.782118)
(0.207922 9.24841 0.170965)
(0.801625 -6.49185 -0.222396)
(0.09816 -0.0576629 -0.538456)
(-1.71781 -5.03214 -0.582586)
(-1.30816 -2.11799 -0.113943)
(-2.42795 -0.709038 1.45606)
(-2.06576 -2.25533 0.359619)
(1.53047 -4.82903 -0.466371)
(1.60902 3.91572 -4.30726)
(-0.32047 2.83571 -2.20958)
(-3.34733 6.77677 0.298277)
(-0.469266 4.18984 -1.28444)
(-2.58167 6.366 -0.0182571)
(0.716768 4.18358 -1.25213)
(-4.41049 4.78737 0.219115)
(5.66752 -4.60993 -0.927747)
(-2.13157 -1.48201 0.583414)
(-0.825613 -3.23741 -0.644193)
(-0.770594 -1.76092 -0.508242)
(3.73666 3.86246 -0.740481)
(1.78287 3.64056 0.772272)
(2.10375 7.48445 1.91916)
(0.512668 3.6332 -0.101268)
(-0.715542 -2.00846 0.386586)
(0.952076 0.898633 -1.08381)
(-1.80502 3.14634 0.285829)
(2.09422 8.27538 0.472191)
(2.85857 0.607169 -0.363177)
(-0.311528 6.79066 0.913386)
(-2.88822 -1.08439 0.767078)
(1.61717 4.56707 -0.914093)
(2.37156 4.87793 -1.28088)
(1.13521 2.34535 0.0872561)
(-2.63586 7.02241 -0.259646)
(-0.664968 -4.18616 -0.380813)
(0.666852 5.22185 3.28315)
(-0.368519 18.4799 1.2399)
(-0.467019 -4.60679 0.344833)
(0.765953 -0.302534 -0.324573)
(-1.8166 -0.96158 1.64691)
(-0.965351 -4.65962 -0.0473202)
(2.28818 8.07514 0.534362)
(0.536889 16.1133 2.16818)
(-0.547877 -6.04053 -0.263813)
(1.31186 -3.61036 -1.77367)
(2.65871 3.7337 -1.00588)
(-0.381181 0.821951 0.226151)
(0.97072 -2.7711 0.14557)
(1.53387 3.30279 1.23199)
(1.26053 12.8122 1.13506)
(0.928635 -0.764403 0.102256)
(0.431731 7.6624 3.64888)
(0.263755 -6.78173 -0.305908)
(5.32782 2.48198 -2.93967)
(-2.50331 1.62622 0.260959)
(2.94862 1.31119 2.46016)
(1.20954 4.24598 0.163529)
(3.34689 1.69899 0.4078)
(-2.98284 3.64964 -0.265266)
(-0.265072 8.32386 0.886508)
(0.0139304 3.92245 -0.269293)
(1.53798 12.9282 0.580756)
(2.26326 6.96924 0.954713)
(-1.00736 3.12455 0.402812)
(1.89151 4.32328 -0.351291)
(0.569524 -5.97855 0.413565)
(0.335657 1.37429 1.12989)
(1.17513 -9.52119 -0.223591)
(-2.35581 -4.64218 0.912045)
(4.25498 -0.119211 1.04822)
(-3.51291 3.58375 1.9116)
(2.84366 -5.11681 1.65653)
(2.11117 -22.5502 0.580578)
(-0.470368 6.0003 1.3505)
(1.79289 -6.67459 0.235839)
(-0.188789 -1.34919 4.52364)
(1.32307 7.40322 1.78914)
(3.69586 3.87273 2.66967)
(-1.25012 6.06252 0.787373)
(2.734 -1.6258 0.286824)
(-8.78758 2.47816 -0.284622)
(2.46822 -8.36043 -0.316678)
(0.149721 -0.30027 0.31521)
(0.645679 2.59191 0.235213)
(0.611334 1.08834 -0.116788)
(-0.888122 -3.88682 0.76987)
(1.03745 7.26752 0.960649)
(2.69258 -0.747718 -0.358681)
(4.95193 2.21813 0.530209)
(-1.8629 -1.02388 1.89287)
(0.0315707 -5.01132 3.14597)
(0.394282 0.671709 0.79281)
(-1.23373 2.54904 0.250148)
(6.13183 -0.117614 3.24222)
(0.000437836 5.74458 -2.25853)
(1.14195 -10.0125 0.770425)
(0.725975 5.2548 -0.264471)
(3.63573 6.8336 0.80786)
(-0.806849 -3.28159 -0.204601)
(-1.34369 -2.40424 1.70852)
(-0.866908 -9.52093 -0.0306031)
(-0.610982 -7.34611 -0.991677)
(0.826286 2.62566 0.347549)
(-1.9876 -2.26328 1.24529)
(-1.62907 -3.82634 0.705746)
(5.79015 -16.9255 0.553562)
(-2.44358 2.01526 -1.66122)
(-0.451361 -4.44024 3.98125)
(0.463989 -17.4629 2.64483)
(-0.18622 -3.26405 0.290093)
(-3.45172 1.53901 0.752933)
(-5.26062 5.79182 -0.462948)
(0.221683 -7.8311 0.105164)
(0.926875 -0.537739 0.18582)
(0.160337 1.99288 0.240245)
(-1.82314 4.17686 1.40941)
(-0.549594 1.69207 -0.992469)
(-1.35715 6.86572 0.966637)
(4.45336 1.20048 0.693141)
(-0.381892 -2.63045 0.996659)
(-1.26664 -1.63133 1.68354)
(-0.67445 -1.30324 -0.82552)
(3.33871 -0.309379 -1.11767)
(-0.922489 -8.61224 -0.578919)
(-5.94751 8.24286 0.252794)
(1.16655 4.14488 0.651783)
(-0.700257 -6.38558 -0.905777)
(0.528554 -7.41456 0.495288)
(-1.08262 -0.00260827 1.62381)
(-2.24471 -5.50763 0.00563322)
(5.15831 1.44298 0.126453)
(0.480051 -2.27795 -0.313083)
(-0.231246 -7.18742 -1.16639)
(3.55954 0.737929 2.28036)
(-1.48623 -2.19451 -0.717455)
(-1.33312 5.34628 -0.0493376)
(-1.78146 -1.73791 -0.431035)
(0.816796 2.59334 1.97984)
(-2.20393 4.5026 1.36959)
(-2.34458 -3.38539 0.254429)
(-1.95643 4.41162 0.199457)
(1.9996 -6.39657 4.69537)
(1.06388 3.88481 -1.02912)
(2.4755 -5.65192 -0.533841)
(5.05992 0.610819 4.07589)
(3.42922 0.704039 -1.42838)
(5.71974 0.118227 -0.0807446)
(1.11496 6.88835 1.18361)
(3.37779 -1.09391 -0.704363)
(1.13012 -5.52869 2.11644)
(0.54319 3.7167 -0.915455)
(4.63517 9.23217 0.353662)
(-2.598 2.15078 0.347818)
(-3.13728 5.50572 0.335553)
(-7.68411 0.220576 -0.959378)
(-0.812571 -4.10897 -0.562074)
(-1.29878 -2.02591 -0.124226)
(2.70015 -6.64944 0.293855)
(-2.0953 0.399645 -0.451216)
(3.39084 3.97859 -0.96731)
(2.79437 2.19737 -2.76843)
(3.2116 -1.03357 -0.966649)
(1.28972 0.512293 -0.975883)
(1.89514 -6.2289 0.100161)
(-1.0084 -3.96506 -0.497749)
(-1.94022 -6.28111 -2.2043)
(-2.85297 7.22338 0.489837)
(0.52906 1.9814 0.402998)
(2.2397 -9.61415 3.0246)
(-0.197032 -8.50737 0.167342)
(-0.437935 -0.569973 -0.0688213)
(3.61032 -15.0927 2.6823)
(6.80375 3.05424 0.706245)
(-0.208448 -7.86949 -0.0112299)
(-2.12576 -4.56314 -4.0775)
(-3.63198 5.83742 -0.596612)
(0.294793 7.31669 -0.408532)
(2.65921 0.422653 0.57233)
(1.92552 -3.51941 0.416458)
(0.298292 6.91221 3.28157)
(1.03816 9.21574 1.49612)
(-3.72138 2.27041 -3.41828)
(3.2826 3.77573 1.79602)
(0.510107 4.03585 0.609836)
(-2.82525 -5.79551 0.257201)
(-0.894707 -0.46604 -0.414906)
(0.583287 -15.8623 5.72169)
(3.21411 -1.16756 -0.75194)
(5.52134 0.108303 0.611665)
(-0.782588 0.539469 1.5662)
(-1.72772 2.77457 -0.520954)
(-0.0334909 -7.95328 -1.06007)
(1.19777 -9.32637 0.197735)
(-0.609243 0.563278 -0.403965)
(-0.0667052 -5.35633 3.50141)
(-0.258024 -1.86124 -1.15614)
(-0.165511 2.84362 2.9539)
(-2.68326 -3.03335 0.506178)
(2.28303 -1.92891 1.22533)
(-3.82333 11.8407 2.27244)
(-4.87928 0.350636 0.464167)
(-0.280949 2.01161 -0.985405)
(-0.380537 -6.22757 0.386212)
(-0.0268399 4.01698 2.04993)
(-3.45312 11.4856 0.464281)
(-1.82756 0.564515 -0.548442)
(-2.65277 7.22326 2.66556)
(-0.226362 6.60162 0.254217)
(2.40268 7.81235 -1.093)
(-2.23472 -4.89079 -0.77158)
(-1.10026 -3.12927 0.809987)
(-0.0257705 2.32462 1.0937)
(0.34837 5.62943 1.42488)
(-0.621707 6.07409 0.0404319)
(-2.16846 0.688235 -2.39121)
(4.50701 3.03876 1.51642)
(1.91075 3.32769 3.85338)
(-1.45417 -5.96983 -3.50019)
(-2.06719 2.1488 -0.543307)
(0.58393 9.01433 3.52188)
(-1.99439 -4.83963 -0.395014)
(-0.0941984 1.75592 2.04664)
(0.920586 2.8179 2.10075)
(-2.29971 7.56943 -0.526861)
(-1.83141 -7.15607 -2.5139)
(-0.7164 -6.88323 0.145729)
(-0.819853 -6.71558 -0.0534009)
(-0.950308 1.57185 1.89637)
(-2.25759 9.77473 -0.826253)
(-0.838249 2.54554 0.0244113)
(-4.027 0.76425 0.412485)
(-0.703149 -1.85572 -0.45573)
(0.547707 0.532534 1.40314)
(-2.30494 12.3616 3.31198)
(-5.0224 0.252088 0.600441)
(-1.35211 -3.67378 0.321685)
(-0.212926 -6.94649 0.445192)
(3.19384 2.25817 -0.48497)
(-0.628128 -2.0806 -0.790603)
(-3.14096 2.76182 -0.162472)
(0.3894 -9.10439 -0.303949)
(-1.8898 -6.0987 -0.0287906)
(-3.7346 0.892063 0.276618)
(-0.71909 -6.91636 -0.035906)
(-2.73204 1.1944 2.51471)
(0.92829 11.1432 1.11852)
(-0.717916 0.873175 0.929436)
(-0.401791 8.61811 1.41351)
(1.17028 0.470266 -0.913247)
(1.28833 -5.25823 0.772787)
(1.55213 17.7937 -0.54257)
(0.119281 5.14806 1.33516)
(1.29894 3.35835 2.12623)
(1.56672 5.13473 -0.465387)
(-3.42231 2.10291 -4.31031)
(0.203216 3.402 3.07913)
(0.70754 1.4755 -0.458619)
(2.27156 0.575824 -0.533133)
(-0.29581 2.96776 1.13754)
(0.602142 6.13007 1.09964)
(0.219968 -6.0493 2.1822)
(1.64293 3.56996 3.22461)
(-3.58861 11.0973 1.51178)
(-4.25097 4.7342 1.50754)
(-0.419924 -3.61296 1.75556)
(5.73521 -5.49109 -0.960685)
(-0.927006 -3.47248 -1.13335)
(-0.545481 -0.282518 0.190181)
(-1.32673 -8.99038 -0.0899343)
(-4.39056 -0.112378 -0.307953)
(-1.16885 5.58397 -0.201625)
(-1.6601 0.270684 -1.89321)
(-10.0551 1.64806 -1.55921)
(-3.69352 2.65164 -4.23143)
(-1.51679 -4.07311 -0.196982)
(3.31432 2.0493 -1.94296)
(-0.810478 2.66337 1.7347)
(-3.76813 2.26147 -0.830246)
(-4.03744 0.661388 -2.04282)
(-5.67412 8.249 0.140718)
(-1.92648 -2.39529 0.528447)
(-3.78995 -0.132152 -0.249953)
(-2.25597 2.7005 -3.78746)
(-0.622962 12.3967 1.21544)
(-4.07682 -0.364062 -0.141317)
(1.16244 6.48541 -0.860151)
(-3.84252 2.48997 -4.47397)
(-2.74964 3.84823 -2.38295)
(3.18616 3.66662 -0.232469)
(-5.22697 8.66434 0.0863048)
(-2.90795 1.37848 -3.12512)
(-0.909191 8.78771 0.619434)
(-3.65122 -0.732183 -0.0726085)
(0.462521 13.1641 0.49144)
(3.39055 1.09055 -0.9663)
(0.958461 4.94771 0.161609)
(0.409022 13.3745 0.659726)
(2.9059 1.1539 1.09784)
(-10.1597 -2.92007 0.99147)
(-0.295235 3.35086 3.44019)
(-0.895017 -3.01551 -0.802305)
(-0.331568 16.3802 0.642884)
(-0.143813 -9.07588 -1.68943)
(-0.510302 -0.691341 -0.629519)
(-1.37274 2.53875 2.51634)
(0.874577 -7.02933 -0.175786)
(0.0820767 14.0147 1.45633)
(3.53542 2.75412 -0.416632)
(0.774401 -1.18576 1.61244)
(-1.58902 -2.00906 0.283491)
(-2.29795 15.6915 2.78258)
(-0.387338 -1.80359 -0.965034)
(0.676133 4.55845 -0.723495)
(-0.498043 0.459114 -0.479273)
(-1.81564 1.69007 -0.333006)
(-1.35623 -4.58114 0.316427)
(-0.198317 -7.31997 0.300644)
(-0.443756 -1.88939 -0.513522)
(0.823881 16.1897 0.547426)
(-0.460106 -9.42658 0.193245)
(-2.67433 5.30611 -3.84205)
(-3.71672 2.59205 -4.85159)
(1.89431 1.36397 1.59126)
(0.72729 2.76384 2.38566)
(-0.903025 -3.73596 0.118933)
(0.860186 -6.37991 1.44236)
(-2.0851 -9.89508 0.228205)
(-5.24957 9.51964 1.35181)
(0.780386 -1.85357 -0.361951)
(-5.60091 9.92943 0.484481)
(-1.44038 -4.0368 -0.262134)
(-2.01131 1.73737 0.961742)
(-1.00795 -1.40503 1.47051)
(0.170215 -8.53131 0.432238)
(-1.31127 5.34291 -3.8026)
(0.138515 -7.17637 -0.032783)
(-1.15043 -4.39609 0.673493)
(2.06821 2.24511 0.83147)
(1.67823 1.87664 -0.375706)
(-3.42538 4.8907 0.270238)
(1.66337 -9.21465 -0.20564)
(1.54706 -0.82046 1.29448)
(-2.27596 -2.03939 -0.217371)
(-0.601598 -3.22943 0.0138943)
(-1.07249 -8.08558 -1.08837)
(-0.160777 2.98373 2.89002)
(-2.29324 -3.25362 0.668915)
(9.11755 -0.388306 -0.152294)
(1.51247 7.77677 1.95314)
(1.42437 1.34057 -1.35977)
(3.30752 2.16945 -1.03904)
(-2.18402 12.2971 2.99508)
(-1.30156 -2.67386 -0.341169)
(0.821027 1.14291 5.29675)
(-1.33268 2.81463 -0.301179)
(0.547342 -0.228057 -1.11602)
(0.984646 15.2065 -0.281362)
(-0.825556 1.98762 0.0253595)
(-1.45712 12.4264 3.86998)
(1.93954 5.01992 0.442491)
(2.47889 -6.17635 0.185697)
(-0.06844 3.86405 3.56329)
(-1.17748 0.431899 -0.611649)
(3.59073 2.78114 -1.02404)
(1.24308 1.86342 -0.248248)
(-1.83656 3.56328 0.285525)
(-0.755523 -1.25221 1.13291)
(6.08976 1.54541 -0.128786)
(-3.80634 -5.74676 3.32306)
(-0.806835 -4.69226 0.0107756)
(1.25256 -5.90871 -0.382262)
(-2.46301 0.103671 -0.0172682)
(-1.99941 12.9904 3.76634)
(-1.29516 10.8885 -0.320944)
(1.20685 1.85875 -0.963223)
(-2.13442 -2.97136 -0.295036)
(9.21753 0.27043 0.181401)
(-1.57719 1.0119 -1.25413)
(1.64078 5.77989 1.50316)
(2.20653 4.82432 -3.62847)
(-2.00563 -8.07928 -2.74509)
(-3.31393 1.57745 0.330382)
(2.16202 -3.42484 -1.23364)
(-2.11711 -2.80255 0.430509)
(-0.168404 -5.69169 0.271767)
(4.81976 2.34477 0.718654)
(2.28005 6.64348 3.35618)
(0.252906 -5.58361 2.59623)
(4.59878 0.752818 0.0901793)
(-2.47451 1.77528 -3.78488)
(-1.62098 -1.855 -0.432031)
(-5.36315 2.83821 -0.950853)
(2.5414 4.25454 2.45381)
(3.2871 -7.1785 0.495973)
(3.80515 8.69109 1.49274)
(-3.48327 1.23676 -0.631573)
(-3.42543 7.73036 0.649816)
(-8.2401 -5.98072 1.39547)
(0.111999 -12.4187 -0.00488089)
(0.0926516 -6.97257 -0.12095)
(2.65379 1.30598 0.0243005)
(-2.94195 -5.17392 -0.396778)
(0.625206 -2.27037 -0.120028)
(10.0473 0.216915 0.195929)
(-1.57081 3.91602 1.77681)
(-0.338143 -4.0679 -0.167438)
(0.16178 1.6985 -0.0331526)
(-0.153891 -1.95149 0.491715)
(0.749498 -9.39461 0.292382)
(1.1836 4.05682 -0.125297)
(3.73693 -5.31536 0.378132)
(5.82058 6.31743 1.5698)
(-0.70161 -7.10488 0.438261)
(6.77719 -19.6651 1.39502)
(0.170642 -6.96037 -0.122942)
(-0.178545 6.59572 0.237239)
(-1.00254 -4.82231 -3.51553)
(-0.221618 15.2732 0.972016)
(0.351273 -6.13953 0.0124348)
(-0.467327 -4.36953 0.628259)
(-2.06347 6.19963 -2.18962)
(0.350914 -4.00539 4.61511)
(-8.64031 -4.05739 -1.68787)
(-1.17708 -2.21911 0.947573)
(-0.635389 2.09578 4.20329)
(0.0739625 -6.13038 -1.19216)
(-1.8455 11.2466 2.04331)
(0.562799 -0.103527 4.35143)
(-2.00255 -5.85679 -1.61956)
(-0.0666308 4.3061 3.36988)
(-0.489398 -0.574188 -0.402556)
(-2.21247 -2.12187 -0.361187)
(3.41941 -1.19628 0.386456)
(-0.323297 -2.00058 -0.289389)
(0.499578 8.41874 -2.00703)
(0.906826 8.33109 1.46628)
(-0.336682 10.7751 2.79589)
(0.343023 16.0271 1.99813)
(-1.45141 -1.41186 -1.50351)
(-2.56439 1.13081 -1.07419)
(-2.88015 2.3271 -4.41821)
(-2.24114 2.67262 -0.543606)
(4.63914 2.11823 0.510421)
(27.2496 0.266443 -0.984633)
(-3.51859 2.79344 -1.50613)
(-1.92191 4.20161 -0.642392)
(-3.26489 1.98103 -4.36723)
(1.08769 2.73466 2.37198)
(14.9848 3.30364 -1.49884)
(26.8079 0.396514 -0.735485)
(2.8702 3.90681 0.57735)
(-7.79598 -3.1302 0.0246013)
(0.838759 7.53981 -2.4834)
(-4.88975 1.2453 -0.918868)
(2.74015 1.97747 -0.395943)
(-0.0544059 -0.985765 -0.0904512)
(-1.9532 3.18449 2.61283)
(-0.66806 -7.07127 -0.353888)
(4.66977 -5.86726 -2.74279)
(1.13577 -8.84829 1.04727)
(1.61078 -9.32984 -0.566758)
(-5.76181 8.12013 0.637742)
(1.0348 -8.87548 -0.0421822)
(-0.640753 -6.40652 0.579228)
(-2.50044 7.50359 0.760709)
(-0.512216 -2.86196 -0.963449)
(-1.73946 -3.17104 -3.84529)
(0.208478 -8.26141 -2.57544)
(0.431485 3.11685 2.15466)
(-3.18084 0.589506 3.98637)