/*--------------------------------*- C++ -*----------------------------------*\
| =========                 |                                                 |
| \\      /  F ield         | OpenFOAM: The Open Source CFD Toolbox           |
|  \\    /   O peration     | Version:  2506                                  |
|   \\  /    A nd           | Website:  www.openfoam.com                      |
|    \\/     M anipulation  |                                                 |
\*---------------------------------------------------------------------------*/
FoamFile
{
    version     2.0;
    format      ascii;
    arch        "LSB;label=32;scalar=64";
    class       volScalarField;
    location    "100";
    object      p;
}
// * * * * * * * * * * * * * * * * * * * * * * * * * * * * * * * * * * * * * //

dimensions      [0 2 -2 0 0 0 0];

internalField   nonuniform List<scalar> 
45248
(
-0.0102618
-0.087581
0.374618
0.214135
-0.00935697
0.142172
0.188378
0.305721
0.690826
1.4977
0.847068
1.06193
1.24838
1.05953
0.979464
1.0491
0.4636
0.645902
0.567397
0.600328
0.573935
0.606965
0.552778
0.597361
0.532345
0.777874
0.619991
0.638396
0.650833
0.688119
0.602668
0.66929
0.136615
0.402491
0.400408
0.769337
0.364977
0.379507
0.529841
0.450654
0.270137
0.814828
0.752779
0.446989
0.568882
0.700296
0.550431
0.725792
0.46357
0.489514
0.744561
0.570987
0.46773
0.566459
0.577788
0.606097
0.508278
0.643991
0.819781
0.720414
0.570216
0.628122
0.662449
0.714644
0.125243
0.237897
0.0335822
0.228469
0.0929732
0.131166
0.0595912
0.126183
0.403262
0.533933
0.407382
0.561112
0.495259
0.472903
0.498141
0.488106
0.0797623
0.260621
0.109658
0.248992
0.17973
0.185126
0.186571
0.168651
0.449156
0.568963
0.450354
0.583516
0.540116
0.517529
0.540157
0.519742
0.384704
0.149255
0.328045
0.513063
0.370103
0.242736
0.413464
0.341083
0.364036
0.493593
0.348185
0.178566
0.362289
0.428507
0.261869
0.358173
0.150477
0.342877
0.505246
0.339106
0.248827
0.357832
0.339314
0.42633
0.173579
0.337207
0.504406
0.337845
0.242005
0.319895
0.351905
0.423154
0.788406
0.766723
0.821293
0.768567
0.782577
0.788649
0.788675
0.795187
0.726813
0.642328
0.758634
0.662393
0.699382
0.702886
0.704363
0.709158
0.865699
0.845116
0.90114
0.847502
0.862437
0.871912
0.875852
0.879585
0.733268
0.67983
0.785221
0.679936
0.713079
0.720943
0.724104
0.732722
0.754483
0.818846
0.757173
0.706199
0.760498
0.788216
0.724623
0.762785
0.760372
0.714471
0.798985
0.826115
0.767342
0.747003
0.806862
0.792153
0.825536
0.766533
0.712081
0.821841
0.812805
0.776377
0.808278
0.759362
0.833239
0.828714
0.721916
0.805108
0.82993
0.813449
0.801363
0.777472
0.632495
0.713186
0.763776
0.660044
0.644801
0.69868
0.66982
0.718366
0.897265
1.33707
1.03991
1.07174
1.03742
1.11302
1.03203
1.11063
0.858305
0.960777
0.928872
0.880752
0.884797
0.923486
0.890957
0.923593
0.670967
0.822427
0.809583
0.67818
0.694988
0.777382
0.71856
0.788542
0.751963
0.783323
0.672923
0.863565
0.766711
0.744029
0.767357
0.733633
0.836205
0.956074
0.974202
0.827846
0.854299
0.921406
0.871442
0.919455
0.792101
0.693577
0.864863
0.838604
0.785371
0.751973
0.819575
0.800577
0.83679
0.881469
0.951723
0.971099
0.88056
0.887098
0.926381
0.934943
1.10562
1.11746
1.1236
0.953108
0.857814
0.964098
0.775608
0.966701
1.15208
1.40766
1.15897
1.54338
1.28773
1.31445
1.36795
1.38343
1.66681
0.910461
0.659762
0.894133
1.01295
0.964178
0.984428
0.879712
1.0854
1.29536
1.26313
1.18868
1.13221
1.10139
1.11127
1.10867
1.1352
1.16123
0.973815
1.20349
1.1248
1.13992
1.17015
1.10209
1.06591
1.26963
1.12634
0.819192
1.0221
1.07961
0.896838
0.996482
1.10283
0.941043
1.24431
1.27991
0.904516
1.06884
1.28487
1.18876
0.779848
0.908538
1.36928
1.13889
0.56885
0.984069
1.03474
1.33604
0.407973
0.563235
-0.607642
0.748435
1.15211
0.84504
1.60573
1.44623
0.691299
0.639057
0.770462
0.907813
0.807913
0.600438
1.09665
0.984224
-0.387728
0.495911
2.27682
2.50936
-0.186201
-0.482132
2.71783
1.78737
1.2649
0.915075
1.50287
1.14078
1.03405
0.936504
1.34792
1.28602
0.719352
0.938613
0.665729
1.01533
1.41271
0.880476
0.91842
0.361205
0.536036
0.824135
0.689382
0.946704
1.13532
0.891391
0.568402
0.844115
0.550013
1.77734
1.06781
0.593087
1.20938
1.23221
0.816106
0.308429
0.562198
0.769022
1.00188
1.06076
0.0320576
0.950264
1.31302
0.8149
-0.206356
0.0506576
0.507029
0.613732
0.313934
0.601198
0.661472
0.384365
-0.050239
1.79477
0.922464
-0.380811
0.538971
1.27247
1.45654
1.76893
0.994258
1.11113
1.46751
1.88565
1.40974
1.33754
1.87373
1.99853
1.33265
1.02411
1.51036
1.20244
0.864357
1.02235
1.38257
1.51565
0.724555
1.65694
0.389208
-1.07789
1.19634
0.413591
0.0386272
0.208562
1.30561
-0.248792
1.19199
1.31181
0.89742
0.63127
0.631662
1.09853
1.42706
1.48429
1.5788
1.63331
1.60388
1.6114
1.56714
1.69751
1.24448
1.72735
1.72526
1.3216
1.20446
1.48856
1.36375
1.35528
1.10188
1.16007
1.10564
1.12141
1.11189
1.10714
1.1058
1.09822
1.1744
0.914178
1.13068
1.09376
1.11279
1.46806
1.11017
1.52731
1.10783
1.33572
1.09631
1.09437
1.07854
1.12106
1.0582
1.10252
1.19421
1.20015
1.14484
1.32984
1.23518
1.24318
1.24755
1.26708
1.1102
1.09979
1.14822
1.17467
1.13391
1.1224
1.11887
1.12381
1.00075
1.07701
0.832952
1.10702
0.991867
0.866515
1.14892
0.980197
1.09437
1.15799
1.20016
1.09789
1.09399
1.13281
1.10737
1.11332
1.08344
1.12615
1.10216
0.866232
1.06756
1.131
1.03317
0.972151
0.86259
0.841225
0.811811
0.80183
0.848645
0.83567
0.824088
0.817199
0.934808
1.01997
0.932108
0.271769
0.645241
0.16251
0.497526
0.177753
0.720811
0.78552
0.665579
0.668884
0.65752
0.600732
0.617998
0.584555
0.724445
0.54494
0.717696
0.714506
0.676435
0.644985
0.66359
0.665853
0.903458
0.76939
0.777407
0.648658
0.74469
0.813351
0.732247
0.761622
0.882814
0.524371
0.502179
0.774676
0.744474
0.506546
0.776968
0.72569
0.724363
0.728456
0.539413
0.610633
0.711232
0.695362
0.660525
0.669193
0.727344
0.569703
0.431671
0.456731
0.642845
0.64774
0.558299
0.563246
0.0750263
0.0687299
0.0500943
0.284375
0.0802132
0.00536686
0.165003
0.0814497
0.0149447
-0.0819257
0.0496457
0.205283
0.0448373
0.0116796
0.0820218
0.0976459
0.0573353
0.0623103
0.0702747
0.22315
0.0880982
0.0681121
0.119783
0.0861318
0.456633
0.446191
0.380086
0.578378
0.484002
0.455499
0.515449
0.477265
0.0798061
0.114177
0.301339
0.260631
0.108361
0.138874
0.230306
0.208365
-0.00168162
0.167963
0.0641804
0.0622778
0.0659009
0.115786
0.0518432
0.0865855
0.133578
0.353444
0.344942
0.335642
0.220362
0.262378
0.28822
0.328242
0.077951
0.276159
0.244835
0.075445
0.13488
0.250216
0.112921
0.204789
0.796982
0.835167
0.815256
0.782866
0.800091
0.814821
0.789361
0.808422
0.878314
0.92432
0.90305
0.875107
0.886149
0.900613
0.877339
0.901394
0.838836
0.887568
0.864317
0.83448
0.850962
0.863073
0.842717
0.863183
0.756707
0.816219
0.787215
0.708531
0.757043
0.788111
0.734577
0.77694
0.840048
0.821787
0.786199
0.834011
0.832603
0.817223
0.826423
0.80696
0.855917
0.852604
0.880951
0.835557
0.852654
0.866079
0.858899
0.870322
0.815128
0.771538
0.823814
0.800313
0.805201
0.798136
0.81558
0.808412
0.831852
0.831672
0.853666
0.884014
0.847501
0.833857
0.860795
0.854467
0.0251574
0.0846311
0.0381957
0.256969
0.07387
0.0809342
0.164407
0.127247
0.526145
1.29004
0.388306
1.11356
0.81481
0.895192
0.87478
0.840717
-0.0411442
-0.243482
-0.0944034
0.14167
-0.0700836
-0.129395
-0.0337481
-0.0682602
0.515362
0.805611
0.498209
0.628699
0.606531
0.663449
0.613569
0.621789
0.221882
0.0609454
0.430981
0.775486
0.360406
0.231253
0.532845
0.388716
0.112341
0.764089
-0.434346
-0.082332
0.146096
0.402017
0.116386
0.0577478
0.111224
0.468498
0.796644
0.437286
0.18288
0.392659
0.3811
0.582707
-0.0556905
0.355682
0.730915
-0.0471617
0.0573696
0.3344
0.229651
0.45286
0.943141
0.986778
0.924053
0.898707
0.934242
0.945787
0.913581
0.927201
1.06643
1.34129
1.06399
1.10071
1.10998
1.12964
1.08101
1.12216
0.908116
0.957017
0.888509
0.853984
0.903782
0.917976
0.880966
0.893048
0.832221
0.867887
0.806093
0.706412
0.807157
0.835243
0.767489
0.78999
0.984992
0.922217
0.89202
0.966236
0.963178
0.931773
0.967414
0.915767
0.999653
1.01009
1.00964
0.938577
0.983064
1.01414
0.967083
0.984503
0.900841
0.860871
0.905254
0.836041
0.877861
0.881571
0.872158
0.88292
0.912312
0.85261
0.946841
0.971413
0.913987
0.895307
0.949708
0.930826
0.641685
0.51208
1.25676
0.908173
0.617377
0.607557
0.520879
0.433192
0.321354
0.184312
0.534674
0.772659
0.380311
0.360002
0.537516
0.505803
0.373391
0.189087
-0.033274
0.209683
0.396467
0.203043
0.21397
0.269004
1.26788
1.09169
1.06849
1.3058
1.22423
1.13011
1.22601
1.2131
0.463957
1.03635
0.908081
0.94803
0.551232
0.825604
0.753939
0.840464
0.52578
0.828948
0.542266
0.747278
0.601498
0.693992
0.781898
0.660812
0.681167
1.102
0.972249
0.738133
0.979562
1.02973
0.928373
1.05258
0.500537
0.610255
0.860237
0.344717
0.49814
0.707944
0.485278
0.776201
0.958118
0.932905
0.674757
0.937441
0.984131
1.07511
0.965641
1.06604
1.10598
1.12135
1.16519
1.13165
1.14186
1.15037
1.13134
1.14934
0.569714
0.987237
0.171783
0.857225
0.975311
1.04025
0.810614
0.99407
1.16414
1.1445
1.09127
1.26507
1.19113
1.14967
1.21138
1.16814
0.996626
1.10083
0.937108
1.19091
0.916998
1.1434
1.12402
0.970684
1.07114
1.20837
1.18031
1.16543
1.00741
1.24937
0.753339
1.09286
1.09492
0.989818
1.14138
0.998434
0.903792
0.968477
0.95851
1.07579
1.16648
1.05746
1.17317
1.09075
1.19373
0.985334
0.985403
1.12261
-5.02692
-4.03786
3.23184
0.793115
3.43205
-0.299409
3.33085
2.64409
0.417225
1.12136
1.50212
0.957848
1.19358
1.19454
0.513363
1.07371
3.29764
0.539681
1.92139
1.5693
1.86005
2.73639
1.11803
1.62384
1.06444
0.925947
1.41986
1.06789
1.02187
0.979812
1.0735
1.06041
0.494585
1.83357
0.886566
0.876806
2.59857
0.861184
0.729944
0.596633
-3.56986
0.769052
1.23827
1.52788
0.962231
1.1122
-0.662881
1.41955
2.03383
1.10106
0.933166
1.47747
1.20475
0.995849
1.09862
0.903055
1.89537
1.37074
0.841435
1.30495
1.27906
0.911348
1.29876
0.723034
-0.196185
0.738489
-0.20074
0.628918
0.0345686
-0.0484691
0.0708139
0.0432972
0.674074
0.526459
0.336574
0.566041
0.502031
0.399737
0.534352
0.504858
-0.229111
0.00724615
-0.0654232
-0.0686758
0.175975
0.0852327
0.109182
0.174918
0.857661
0.574615
0.1377
0.673489
0.476357
0.127847
0.763696
0.29437
0.241477
0.0707251
0.361421
0.368979
0.482227
-0.00567338
0.584328
-0.0676199
0.274741
0.505661
0.366569
0.123696
0.303129
0.472027
0.0380386
0.350439
-0.0284877
0.679964
0.420087
0.299551
0.0396311
0.165853
0.223503
0.18763
0.159399
0.196431
0.480375
0.288711
0.161053
0.100744
0.355943
0.275117
-0.37473
-0.311475
0.524734
0.606384
-0.741749
-0.497487
0.262693
0.826934
-0.376616
-1.02301
0.519935
0.575285
-0.0109914
-0.0329544
0.394468
1.08381
0.59482
0.544526
0.509267
0.617765
0.548999
0.504785
0.50271
0.558861
0.677148
0.653951
0.556338
0.567219
0.679181
0.703834
0.433814
0.51684
-0.416325
0.341376
0.369886
0.180958
0.872978
0.893846
0.504277
0.585163
-0.159354
0.577501
0.231733
0.367045
0.432876
0.861495
0.232694
0.140345
0.158506
0.172967
0.556111
0.467611
0.379324
0.51288
0.513327
0.663426
0.633255
0.50347
0.407229
0.418736
0.644719
0.381536
0.657763
0.43181
3.47872
4.81756
-0.229081
0.471423
1.72391
2.03953
0.0686124
0.799434
3.19872
2.12983
0.202087
1.13196
1.51355
1.62552
-0.445704
-0.621501
0.658278
0.6256
0.76615
0.958492
0.701451
0.699376
0.823043
0.740458
1.04244
1.17285
0.985751
1.10216
1.12899
1.15221
1.13043
1.12297
0.391747
0.556633
1.20076
1.54492
-0.105946
1.10161
1.19595
0.7803
0.887908
1.36257
0.559697
0.475212
-0.0891863
0.610545
-0.00448883
0.749259
0.801135
0.880785
0.44109
0.820408
0.942339
0.895145
1.01794
0.772258
0.850215
0.803962
0.505499
0.532954
0.69438
0.939607
0.75083
0.827458
1.11217
1.183
1.15714
1.11402
1.1119
1.15244
1.12986
1.16851
1.20378
0.445373
-0.0519704
-1.56335
1.6847
0.460261
1.07533
0.41571
1.06193
0.0641627
0.180123
0.436782
1.23802
0.12669
1.05679
0.691904
1.14981
1.41595
1.02703
1.09989
1.10233
1.15144
1.22405
1.21287
1.03156
1.0988
1.13729
1.15585
1.08849
1.09462
1.22191
1.18818
0.998683
0.441979
0.0787662
1.16774
1.14243
1.07271
0.927158
0.96431
1.117
1.17638
1.22486
1.38921
1.15086
1.24037
1.41651
1.14724
1.1623
1.03294
0.772092
0.497213
0.900004
0.781538
0.802022
1.09672
0.572124
0.57035
0.673121
0.589108
0.571282
0.601076
0.605848
0.629424
0.570306
0.554743
0.64391
0.554856
0.556615
0.591787
0.588691
0.611367
0.730771
0.713633
0.753705
0.700369
0.716386
0.73411
0.727133
0.736366
0.587651
0.564983
0.653883
0.608769
0.585607
0.603041
0.625744
0.630442
0.571852
0.660272
0.575432
0.561836
0.599072
0.618724
0.574404
0.601518
0.59662
0.586754
0.672045
0.683693
0.616089
0.607131
0.660693
0.645769
0.681322
0.609166
0.592639
0.674711
0.658892
0.625278
0.647604
0.620311
0.698472
0.682479
0.613876
0.685061
0.687115
0.664155
0.66646
0.640529
0.193975
0.312478
0.358333
0.294044
0.210449
0.298914
0.25006
0.346359
0.406778
0.485248
0.520635
0.523996
0.465576
0.475367
0.495838
0.51211
0.457467
0.526206
0.520331
0.540608
0.460515
0.496276
0.490083
0.529192
0.423006
0.5278
0.544534
0.568683
0.49537
0.517827
0.531385
0.543286
0.359201
0.344816
0.359268
0.473218
0.388774
0.377203
0.405674
0.387772
0.411316
0.505873
0.50043
0.409907
0.424467
0.485001
0.42477
0.46986
0.377372
0.402441
0.510457
0.522888
0.431237
0.425695
0.48312
0.469477
0.418287
0.533225
0.52303
0.531376
0.489698
0.517196
0.504921
0.535458
-0.0937225
0.406841
-0.137303
0.424055
0.319058
0.677584
0.152154
0.542073
0.650016
0.817096
0.764785
0.634376
0.702451
0.794902
0.622579
0.7452
0.0456383
0.570085
0.557355
0.358172
1.08596
1.74297
0.693111
1.48969
0.653752
0.549016
0.597591
0.623819
0.632767
0.59934
0.656873
0.620473
0.598936
0.600583
0.465189
0.741144
0.492689
0.705031
0.657177
0.489142
0.809917
0.824863
0.766062
1.26105
0.723555
0.770523
0.535068
0.575055
0.317369
0.526121
0.694494
0.544881
0.675341
0.496821
0.538381
0.530351
1.11495
0.607148
0.847811
0.680694
1.23378
0.666518
0.46375
0.748884
0.127058
0.371552
0.382564
0.101649
0.23022
0.346436
0.375414
0.405122
0.589333
0.670781
0.641082
0.736861
0.666579
0.664351
0.717044
0.710456
0.492303
0.60018
0.550704
0.649908
0.558394
0.584187
0.587066
0.611898
0.562009
0.911437
0.855104
1.01191
0.888839
0.922678
1.0758
1.05847
0.529586
0.393112
0.444875
0.741907
0.589968
0.459044
0.663733
0.653077
0.556199
0.759421
0.620257
0.503778
0.631399
0.704248
0.56107
0.611324
0.454898
0.572835
0.839348
0.721216
0.566324
0.777469
0.685562
0.821814
0.561618
0.727147
0.79843
0.668721
0.61923
0.68868
0.645831
0.723852
0.937622
0.858503
0.932845
0.962989
0.932705
0.913786
0.955649
0.927302
0.760414
0.616657
0.670372
0.700047
0.721857
0.689482
0.719745
0.679541
0.877178
0.71216
0.750798
0.834931
0.819723
0.779887
0.823581
0.76027
1.01242
0.877204
0.974348
1.1465
1.00029
0.964149
1.08061
1.03779
0.8375
0.910131
0.951301
0.824073
0.86073
0.900245
0.862169
0.917283
0.807882
0.78141
0.731564
0.879629
0.809144
0.763845
0.815568
0.774994
0.923467
0.993717
0.851224
0.940269
0.929559
0.940194
0.912682
0.920696
0.880452
0.861564
0.786175
0.722605
0.830031
0.833543
0.768989
0.787023
-0.316662
-0.141216
0.022033
0.151242
0.467968
1.03798
-0.0798457
0.828516
0.313441
0.519483
0.559683
0.728972
0.443897
0.438341
0.478575
0.451784
-0.242716
1.08194
2.77848
0.416833
-0.324772
0.46789
-0.121044
0.397256
0.453593
0.718931
0.669669
0.612783
0.577948
0.891614
0.391684
0.810065
-0.0797688
0.51337
0.609017
0.405436
-0.0645879
0.43237
0.203231
1.14961
0.117231
0.806386
-0.147667
0.235133
-0.0391922
-0.0440281
0.115119
-0.421675
0.676037
0.430746
0.251872
0.261833
-0.340562
0.908519
0.372947
0.556963
0.329667
0.578899
0.679322
-0.248967
0.175998
0.718438
-0.157625
0.757807
0.776092
0.74601
0.761519
0.750273
0.762334
0.756979
0.759079
0.754059
0.693925
0.610494
0.690175
0.61344
0.658583
0.65495
0.655997
0.652924
0.753461
0.741772
0.760094
0.719908
0.742485
0.750476
0.738504
0.746325
0.705115
0.616418
0.680648
0.646875
0.67409
0.659428
0.67176
0.66036
0.721981
0.745264
0.727138
0.658122
0.719552
0.735739
0.687967
0.718846
0.720924
0.650989
0.720413
0.747747
0.719234
0.686019
0.739093
0.716816
0.742016
0.724847
0.655737
0.70351
0.727934
0.717216
0.705504
0.684503
0.744203
0.701261
0.64981
0.717494
0.726204
0.702978
0.71377
0.674016
-0.137592
0.105489
0.559071
0.21502
-0.0130965
0.415719
0.42032
0.450593
0.503621
0.251199
0.654969
0.319348
0.271818
1.34621
0.461421
0.275693
0.721581
0.792112
0.811094
0.647089
0.698104
0.764129
0.670142
0.775193
0.507604
0.572286
0.561359
0.563739
0.664599
0.64972
0.76149
0.756737
0.0487961
0.557751
0.354975
0.284291
0.378902
0.569965
0.331879
0.547423
0.75122
0.683178
0.797969
0.736579
0.281615
0.66272
0.768688
0.731145
0.727168
0.715556
0.676795
0.676374
0.60259
0.715193
0.645103
0.766061
0.722924
0.795835
0.654718
0.771172
0.743942
0.673365
0.733812
0.655791
0.101905
0.109586
0.267836
0.28471
0.131188
0.159246
0.247189
0.234299
0.0966089
0.142706
0.272188
0.264055
0.178747
0.205471
0.234642
0.26198
0.392036
0.394057
0.472893
0.521668
0.438938
0.449453
0.504774
0.487253
0.422277
0.404658
0.520909
0.559758
0.449029
0.443885
0.534956
0.513252
0.165204
0.299746
0.317006
0.314363
0.221408
0.266948
0.27169
0.316801
0.143516
0.307934
0.307317
0.321802
0.227467
0.264456
0.288806
0.315095
0.371835
0.397349
0.382693
0.503367
0.40373
0.388034
0.429413
0.407737
0.383244
0.501875
0.372468
0.360347
0.405496
0.431983
0.372592
0.393542
-0.736303
-0.800775
-0.27169
0.367315
-0.947455
-1.38893
-0.589235
-0.0853837
-1.4283
-0.170278
-0.724152
-0.93124
0.485751
-1.61347
-0.726444
-1.67873
-0.221008
0.0220822
-0.0382394
0.203808
-0.268066
0.0267184
-0.457893
-0.394566
0.465783
0.202165
-0.0418515
0.879756
-0.124137
0.409204
0.644229
0.351947
-0.164051
-0.152817
-0.416333
-0.520453
-0.355039
-0.577182
-0.106962
0.171428
-2.33101
-0.565655
-0.762827
-0.677851
-1.1352
-0.508953
-0.348668
-0.0437351
-1.05513
0.506469
0.255789
0.216167
-0.3133
0.201269
-0.135479
0.309106
-0.447045
0.405499
0.344361
-0.292259
-0.873724
-0.473755
-0.691379
-0.374119
-0.804705
0.127655
-1.55554
0.873656
-0.81077
-1.47658
-0.475939
-0.385348
-0.486211
-1.86946
-2.2167
0.370297
-0.60476
-1.68044
0.6466
-1.33561
-3.60835
-2.33855
-0.822169
-1.02449
-0.296619
-3.60078
1.45094
-0.866569
0.563648
0.0631238
-0.246684
0.655538
0.207719
0.0208699
0.543891
0.441663
0.028625
-0.444296
0.0192637
0.294676
0.658689
0.614061
0.239489
0.235968
-0.0854933
0.736696
-2.99735
-3.83447
-0.536611
0.554878
-1.26815
-0.0328831
0.975637
0.0390054
0.448368
-0.153239
0.0109487
0.0188428
-0.201895
-0.222203
-0.685776
-0.19066
0.276601
-0.662901
1.17344
0.0114776
0.98012
-0.151398
0.145045
0.321846
0.323494
0.31926
0.228597
0.274697
0.289187
0.326938
0.476784
0.487356
0.538341
0.541687
0.507373
0.547451
0.530564
0.545312
0.483693
0.539495
0.576407
0.597304
0.520536
0.550157
0.579464
0.575178
0.470671
0.555504
0.602
0.595477
0.533865
0.55087
0.580955
0.584959
0.366291
0.390056
0.389809
0.493345
0.419678
0.391305
0.445034
0.429492
0.412196
0.524828
0.566617
0.433252
0.459904
0.509059
0.487024
0.523986
0.45378
0.443377
0.535191
0.579588
0.470004
0.468785
0.52618
0.520383
0.472536
0.585594
0.555528
0.572316
0.526967
0.551452
0.549126
0.558876
0.782745
0.767166
0.742185
0.755919
0.774207
0.764252
0.758228
0.747266
0.722557
0.636352
0.620528
0.644145
0.678268
0.658364
0.656361
0.621098
0.680323
0.600286
0.589784
0.595877
0.636015
0.623944
0.615636
0.600738
0.707752
0.64973
0.608288
0.652117
0.677555
0.651225
0.648327
0.623544
0.741849
0.716311
0.733145
0.678076
0.719609
0.724028
0.713177
0.714509
0.727233
0.653831
0.647205
0.705542
0.702885
0.662922
0.69812
0.653972
0.696498
0.713382
0.653591
0.619027
0.682454
0.69374
0.647141
0.660783
0.681422
0.603968
0.63477
0.614407
0.641676
0.625412
0.635228
0.614939
0.085471
0.184427
0.144533
0.276938
0.136923
0.163785
0.134984
0.163269
0.372438
0.490629
-0.284704
0.249495
0.0853596
-0.324639
-0.0584927
0.263418
0.184585
-0.219911
-0.208077
-0.00194244
0.163997
-0.147965
0.0906667
-0.150139
0.40239
0.425986
0.441014
0.503353
0.452001
0.394466
0.456609
0.422349
0.192134
0.235621
0.265082
0.299699
0.256825
0.223919
0.352169
0.257655
0.392948
-0.0989372
0.0332782
0.190787
0.3674
0.0351963
0.273924
0.19029
0.25535
0.274091
0.321878
0.309513
0.220466
0.298004
0.267888
0.344994
0.255682
0.0488417
-0.00724004
-0.135769
0.0794263
0.0650697
0.0819709
0.00180541
0.13496
0.285333
0.305021
0.280416
0.213503
0.27384
0.247137
0.303945
0.45882
0.582922
0.580407
0.550415
0.521434
0.576791
0.542443
0.578387
0.484327
0.577095
0.589023
0.53785
0.510134
0.555131
0.534485
0.56759
0.410843
0.517212
0.524016
0.499443
0.454378
0.495387
0.487662
0.516714
0.367492
0.372981
0.355159
0.478876
0.409283
0.361161
0.413379
0.399576
0.431476
0.531814
0.557623
0.427283
0.449295
0.50869
0.456163
0.501741
0.407196
0.383702
0.510804
0.513067
0.42952
0.426775
0.485236
0.477061
0.450586
0.53991
0.54065
0.569977
0.509137
0.524319
0.536247
0.538935
0.808878
0.78685
0.833732
0.8043
0.797801
0.801697
0.798413
0.807004
0.698102
0.618114
0.728653
0.573662
0.657645
0.661779
0.652532
0.664847
0.873904
0.847848
0.909565
0.797703
0.856301
0.889189
0.851013
0.88417
0.708612
0.525901
0.762127
0.618503
0.648893
0.681923
0.631307
0.678931
0.75557
0.824785
0.730406
0.630272
0.752051
0.789234
0.670006
0.752641
0.761304
0.62402
0.799142
0.828923
0.763273
0.705063
0.816844
0.777954
0.829761
0.720038
0.628263
0.734647
0.768095
0.747361
0.74119
0.709441
0.833611
0.754778
0.623482
0.794373
0.804705
0.759071
0.769269
0.702392
0.889976
0.959495
0.915803
0.806599
0.861985
0.925126
0.859186
0.878809
0.681104
1.25737
0.797264
0.334169
-0.0769496
1.62042
0.482479
-0.226928
0.913977
1.04201
1.06415
-0.0159779
0.0295424
0.667966
0.218921
0.536716
0.707262
0.55225
0.535143
0.661262
0.69571
0.635409
0.66168
0.582932
0.88731
0.901547
0.779991
0.804915
0.854554
0.861781
0.703508
0.791709
0.95165
0.710141
0.747558
1.29967
0.646298
0.548105
0.678638
-0.228643
0.965351
0.74442
0.770378
0.714441
0.708144
0.659274
0.703803
0.727256
0.914277
0.312568
0.368657
0.0679636
0.467134
0.626133
0.368312
0.153071
0.242464
1.74118
0.428753
0.764383
1.22294
1.38425
1.24485
1.59161
2.84445
2.40383
1.63203
1.86287
1.97652
1.89035
1.83314
2.06397
-0.220436
0.154583
-0.243435
-1.16293
0.0495258
-0.291635
-0.133491
-0.347146
0.997882
1.49259
0.997253
1.04302
1.20796
1.28906
1.13151
1.27873
1.49981
2.34634
1.14144
1.87037
1.54219
2.31626
1.87813
1.21257
1.99457
2.11341
0.736718
0.559703
1.82815
2.06081
0.735803
1.2748
2.2199
0.998388
1.8073
0.0280897
0.551417
1.05955
0.781574
1.09797
0.762499
0.596355
2.13656
1.11427
-0.178796
1.00518
1.01999
2.09623
0.605367
0.611161
0.701077
0.583308
0.601239
0.641414
0.626516
0.654936
0.628103
0.625048
0.699636
0.583575
0.620602
0.659414
0.632206
0.66687
0.745517
0.74267
0.769608
0.718676
0.739039
0.755567
0.743453
0.75475
0.565728
0.552188
0.640077
0.540693
0.557779
0.595517
0.583087
0.606352
0.613317
0.685281
0.578826
0.574619
0.63266
0.641742
0.588536
0.617566
0.65299
0.622822
0.718168
0.715023
0.66554
0.646824
0.698976
0.689833
0.694943
0.600658
0.599013
0.672641
0.669718
0.634348
0.658432
0.617914
0.721464
0.692813
0.633312
0.720492
0.707777
0.686867
0.697403
0.66273
0.110641
-0.610929
-0.003171
-0.284107
0.214903
-0.458013
0.507629
0.0438852
-1.53315
-3.17069
-2.54072
-0.592437
-1.4182
-2.58458
-1.36673
-1.95827
-0.524978
-1.30513
-0.904123
-0.131725
-0.0873584
3.33927
-0.895989
0.415182
-0.0167374
0.113447
0.652955
0.862399
-0.135502
-0.00160416
0.109474
-0.12993
-0.0981363
0.195656
-0.119802
0.155837
0.00839835
-0.108198
-0.767521
-0.600115
-1.35826
-0.819493
-1.46874
-0.768909
-0.488002
-0.917803
-1.19242
-1.65507
0.37037
0.24549
0.740174
0.797054
-0.135397
-0.223867
0.427829
0.193358
-0.155513
-0.115542
-0.141191
-1.48628
-0.979619
-0.595749
-1.41859
-0.64687
-2.51232
-2.18352
-0.785773
0.0974719
-0.0192576
-1.00542
-0.560759
-0.160078
-2.57701
-2.95568
-4.25551
-0.378773
-1.05462
-4.33038
-2.78003
1.25512
-1.77148
-3.67452
-3.27886
0.137232
-0.75847
-4.15037
-0.472174
-1.74036
0.312441
0.503559
-0.10497
0.600271
0.564606
0.539584
0.204547
-0.120503
-0.936105
-1.05657
0.704875
0.449406
-0.143734
0.478781
-0.826356
-0.530368
-2.11569
-0.889722
-4.63542
-3.47031
-0.514078
-1.30788
-4.3351
-3.89196
-1.3309
0.0726174
0.428296
0.313206
-0.148553
0.140742
0.504337
0.524311
-1.66269
-0.182317
-0.06363
-2.17479
0.6951
-1.06311
-0.0922848
-0.79518
0.3905
0.277191
0.462058
0.994457
0.0430374
0.068328
0.495989
0.495484
0.37349
0.250579
0.554573
0.728177
0.550072
0.519371
0.552597
0.494877
0.95325
0.704937
0.941712
0.908979
0.798159
0.666355
1.06014
0.955568
1.28482
0.937327
1.04689
1.02484
1.0946
0.945005
1.111
1.01164
0.408531
0.715362
1.0069
0.808632
0.704786
0.652835
0.795174
0.844407
0.313657
0.724165
0.618057
0.718781
0.578638
0.730444
0.557525
0.682361
0.962259
1.41133
0.83598
0.969536
1.18085
1.22541
0.77983
0.942382
0.944114
0.836363
0.819706
0.690359
0.870033
0.595835
0.736419
0.780392
0.786896
0.759065
0.793336
0.731597
0.77515
0.774206
0.763927
0.761449
0.679316
0.601596
0.558287
0.552969
0.622928
0.596026
0.583246
0.540766
0.725911
0.548169
0.581211
0.568747
0.595536
0.555509
0.570596
0.542271
0.637573
0.556432
0.563917
0.539339
0.598313
0.577466
0.577465
0.551466
0.703744
0.683679
0.679856
0.603401
0.676302
0.691838
0.642799
0.657807
0.682709
0.580725
0.568622
0.649285
0.65617
0.59043
0.657894
0.597321
0.683802
0.666657
0.583798
0.587511
0.665843
0.64463
0.60275
0.59502
0.663132
0.564925
0.556145
0.549116
0.626407
0.579978
0.579241
0.563801
0.0916439
0.255165
0.0793293
0.259798
0.182855
0.194305
0.172535
0.189581
0.388114
0.480389
0.384003
0.48941
0.445928
0.45135
0.445615
0.448655
0.0808657
0.277161
0.147057
0.250052
0.193155
0.227875
0.179254
0.240551
0.412197
0.502271
0.392812
0.546507
0.472228
0.470044
0.473711
0.472751
0.320887
0.18755
0.337089
0.452618
0.323963
0.259771
0.392793
0.331083
0.322877
0.446258
0.351061
0.187239
0.327245
0.391635
0.267685
0.329978
0.170271
0.33526
0.457147
0.33697
0.247126
0.338994
0.331597
0.405946
0.18233
0.346578
0.450371
0.353547
0.282309
0.340287
0.338982
0.377097
0.576711
0.629733
0.419174
1.39652
0.612529
0.581351
0.372985
0.476829
1.45807
1.7235
2.91798
1.79863
1.95718
2.26502
2.37705
2.57239
0.408892
1.31082
0.206128
0.773435
0.625806
0.665382
0.773927
0.869939
1.49377
1.51264
0.93966
0.992156
1.32349
1.32069
1.16801
1.19146
1.43776
0.648076
1.1036
1.83026
1.23328
0.875179
1.83282
1.1455
1.82124
1.99772
1.05069
0.648238
1.38471
1.76347
0.6684
1.06177
0.744935
1.0349
1.68044
1.10372
0.947138
1.17024
1.29236
1.3928
0.742705
1.15774
1.78794
1.54235
0.945934
1.32435
1.36792
1.63593
1.10847
1.12458
1.11537
1.07564
1.09675
1.10743
1.07527
1.08112
1.17637
1.33154
1.17333
1.42475
1.22614
1.23385
1.24204
1.24016
1.10225
1.08817
1.25477
1.00166
1.06873
1.06356
0.925407
0.908563
1.0797
1.21325
1.01472
1.08476
1.10709
1.12397
1.06924
1.08769
1.13758
1.09252
1.08395
1.21216
1.10869
1.07015
1.15149
1.09403
1.15403
1.22692
1.11081
1.101
1.11215
1.1236
1.07885
1.10983
1.07326
1.0641
1.16826
1.00323
1.04188
1.06783
1.04926
1.08703
1.07692
0.992485
1.18025
1.09417
1.05278
1.06005
1.08502
1.12373
0.102246
0.440474
0.167273
-0.391763
0.246966
0.096669
-0.268445
-0.227292
0.762226
0.162566
-0.656551
-0.155345
1.14779
-0.0147502
0.0872644
-0.209257
0.0901934
-0.64497
-0.728176
-0.386165
-0.867592
-0.490141
-1.39576
-1.22564
0.0227466
-0.0188881
-0.103406
0.770235
0.306596
0.0224791
0.829393
0.391542
0.770236
0.186119
-0.028787
0.0942734
-0.111064
-0.320282
-0.31298
-0.262591
0.400783
-0.0328025
-0.77811
0.0927457
0.0826232
0.0420664
0.286923
0.166525
-0.563926
0.137989
0.484183
0.287054
-0.373052
-0.341194
0.0708113
0.341723
0.280322
0.163731
-0.327983
-0.844433
-0.736859
-0.125336
-0.825777
-0.373998
-1.69774
-2.99886
-1.58027
-0.417829
-0.449578
-2.87151
0.39351
-0.646573
-1.841
-0.492943
-0.075886
0.451144
-0.21653
-1.63711
0.801558
-0.384414
-1.6585
-0.403406
-2.43679
0.381904
-0.729448
-1.25316
-0.53831
-1.05114
0.271533
0.139001
0.552445
0.606602
0.388817
0.443243
0.00387748
0.517846
-0.625835
-0.441797
-0.219016
-0.145694
0.320588
0.541683
-0.00181129
0.0597069
-3.01532
0.0790845
0.157724
-1.09921
-0.274516
-0.232098
0.249288
-0.269068
-0.0650027
0.000898409
0.436642
-1.08069
-0.0343967
-0.0999237
-0.108373
0.158845
-0.877389
-0.099085
0.138679
-0.347463
0.209086
0.236664
-0.263993
0.226755
0.724358
0.72555
0.701791
0.710528
0.722083
0.719251
0.711967
0.710164
0.733862
0.75298
0.72423
0.713382
0.734355
0.738741
0.720387
0.72812
0.655993
0.666399
0.582506
0.577499
0.640793
0.642282
0.600014
0.608291
0.678606
0.672371
0.589742
0.632649
0.667886
0.658659
0.640305
0.626945
0.724777
0.692911
0.703648
0.700367
0.711035
0.70504
0.705969
0.698198
0.725877
0.697548
0.704591
0.694374
0.716998
0.711381
0.707904
0.700224
0.665328
0.68016
0.678299
0.608771
0.655706
0.676287
0.64129
0.665446
0.672024
0.608323
0.674998
0.68075
0.656985
0.640132
0.674038
0.658189
0.487556
-0.146986
1.0062
0.567903
-0.0531822
0.473166
0.186291
0.281412
0.0156537
0.492353
0.42128
0.486023
-0.931371
1.09461
0.735023
0.37241
0.852024
0.862979
0.880048
0.808303
0.831714
0.864273
0.83541
0.850773
0.696917
0.650486
0.7078
0.619792
0.671856
0.66298
0.61925
0.656525
-0.648464
1.10397
0.672369
0.550195
0.555365
0.79305
0.543844
0.637776
0.795349
0.656675
0.741496
1.05449
0.492281
0.76804
0.827906
0.821373
0.81754
0.485358
0.632477
0.742597
0.734105
0.540447
0.75221
0.642815
0.83383
0.775973
0.711887
0.855814
0.814195
0.819118
0.803523
0.772326
0.303568
0.244976
0.244323
0.317024
0.386277
0.412914
0.291731
0.294533
-0.111779
0.564841
0.28271
0.437272
0.0633908
0.167716
0.324764
0.110582
0.13166
0.301681
0.159178
0.297819
0.293127
0.322157
0.11789
0.119248
0.511922
0.422827
0.403613
0.533065
0.519988
0.447469
0.49315
0.477316
0.266545
0.460496
0.344708
0.438976
0.284115
0.343059
0.31655
0.341302
0.373904
0.270361
0.603538
0.491793
0.320586
0.18273
0.188667
0.100071
0.310181
0.281624
0.328448
0.237523
0.23863
0.294866
0.299059
0.352138
0.262715
0.262549
0.306105
0.170692
0.2578
0.266785
0.261542
0.371533
0.144438
0.226275
0.17144
0.58871
0.380884
0.271851
0.41617
0.256906
0.283369
0.236221
-0.199009
-1.3016
-0.1127
0.00621505
-0.0421727
-0.32756
0.127643