/*--------------------------------*- C++ -*----------------------------------*\
| =========                 |                                                 |
| \\      /  F ield         | OpenFOAM: The Open Source CFD Toolbox           |
|  \\    /   O peration     | Version:  2506                                  |
|   \\  /    A nd           | Website:  www.openfoam.com                      |
|    \\/     M anipulation  |                                                 |
\*---------------------------------------------------------------------------*/
FoamFile
{
    version     2.0;
    format      ascii;
    arch        "LSB;label=32;scalar=64";
    class       surfaceScalarField;
    location    "100";
    object      phi;
}
// * * * * * * * * * * * * * * * * * * * * * * * * * * * * * * * * * * * * * //

dimensions      [0 3 -1 0 0 0 0];

oriented        oriented;

internalField   nonuniform List<scalar> 
86544
(
-6.02272e-06
5.85612e-06
6.71832e-07
-5.04844e-07
5.31648e-06
-5.2198e-06
-8.14684e-07
7.18512e-07
1.98217e-06
-6.90448e-06
6.00705e-06
-1.0846e-06
-1.37299e-06
-6.78747e-06
5.89001e-06
2.27069e-06
-5.54463e-06
-6.97814e-07
2.2046e-07
-1.39703e-07
-8.83641e-08
-8.65481e-06
6.58411e-06
-6.81231e-06
-3.73426e-06
5.69918e-06
-3.63646e-06
1.6718e-06
3.63752e-06
-3.07081e-06
-1.9746e-06
1.40736e-06
1.18755e-06
4.865e-06
-5.2415e-06
-8.11121e-07
-9.26296e-07
5.01681e-06
-4.79089e-06
7.00276e-07
-2.08755e-06
5.72538e-07
-2.21939e-06
-1.43779e-07
1.69374e-06
-5.90499e-06
5.5513e-06
-4.86128e-06
-6.419e-06
2.42845e-06
5.00777e-06
-1.01713e-06
4.73944e-06
2.09993e-06
-5.91229e-06
-9.27024e-07
2.52537e-06
4.38851e-06
-6.11527e-06
-7.98488e-07
-8.83378e-07
2.30947e-06
4.50266e-06
-5.92869e-06
-7.17447e-06
-1.53793e-06
2.2935e-06
-1.52914e-06
-9.05828e-07
-7.03614e-06
4.61491e-06
-6.03991e-06
-6.0654e-06
-1.15388e-06
5.10228e-06
2.11723e-06
4.86732e-06
-1.20595e-06
-5.59901e-06
1.93793e-06
2.27127e-06
-9.69183e-07
4.56197e-06
-5.86395e-06
-1.02158e-06
4.52587e-06
-5.82965e-06
2.32551e-06
-7.12384e-06
-1.05773e-06
2.11632e-06
-1.08008e-06
-1.17634e-06
-6.96112e-06
4.88193e-06
-5.76997e-06
7.8596e-08
-4.25745e-06
-1.04045e-06
1.83765e-06
-7.53919e-06
-1.20277e-06
-7.91835e-06
-7.90248e-07
1.92151e-06
5.81677e-06
-6.64906e-06
-3.18621e-07
1.15108e-06
6.31152e-06
1.30646e-06
-7.53906e-06
1.33692e-06
5.94797e-06
1.17538e-06
-6.33395e-07
6.11764e-07
8.30183e-07
-1.28922e-06
-3.42992e-07
6.47955e-06
-8.73112e-07
-7.4137e-07
-5.42695e-06
-1.11273e-06
-9.99309e-07
-5.65943e-06
-1.26778e-06
-1.39733e-06
-5.85256e-06
-8.42118e-07
-7.70337e-07
1.12183e-06
-7.62658e-06
5.30209e-06
-7.69513e-06
5.75121e-06
5.25846e-06
-6.78294e-06
1.23693e-06
-6.96096e-06
4.75501e-06
2.17957e-06
-6.38043e-06
5.32289e-06
-6.14887e-06
2.06676e-06
-7.21014e-06
-6.3108e-06
1.16927e-06
-5.82071e-06
-1.771e-06
-5.35489e-06
6.96298e-06
-5.73617e-06
1.10128e-06
-5.11856e-06
-4.93958e-06
1.0741e-06
-5.63648e-06
1.08237e-06
2.42006e-06
2.35374e-06
3.26345e-06
6.95567e-07
2.04807e-06
-6.46197e-06
4.85818e-07
3.99419e-06
1.982e-06
1.8476e-06
1.06131e-06
2.98121e-06
3.27358e-06
4.39296e-06
4.30248e-06
2.23457e-06
2.79699e-06
3.44362e-06
6.37516e-07
2.49847e-07
3.00793e-06
1.75003e-06
2.83936e-06
-2.18117e-07
1.76731e-06
-4.7261e-06
3.08713e-06
-9.22889e-08
1.73131e-06
1.65459e-06
2.6893e-06
1.58829e-07
1.77949e-06
3.08531e-06
2.91541e-06
1.70346e-06
1.86717e-06
2.87277e-06
5.64976e-08
1.64664e-07
-5.99588e-06
4.00383e-06
1.82742e-06
3.42427e-06
-5.19991e-06
1.06007e-08
1.7651e-06
-5.6084e-06
3.74576e-06
5.80155e-08
1.80466e-06
1.94516e-06
-5.28976e-06
3.15205e-06
1.92612e-07
1.97529e-06
3.5315e-06
-5.34202e-06
3.65214e-06
1.74743e-06
2.05237e-06
3.42432e-06
9.61191e-08
6.95528e-07
1.78575e-06
2.62112e-06
2.62587e-06
1.70136e-06
2.34784e-07
-5.06485e-06
1.80416e-06
2.83936e-06
4.21385e-07
1.71895e-06
2.57734e-06
2.29626e-07
2.33886e-06
3.23866e-06
3.23464e-06
1.73011e-06
2.25663e-06
2.70101e-06
4.26441e-07
3.69042e-06
2.30729e-06
-5.74712e-06
2.36301e-06
3.86997e-06
2.8671e-06
3.94549e-06
-5.80837e-07
2.10392e-06
3.23202e-06
3.09602e-06
-1.92852e-06
2.52295e-06
-2.01357e-06
2.81355e-06
3.66711e-06
3.55982e-06
1.75542e-06
1.68598e-06
3.10726e-06
-1.91125e-06
3.25823e-06
1.74022e-06
-3.46866e-06
3.97754e-06
1.85415e-06
4.07539e-07
5.67527e-06
4.96633e-06
3.71446e-07
1.83519e-06
3.42655e-06
-2.02102e-06
2.32294e-06
3.56808e-06
2.70693e-06
3.02439e-06
2.80949e-06
2.12392e-06
-3.42332e-06
2.20989e-06
3.01767e-06
-5.81664e-06
5.88526e-07
3.20718e-06
5.57406e-07
-5.09701e-06
2.26227e-06
3.04612e-07
-3.35982e-06
2.79998e-07
4.95198e-06
2.79226e-07
-2.06098e-06
1.19328e-07
-1.86919e-06
-3.16819e-06
-2.96674e-06
-1.80262e-06
1.82634e-07
3.16298e-06
-2.08075e-06
2.80963e-07
-1.36322e-06
-2.11671e-06
3.11991e-06
4.03276e-07
-1.40649e-06
3.3145e-07
3.11132e-06
-2.08266e-06
-1.36016e-06
-1.38073e-06
3.05903e-06
-2.11589e-06
4.37585e-07
1.75744e-06
1.0391e-06
3.66415e-07
1.02841e-06
-1.3877e-06
1.74139e-06
-2.08303e-06
3.10124e-06
3.20069e-06
-2.15676e-06
4.48634e-07
-1.49257e-06
-2.29362e-06
3.4247e-06
5.16735e-07
-1.64775e-06
6.09645e-07
-2.17223e-06
3.07231e-06
-1.50966e-06
-1.5305e-06
-2.27411e-06
3.123e-06
6.81677e-07
1.70563e-06
9.62124e-07
5.33088e-07
9.894e-07
-1.57735e-06
1.65344e-06
-2.22178e-06
3.25249e-06
3.09662e-06
3.44308e-07
-2.08421e-06
-1.35681e-06
-2.12833e-06
5.46915e-07
2.97474e-06
-1.39335e-06
4.03167e-07
3.06746e-06
-2.09971e-06
-1.37098e-06
-1.3544e-06
6.01329e-07
2.89985e-06
-2.14686e-06
1.6784e-06
9.43557e-07
4.74611e-07
9.11083e-07
-1.36102e-06
1.66719e-06
-2.07805e-06
2.98142e-06
2.97726e-06
-1.40541e-06
-2.18477e-06
6.12897e-07
-2.28658e-06
-1.48413e-06
3.009e-06
7.61755e-07
7.54026e-07
-1.373e-06
2.7989e-06
-2.18001e-06
-1.45659e-06
2.99014e-06
-2.29423e-06
7.60737e-07
1.52733e-06
7.48893e-07
7.01158e-07
6.50694e-07
-1.40995e-06
1.47632e-06
-2.18402e-06
2.88101e-06
9.61095e-07
1.68027e-06
4.78423e-07
4.22552e-07
1.69937e-06
9.89354e-07
1.65679e-06
8.71502e-07
5.3062e-07
-3.04134e-06
1.59319e-06
8.01386e-07
6.46797e-07
-2.13051e-06
1.43215e-06
1.65942e-06
1.39327e-06
-2.19373e-06
5.84502e-07
8.56289e-07
9.79563e-07
-1.45606e-06
-1.46527e-06
7.84368e-07
-1.60446e-06
8.91541e-07
-1.45932e-06
2.1091e-06
9.74813e-07
-1.38458e-06
3.10209e-06
-4.63094e-07
-5.84947e-07
3.03974e-06
-1.39372e-06
8.50303e-07
1.36354e-06
1.72432e-06
-2.09856e-06
1.58724e-06
-2.12121e-06
-2.21176e-06
1.52904e-06
-7.73818e-07
1.5022e-06
-2.10154e-06
5.31206e-07
2.94388e-06
-2.11165e-06
2.97471e-06
6.46995e-07
1.52294e-06
3.0434e-06
-6.92852e-07
2.79619e-06
-7.04021e-07
3.01745e-06
-1.59385e-06
3.03227e-06
1.37714e-06
2.14083e-06
2.20724e-06
1.39729e-06
2.90047e-06
-2.65396e-06
-3.65982e-08
-2.93591e-06
-2.88757e-06
-8.88606e-08
5.70562e-06
-2.55962e-06
-7.37271e-08
-4.45519e-08
-2.76112e-06
-2.80611e-06
-5.88776e-06
-5.67006e-06
-7.19916e-08
-2.67983e-06
-2.64428e-06
-2.90279e-06
-2.32412e-06
-1.47118e-08
-1.4716e-06
-2.33295e-06
7.33392e-07
4.86383e-06
-2.5023e-06
-2.53072e-06
1.69049e-07
-2.21465e-07
-1.84085e-06
-2.72871e-06
-3.03744e-06
-4.72679e-06
-4.63011e-06
1.20848e-07
-2.64176e-06
-2.30657e-06
-2.40819e-06
-2.46798e-06
5.37386e-06
6.88201e-08
-2.8458e-06
5.21197e-06
-2.44957e-06
8.34195e-08
5.21835e-06
-2.35004e-06
1.99184e-07
1.05284e-07
5.24633e-06
-2.45177e-06
-2.38916e-06
-5.3809e-06
5.30207e-06
-5.33913e-06
1.04128e-07
-2.2942e-06
-2.41503e-06
-2.76778e-06
-8.71936e-08
-2.44228e-06
-4.23741e-07
-2.73314e-06
5.42401e-06
-6.90455e-08
-2.55613e-06
-1.43657e-07
-2.69585e-06
-2.95969e-06
-5.57813e-06
-5.21696e-06
-1.85059e-07
-2.8408e-06
-2.63377e-06
-5.50473e-06
-3.11907e-06
5.56783e-06
-2.60748e-06
-5.52e-06
-2.91587e-06
-5.66595e-06
2.83646e-06
-3.18069e-06
-5.01066e-06
-2.86502e-06
1.60926e-07
-2.80066e-06
5.85068e-08
-2.63912e-06
-5.49652e-06
-5.40803e-06
-3.52759e-08
-1.77708e-07
-4.84395e-06
2.64672e-06
-5.15104e-06
2.0046e-09
2.79807e-06
-5.40659e-06
9.32057e-10
-2.75733e-06
-5.4514e-06
-5.24159e-06
-2.68049e-06
2.71346e-08
-5.27536e-06
9.67241e-11
-2.48786e-06
-2.73571e-06
-2.47867e-06
-2.95579e-06
5.32939e-06
-2.60233e-06
5.54211e-06
-2.64161e-06
-2.69014e-06
5.35386e-06
-2.66611e-06
-2.52058e-06
5.14357e-06
-2.49964e-06
-5.15891e-06
-2.64084e-06
2.56356e-06
-2.50273e-06
4.91036e-08
2.73237e-06
2.52656e-06
2.05687e-08
-2.6118e-06
3.86212e-06
-2.59414e-06
1.58249e-06
-2.85004e-06
1.9327e-06
3.14583e-06
-2.66782e-06
-2.41052e-06
-2.49321e-06
3.74341e-06
-4.06335e-06
2.81345e-06
-2.58063e-06
3.29145e-06
1.85281e-06
-2.56332e-06
5.4789e-07
6.29977e-06
-2.98512e-06
5.55512e-06
-3.07397e-06
2.12204e-07
3.5071e-06
3.27409e-06
3.0432e-06
2.12757e-06
-2.89292e-06
-2.27826e-06
1.37337e-06
2.66378e-06
-2.22132e-06
-1.81681e-06
-2.58719e-06
2.27279e-06
3.47941e-06
-3.16517e-06
-1.91614e-06
1.50847e-06
1.91249e-06
-1.50534e-06
6.28413e-07
4.59738e-06
-2.18304e-06
4.74693e-06
-2.74568e-06
6.59071e-07
2.02197e-06
2.81866e-06
5.31806e-06
-3.42771e-06
-4.67751e-06
2.78709e-06
2.67373e-06
-3.1199e-06
4.732e-06
-4.28601e-06
-4.51236e-06
8.02728e-06
-7.0122e-06
3.49707e-06
-3.45167e-06
-3.68041e-06
4.42869e-06
2.70321e-06
1.1622e-06
7.4938e-06
-3.33799e-06
9.18952e-06
-5.35378e-06
8.70295e-07
3.17159e-06
5.54744e-06
3.11264e-06
-2.76541e-06
1.96362e-06
-2.31108e-06
1.93061e-06
-2.54131e-06
2.60632e-06
-1.99608e-06
-2.485e-06
-2.48736e-06
2.8625e-06
2.10968e-06
-2.58922e-06
2.93344e-06
1.74961e-06
-2.09417e-06
3.12676e-07
4.99407e-06
-2.19443e-06
5.05314e-06
-2.81027e-06
2.38759e-07
2.166e-06
2.80678e-06
5.05192e-06
4.28066e-07
-2.33457e-06
-2.22538e-06
6.87549e-07
5.28119e-06
5.23856e-07
5.3885e-06
-2.62097e-06
-3.07938e-06
4.09425e-07
4.90318e-06
-2.23365e-06
1.81784e-06
2.62099e-06
6.12842e-07
2.86648e-06
1.87566e-06
-2.3342e-06
5.26584e-06
5.57849e-06
-3.02318e-06
-2.56397e-06
4.4814e-06
-4.81183e-07
6.46511e-06
-3.71116e-06
-2.54064e-06
6.75594e-06
-3.52742e-06
3.34192e-06
2.84943e-06
2.79993e-06
4.10457e-06
-3.79571e-06
6.42333e-06
3.28109e-06
1.01155e-06
9.88589e-07
3.26914e-07
2.29596e-06
2.04002e-06
3.21671e-07
-5.47122e-06
6.35066e-07
2.34806e-06
-2.4227e-06
3.37505e-06
2.3285e-06
3.16999e-06
-2.39974e-06
3.03509e-07
4.33979e-06
-6.52121e-06
3.47574e-06
2.46105e-06
2.34186e-06
-5.85054e-07
3.93026e-06
3.27445e-06
-2.27267e-06
-2.9433e-06
3.56556e-06
3.08328e-06
-5.79488e-06
3.89711e-06
4.05768e-06
-2.15992e-06
3.17096e-06
-6.48316e-06
6.03147e-06
-2.71929e-06
7.5919e-06
-9.14736e-06
5.21774e-06
-3.66234e-06
-3.29579e-06
-6.74106e-06
3.71875e-06
6.31807e-06
-8.30031e-06
-3.67846e-06
6.18385e-06
-3.25927e-06
-1.87009e-06
-1.21113e-05
5.13696e-06
-7.77872e-06
-5.67977e-06
3.38785e-06
5.13189e-06
-2.83996e-06
2.98553e-06
-4.99276e-06
4.12342e-06
-2.1162e-06
4.58809e-06
3.45069e-06
-5.44413e-06
-2.59477e-06
-1.6588e-06
2.29499e-06
-3.78674e-06
3.1505e-06
-8.05948e-06
-2.43639e-06
4.81613e-06
-2.45263e-06
-2.62133e-06
-6.97417e-06
2.87892e-06
-4.83875e-06
-1.10005e-05
9.43905e-06
6.26691e-06
-4.70557e-06
5.18081e-06
6.22521e-06
-7.89314e-06
-3.51305e-06
9.5204e-06
6.20402e-06
-1.24301e-05
-3.29452e-06
-3.28062e-06
4.9572e-06
3.33255e-06
-5.00923e-06
-1.41249e-05
-4.73385e-06
7.85816e-06
-4.31736e-06
-4.62681e-06
-1.41336e-05
6.11891e-06
-8.93062e-06
-4.6673e-06
-2.72317e-06
2.52669e-06
4.86372e-06
2.08721e-06
-1.45261e-06
-3.64821e-06
3.01356e-06
3.40102e-06
-1.75967e-06
1.90523e-06
-3.54662e-06
-1.25571e-06
1.42605e-06
-3.26765e-06
3.09719e-06
-5.92602e-06
-2.07149e-06
3.33019e-06
-1.99351e-06
-1.84531e-06
-5.01923e-06
1.69198e-06
-3.61178e-06
-2.88116e-06
-9.1983e-06
5.59626e-06
7.21826e-06
-1.21194e-05
-4.24628e-06
-9.27925e-06
-3.0068e-06
5.54495e-06
4.78035e-06
-6.88611e-06
-2.12317e-06
4.22883e-06
3.72967e-06
2.43086e-06
-9.04179e-06
3.16921e-06
3.17666e-06
4.03453e-06
-2.93338e-06
-2.83037e-06
-2.98009e-06
-2.43304e-06
-2.15808e-06
9.64069e-06
-2.77716e-06
-3.41296e-06
-4.25149e-06
-4.15231e-06
-3.71565e-06
-5.96667e-06
-5.90556e-06
-5.52083e-06
-6.93652e-06
-3.22058e-06
-2.81668e-06
4.15641e-06
-1.39538e-05
5.55111e-06
-9.39662e-06
3.66669e-06
2.42598e-06
-6.00179e-06
2.56237e-06
-6.97971e-06
2.65767e-06
7.21951e-06
-7.74381e-06
4.68071e-06
-5.11049e-06
4.52981e-06
-9.71128e-06
-8.66709e-06
2.83181e-06
-4.85437e-06
-3.96188e-06
-4.19806e-06
9.63474e-06
-6.18677e-06
3.37955e-06
-4.18851e-06
-3.49994e-06
2.62953e-06
-4.83234e-06
-9.09139e-06
9.94541e-06
3.04307e-06
1.12673e-05
-9.53967e-06
3.4902e-06
-4.88988e-06
-6.92826e-06
9.07816e-06
2.74007e-06
2.40521e-06
-5.05596e-06
6.36953e-06
-6.0183e-06
2.06388e-06
2.05271e-06
3.19627e-06
-5.07351e-06
9.5426e-06
-7.91065e-06
-1.01202e-05
1.24626e-05
3.92453e-06
1.0838e-05
3.39329e-06
-2.94062e-06
5.9575e-06
1.71513e-06
2.6299e-06
5.13129e-06
-6.2399e-06
2.23866e-06
1.73752e-06
2.86061e-06
-4.34434e-06
9.2129e-06
-3.92556e-06
-3.34417e-06
5.63056e-06
1.63929e-06
4.28251e-06
-1.99037e-06
1.18718e-06
-1.76456e-06
3.25071e-06
1.17729e-06
5.49487e-07
-1.01803e-06
2.38091e-06
-2.27689e-06
3.07479e-07
-1.95617e-06
6.30517e-07
1.37501e-06
-1.68461e-06
2.54151e-06
-3.06866e-06
1.25788e-06
4.33738e-06
3.351e-06
1.41662e-06
-1.35993e-06
6.92251e-07
3.27384e-06
7.37068e-07
3.62236e-06
-1.77192e-06
3.95168e-07
5.18877e-07
1.06017e-06
-1.96573e-06
3.09787e-06
2.23428e-06
-6.22284e-06
-4.68052e-06
-3.88193e-06
1.63423e-06
-2.593e-06
1.20375e-06
4.15539e-06
-2.13786e-06
6.40145e-07
1.02644e-05
-2.76787e-06
-5.26223e-06
-2.32672e-06
6.06828e-06
1.14856e-06
2.42912e-06
3.81065e-06
2.27901e-06
7.14419e-07
3.1616e-06
1.03852e-06
1.75738e-06
-8.07442e-06
1.65806e-06
2.5345e-06
-7.79174e-06
4.95866e-06
3.70018e-06
-5.63735e-06
2.52164e-06
1.22442e-06
-1.65574e-06
-3.32326e-06
6.61326e-06
-2.55064e-06
5.01228e-06
4.41242e-06
-2.35573e-06
-3.68249e-07
-1.6564e-06
2.71688e-06
-2.3381e-06
-3.18634e-06
3.8688e-06
-3.7402e-06
-1.73239e-06
-1.82227e-06
-5.00935e-06
-3.32576e-07
1.83441e-06
2.9784e-06
-1.28483e-06
-5.68073e-06
-3.43977e-06
-1.47792e-06
2.46296e-06
-8.32904e-07
-1.88922e-06
2.58922e-07
4.43827e-07
2.95115e-06
-1.0369e-06
-2.35817e-06
-8.51929e-07
2.45312e-06
-1.9353e-06
3.34051e-07
-2.02105e-06
2.63455e-06
-9.94511e-07
3.80698e-07
5.16205e-07
2.99797e-06
-1.05151e-06
2.89934e-06
-1.9393e-06
5.66387e-07
4.10504e-07
2.61378e-06
4.29884e-06
9.72331e-07
-1.30008e-06
-3.97106e-06
1.00754e-06
-2.11259e-06
-5.90725e-06
-1.6109e-06
8.71672e-07
-3.93818e-06
-3.71658e-06
9.20649e-07
-1.49018e-06
8.62736e-07
5.10298e-06
-1.66712e-06
6.48537e-06
-4.61532e-06
4.79307e-07
9.07095e-07
2.60539e-06
-9.71258e-07
-1.95821e-06
3.24179e-07
1.22776e-06
-1.5635e-06
-3.72728e-06
-1.13971e-06
-2.01156e-06
5.57438e-07
-2.17203e-06
-1.03674e-06
5.40943e-07
3.71538e-07
3.18192e-06
-9.4775e-07
3.76085e-06
-2.16097e-06
4.52834e-07
5.57151e-07
2.66321e-06
-2.18646e-06
-1.02109e-06
5.43941e-07
4.85353e-07
-2.58288e-06
-1.06781e-06
-1.12456e-06
-2.18535e-06
4.16665e-07
-1.99518e-06
-5.65186e-07
3.38695e-07
5.2603e-07
3.01563e-06
-8.79135e-07
3.32493e-06
-2.31411e-06
5.45313e-07
4.74991e-07
3.75159e-06
5.46239e-07
-1.34661e-06
-9.40944e-07
4.71046e-07
2.92294e-06
5.39921e-07
3.38059e-06
-1.28622e-06
-3.15713e-06
5.95942e-07
3.67935e-06
-1.11839e-06
5.23356e-07
2.55936e-06
6.68849e-07
2.19616e-06
5.16332e-07
-1.11417e-06
3.25223e-06
4.15303e-06
-2.63425e-06
-3.05246e-06
4.56912e-06
-6.76521e-07
4.50148e-06
-2.95299e-06
-6.68633e-07
3.13015e-06
-1.99036e-06
3.54878e-06
1.27322e-06
1.40352e-06
3.39272e-06
-2.78799e-06
4.12006e-06
1.99594e-06
5.03179e-07
4.23774e-07
6.05192e-07
5.88869e-07
4.89643e-07
6.0676e-07
-3.10948e-06
5.59423e-07
3.64329e-07
-9.70178e-07
2.63341e-06
3.32468e-07
2.8871e-06
-1.06263e-06
5.86442e-07
2.66211e-06
-3.50062e-06
1.46476e-06
-5.89403e-07
2.25134e-06
-5.36938e-07
-6.6282e-07
2.99377e-06
3.26269e-06
-1.65649e-06
-9.69719e-07
-6.36501e-07
-6.01328e-07
3.59944e-06
-1.94203e-06
-1.05608e-06
-1.75221e-06
3.43301e-06
-1.13946e-06
-5.4134e-07
-1.0454e-06
3.41475e-06
-1.83749e-06
-5.31865e-07
2.30691e-06
2.81994e-06
-1.86417e-06
2.84045e-06
-1.13487e-06
2.30775e-06
-5.33219e-07
3.39598e-06
6.81194e-06
2.44361e-07
-4.60595e-06
-2.45034e-06
-9.74343e-07
1.13291e-05
-5.12195e-06
-5.23274e-06
-2.71256e-06
-2.55074e-07
5.18019e-06
-2.21243e-06
-2.24649e-06
-7.43136e-08
6.31496e-06
-3.99408e-06
4.03125e-06
7.3087e-06
-4.52795e-06
6.34613e-06
-3.28915e-06
4.73379e-06
3.28465e-07
8.36738e-06
3.70535e-06
-1.89241e-06
-1.3191e-06
-4.93835e-07
-6.90444e-07
-2.33421e-06
4.40695e-06
-1.38227e-06
-1.94999e-06
4.06208e-06
-1.55207e-06
-5.6e-07
-1.0361e-06
-1.83179e-06
3.46444e-06
-5.9659e-07
2.48877e-06
3.19258e-06
-1.97601e-06
3.37568e-06
-1.57733e-06
2.73157e-06
-5.75087e-07
4.15727e-06
3.62825e-06
-1.00335e-06
-2.0607e-06
-5.64215e-07
-8.70008e-07
-1.04909e-06
4.21252e-06
-2.29346e-06
-1.83435e-06
-1.01771e-06
3.36417e-06
-5.12134e-07
-9.37162e-07
3.61322e-06
-2.12454e-06
-5.51533e-07
2.68784e-06
3.08195e-06
-2.14154e-06
2.92205e-06
-1.10423e-06
2.73549e-06
-5.90715e-07
3.82319e-06
3.64952e-06
2.73121e-06
-2.78134e-06
-1.92974e-06
2.35185e-06
3.01091e-06
2.43794e-06
3.02112e-06
-2.04436e-06
-4.16097e-06
3.01923e-06
3.88764e-06
-2.74596e-06
-3.40379e-07
1.28204e-06
2.70782e-06
1.12583e-06
-3.07668e-07
-2.57128e-06
3.2561e-06
4.45126e-06
-1.47569e-06
-2.10827e-06
5.0532e-06
-2.54637e-06
4.2228e-06
-1.93148e-06
4.23735e-07
3.21875e-06
-1.29062e-06
4.70148e-06
2.45762e-06
2.92166e-06
4.00063e-06
-1.11927e-06
4.37591e-06
1.17585e-06
2.35177e-06
-5.16716e-07
2.5485e-06
-5.30756e-07
-6.23488e-07
3.46203e-06
-3.22691e-06
2.79537e-06
-5.86225e-07
-2.03381e-06
3.73719e-06
-5.27564e-07
3.77078e-06
-2.04306e-06
2.55331e-06
3.6781e-06
-3.32666e-06
4.2902e-06
2.8728e-06
5.64242e-06
-3.49834e-06
5.38693e-06
1.25408e-06
4.47986e-07
4.80714e-07
1.32553e-06
4.67902e-06
-3.52077e-06
-2.04568e-06
2.66032e-06
2.33382e-06
-3.28268e-06
-2.09679e-06
-1.66904e-06
-3.79692e-06
2.40598e-06
2.75994e-06
-3.09653e-06
-2.11652e-06
2.45311e-06
-4.96045e-07
-9.27249e-07
-2.09746e-06
-1.28207e-06
-5.17219e-07
2.34992e-06
-3.46832e-06
-3.05577e-06
2.04217e-06
-1.91926e-06
1.77615e-06
-1.53035e-06
-1.72962e-06
2.64888e-06
2.78784e-06
2.171e-06
-1.97751e-06
-2.55426e-07
-1.1292e-06
-1.67095e-06
-1.03471e-06
-6.79289e-07
2.33797e-06
-3.66462e-06
-1.48256e-06
2.231e-06
2.4364e-06
-1.47131e-06
-1.3645e-06
2.2125e-06
2.65234e-06
-1.48571e-06
1.98544e-06
-8.60113e-07
-1.28781e-06
-1.5167e-06
-1.48091e-06
-5.78915e-07
1.94345e-06
-2.84764e-06
2.39843e-06
-1.67945e-06
2.1287e-06
2.02173e-06
2.45866e-06
-1.85921e-06
-1.47489e-06
2.42767e-06
1.8866e-06
2.18318e-06
-1.35305e-06
1.74727e-06
-3.41108e-07
-8.38931e-07
-1.66755e-06
-8.00215e-07
2.48086e-06
-4.25913e-07
1.77019e-06
-1.04385e-06
-2.74574e-07
-1.96418e-06
-1.79008e-06
-8.08313e-07
-1.19852e-06
-3.11123e-07
-6.86773e-07
-2.0986e-06
3.11187e-06
-2.98048e-07
-7.83394e-07
-2.03026e-06
2.38109e-06
-2.88899e-06
-5.35922e-07
-2.87731e-06
2.27734e-06
-2.0544e-06
-9.11083e-07
-1.18643e-06
2.8232e-06
-9.50194e-07
9.14538e-07
-1.35871e-06
-2.57492e-06
-1.35177e-06
-3.40672e-06
1.68439e-06
1.75445e-06
-3.94538e-06
-1.27639e-06
-2.64371e-06
-5.74775e-07
2.01996e-06
-3.79426e-07
2.09109e-06
2.08326e-06
-4.07939e-07
9.91184e-07
-4.88331e-07
1.92484e-06
-1.6232e-06
-3.09465e-06
2.07416e-06
-2.91368e-06
-1.65043e-06
-4.53e-07
-3.40911e-06
1.04365e-06
1.66628e-06
7.38065e-07
-2.70926e-06
-2.21654e-06
-2.1186e-06
-2.75486e-06
7.25487e-07
-1.06058e-06
-1.05498e-06
7.17963e-07
2.09029e-06
7.17373e-07
-1.062e-06
-1.76421e-06
6.41582e-07
-9.93298e-07
-1.02978e-06
-3.27774e-07
-3.391e-07
-1.06033e-06
-1.03167e-06
6.90846e-07
7.08363e-07
-1.04693e-06
-1.05174e-06
6.97687e-07
2.07831e-06
-1.05935e-06
7.26627e-07
-1.76077e-06
-9.61355e-07
5.75257e-07
-1.03822e-06
-3.31514e-07
-3.44295e-07
-1.08249e-06
-1.00982e-06
6.51514e-07
7.0902e-07
2.0965e-06
-1.0599e-06
-1.05313e-06
2.08116e-06
7.17559e-07
2.08159e-06
7.21367e-07
-1.05737e-06
-1.74794e-06
2.10063e-06
6.17721e-07
-9.70481e-07
-1.03654e-06
-3.37378e-07
2.08287e-06
-3.44024e-07
-1.07968e-06
-1.0057e-06
6.57863e-07
5.59001e-07
-1.79928e-06
-9.44506e-07
-8.93397e-07
-1.77993e-06
4.93292e-07
2.17268e-06
-1.78258e-06
5.33839e-07
-9.23978e-07
-1.8628e-06
4.99005e-07
-9.30423e-07
-1.25189e-06
-3.73147e-07
-3.65519e-07
-1.77978e-06
-1.31176e-06
-9.24192e-07
4.95429e-07
-3.39482e-07
-1.04114e-06
2.08769e-06
-1.0357e-06
-3.34672e-07
-1.14075e-06
-3.38903e-07
-6.08543e-07
-1.14435e-06
-3.48694e-07
-1.02137e-06
1.75813e-06
-1.07627e-06
1.75716e-06
-9.62079e-07
-3.45684e-07
-3.42414e-07
-1.75208e-06
-3.53648e-07
1.03361e-06
-3.47324e-07
1.0565e-06
-3.46547e-07
6.71715e-07
-2.09043e-06
-2.0902e-06
7.1173e-07
-3.44875e-07
1.75506e-06
-1.07651e-06
-1.01325e-06
-1.17616e-06
-9.62055e-07
-9.25346e-07
-1.20332e-06
3.47588e-07
-1.19144e-06
-9.3879e-07
2.11324e-06
6.29814e-07
-9.88058e-07
5.91378e-07
2.11375e-06
-1.1364e-06
6.7343e-07
3.53388e-07
5.55755e-07
-2.10646e-06
5.49442e-07
1.09639e-06
6.37377e-07
1.74894e-06
1.00733e-06
9.65906e-07
1.75884e-06
6.1826e-07
-2.63814e-06
-1.89364e-07
7.8188e-07
2.5978e-06
-1.0245e-06
-1.19023e-06
-3.82688e-07
-1.15935e-06
-1.56575e-06
6.28389e-07
9.03509e-07
-2.41528e-06
-6.04706e-07
-1.59659e-06
-4.91757e-07
-5.4966e-07
1.35335e-06
-3.52125e-07
-1.6857e-06
-1.49159e-06
5.95345e-07
2.51468e-06
-2.36424e-06
-7.45749e-07
2.60929e-06
-2.28516e-06
-2.2992e-06
-3.80475e-06
2.52362e-06
-2.35539e-06
-3.75966e-07
2.3391e-06
-1.263e-06
7.5054e-07
3.45878e-06
-3.61443e-06
6.13166e-06
-2.77205e-06
-1.07528e-07
3.19034e-06
-1.52304e-06
-1.66311e-06
1.26701e-06
1.05923e-06
-2.29329e-06
4.19921e-07
-1.40359e-06
5.45674e-07
1.61371e-06
-1.32023e-06
2.58534e-07
8.26635e-09
-1.7887e-06
1.23173e-06
8.7751e-08
-4.85989e-08
-2.42883e-06
1.03182e-06
-2.82387e-07
1.77888e-06
6.55179e-07
-4.9599e-07
-8.31359e-07
1.08957e-06
1.18905e-06
-2.16535e-07
-1.30348e-06
-7.25593e-07
-3.99768e-07
-8.08867e-08
5.56547e-07
-1.20407e-06
1.3183e-06
-8.94127e-07
-1.44803e-06
-1.17901e-06
-3.94214e-07
7.68069e-09
-1.31404e-06
-1.60005e-07
-9.41154e-07
1.55953e-06
-1.00428e-06
7.79853e-07
-1.33485e-06
2.40897e-06
-2.47476e-07
-8.43077e-07
-2.61514e-07
2.26282e-06
-9.50696e-07
6.87944e-07
1.93586e-06
-3.14929e-07
-2.00533e-07
1.5355e-06
-3.60804e-07
3.10566e-06
-2.20826e-07
-1.82352e-06
7.71658e-07
6.57701e-07
-3.81401e-07
1.4746e-06
2.60855e-06
-3.0701e-07
-4.16285e-08
1.94104e-06
-1.40235e-06
-5.54045e-07
-1.22668e-06
2.32486e-06
-8.89748e-07
2.15357e-07
-1.15542e-06
-1.09923e-06
-2.35705e-06
-1.63775e-06
-1.24366e-06
-8.97847e-07
-1.44541e-06
-5.53621e-07
1.79693e-06
-2.28006e-07
-9.49829e-07
-2.28412e-06
-2.40126e-06
-5.71047e-07
-1.24823e-07
-1.52763e-06
-5.62148e-07
-2.3096e-07
-1.65662e-06
2.3394e-06
-8.22867e-08
-1.53055e-06
-1.65717e-06
-2.19396e-07
-1.79616e-06
-7.43783e-07
-7.58954e-07
-1.5994e-06
-1.74953e-06
-1.6912e-07
-3.71573e-07
-4.14428e-07
-1.74497e-06
-2.62442e-07
-5.05463e-07
-1.56552e-06
2.44526e-06
-4.10285e-07
-3.30156e-07
-1.70516e-06
-1.96975e-06
-5.63123e-08
-7.02808e-07
-2.11831e-06
-6.61873e-07
-6.57747e-07
-1.72316e-06
-2.40201e-06
-2.30031e-07
-6.1475e-07
-7.82184e-08
2.32373e-06
-1.52815e-06
-5.88721e-07
2.36949e-06
-1.47362e-07
-1.63363e-06
2.30522e-06
-6.15629e-08
-1.52239e-06
-1.63044e-06
2.37188e-06
-1.23838e-07
-1.73654e-06
-6.99881e-07
2.35797e-06
-7.35362e-07
-1.58995e-06
-1.67258e-06
-1.02767e-07
-2.65948e-07
-1.79695e-06
-2.85024e-07
-2.0422e-06
-4.05927e-07
2.50287e-06
-1.77628e-06
-1.92755e-07
-1.94233e-06
-2.54473e-07
-2.25545e-06
-6.44337e-07
-6.54708e-07
-1.8858e-06
-2.09127e-06
-2.43148e-07
-7.21467e-07
-2.01239e-06
2.38466e-06
-1.75217e-06
-7.14983e-07
-2.03504e-06
-6.84141e-07
4.15698e-07
-2.45391e-06
-6.02694e-07
-4.88462e-07
1.81518e-06
-2.04828e-06
1.72706e-06
-3.80937e-07
-6.88943e-07
-7.12557e-07
-1.71434e-06
-1.89294e-06
-6.17334e-07
1.97787e-06
-6.78718e-07
-1.70963e-06
5.82051e-07
-7.41787e-07
-1.59248e-06
-3.20726e-07
-2.4402e-06
-2.44377e-06
-1.81885e-07
-1.67635e-06
-6.47829e-07
1.63632e-06
-1.71418e-06
-1.93176e-06
-3.45017e-07
-2.30001e-06
6.54274e-07
-1.87493e-06
2.38993e-06
-1.35469e-07
-2.30824e-07
2.46164e-06
-1.94308e-06
-1.3231e-07
6.7165e-07
-1.74768e-07
-2.49479e-06
-4.22681e-07
1.92067e-06
-2.30198e-07
1.71529e-06
5.1028e-07
4.43829e-07
1.78308e-06
-2.67982e-07
2.49635e-06
-3.14314e-06
-2.20448e-06
2.85126e-06
-1.80975e-06
2.05832e-06
-3.43455e-06
3.18603e-06
-2.42054e-06
2.86468e-06
-2.4043e-06
1.96015e-06
1.77843e-06
1.59736e-06
-2.2963e-06
-1.07966e-06
5.18957e-06
5.54434e-07
-3.24765e-06
5.78719e-07
2.8011e-06
4.02263e-06
-1.68986e-06
2.18078e-06
1.53277e-06
-1.57848e-06
-2.81627e-06
2.86199e-06
-1.18176e-06
9.5431e-07
-2.08792e-06
2.31538e-06
-2.5209e-06
-2.13836e-06
2.36622e-06
2.2931e-06
2.34194e-06
-1.49759e-06
1.87724e-06
-2.72158e-06
3.88344e-06
1.64197e-07
-2.51486e-06
1.46251e-07
2.55543e-06
4.45588e-06
-1.94974e-06
2.08123e-06
2.52948e-06
-1.99882e-06
-2.38949e-06
1.85901e-06
-2.26085e-06
-2.15882e-06
2.5138e-06
1.90604e-06
-1.02594e-06
1.80947e-06
-1.10386e-06
3.20314e-07
1.29231e-06
-1.23761e-06
2.94452e-06
-2.99889e-06
4.25251e-06
1.87394e-07
-1.91027e-06
3.17297e-09
1.98852e-06
3.5631e-06
-2.08296e-06
2.5404e-06
1.43171e-06
1.20737e-06
-1.541e-06
-1.09847e-06
-1.5168e-06
1.47972e-06
1.84755e-06
-1.81051e-06
-9.90793e-07
1.30868e-06
2.7516e-06
-3.06914e-06
1.00141e-06
1.66691e-06
-1.17428e-06
-1.49473e-06
2.8732e-06
4.81947e-08
-1.48978e-06
6.51549e-08
1.29121e-06
2.98138e-06
-1.93217e-06
2.05566e-06
2.25185e-07
4.80393e-06
-2.9708e-06
-2.12724e-06
4.62346e-06
3.685e-07
3.53454e-06
1.52277e-07
-2.0895e-06
-1.76667e-06
3.99274e-06
2.57715e-07
-2.48379e-06
-1.87051e-06
-2.17021e-06
4.26585e-06
-1.81697e-06
-1.49143e-06
-2.44547e-06
2.26129e-07
2.3037e-07
2.99508e-06
2.17279e-06
3.22362e-07
-4.57984e-06
3.64034e-07
2.07748e-06
2.21445e-06
5.57213e-07
1.85176e-06
2.16241e-06
2.33381e-06
2.38547e-06
2.44875e-06
2.09949e-06
2.54374e-07
-1.32024e-06
4.03305e-06
-2.34432e-06
3.0885e-06
-1.72903e-06
-1.83756e-06
3.57496e-06
-6.37789e-08
3.95091e-06
-2.57804e-06
-1.36724e-06
2.40465e-06
-2.35752e-06
1.94736e-06
-1.40101e-06
3.74191e-06
2.59146e-06
-4.83342e-08
2.7618e-06
1.8761e-06
2.02123e-06
-4.1769e-06
2.38217e-06
-1.54383e-06
2.22506e-06
2.14981e-06
-1.69746e-06
2.32847e-06
-1.55141e-06
-3.69294e-06
3.13172e-06
1.92191e-06
-1.14268e-06
-2.07927e-06
2.6006e-06
-2.29482e-06
-3.45357e-06
3.1479e-06
-2.45818e-06
-1.34581e-06
2.31378e-06
-3.88639e-06
6.68021e-07
6.11788e-07
-2.57619e-06
-4.62013e-06
2.83003e-06
-1.40771e-06
-1.04321e-06
1.32946e-06
-1.32329e-06
1.09761e-06
-1.11733e-06
-8.13281e-07
1.11001e-06
1.09779e-06
-1.17172e-06
-1.03628e-06
-1.16883e-06
1.04926e-06
-8.75072e-07
-2.144e-06
4.88872e-08
1.34389e-07
-1.18098e-06
-2.19908e-06
1.07902e-06
-9.54733e-07
-2.37803e-06
2.78738e-06
-2.96085e-06
2.55156e-06
1.36618e-06
1.81812e-06
-1.50307e-06
-1.68111e-06
3.14149e-06
-3.02321e-06
-2.44693e-06
2.32875e-06
-2.88824e-06
1.95844e-06
-1.41017e-06
2.33991e-06
-4.23115e-06
3.52197e-07
1.50105e-06
-8.49086e-08
-2.77999e-06
-4.88605e-06
2.35007e-06
-1.82945e-06
-9.35138e-07
-1.698e-06
1.56515e-06
1.23885e-06
-1.36572e-06
-8.94308e-07
1.26656e-06
-2.03552e-06
-8.79156e-07
1.64789e-06
-1.48588e-06
-4.44885e-07
1.36536e-06
-2.22673e-06
4.12072e-07
3.86114e-07
-1.37418e-06
-2.55375e-06
1.47983e-06
-9.01115e-07
4.44196e-07
-2.93355e-06
1.57181e-06
-4.39873e-06
5.32149e-07
-2.80606e-06
3.41796e-07
1.12495e-06
-2.5122e-06
1.00604e-07
1.61625e-06
1.48349e-06
-2.65561e-06
1.78034e-06
1.49427e-06
4.68507e-07
2.59048e-07
-1.8632e-06
-1.33669e-06
-1.26344e-07
2.89131e-06
-2.10466e-07
-1.58296e-06
-1.87688e-06
6.0065e-07
-3.12243e-06
-1.35969e-06
-1.03681e-06
-1.61733e-06
-1.25944e-06
-1.65422e-06
1.45794e-08
2.5127e-06
-4.4771e-06
2.49657e-06
-3.20851e-06
1.85227e-06
1.25439e-06
-2.5196e-06
-1.79321e-07
-3.72078e-06
1.86443e-06
1.6134e-06
-1.37854e-06
2.27777e-06
-1.12666e-06
1.24645e-06
-2.8044e-06
-1.08907e-06
-4.20995e-07
-1.34142e-06
-1.54172e-06
-1.10436e-06
2.92583e-06
-1.31818e-06
1.92142e-06
-1.50945e-06
-1.30399e-06
1.43094e-06
-1.41484e-06
-5.05715e-06
7.7716e-06
-5.58218e-06
2.86764e-06
1.37319e-06
-1.29147e-06
2.84712e-06
-2.92771e-06
1.92315e-07
-1.71068e-06
5.13853e-06
-3.61657e-06
3.33626e-07
-1.52093e-06
1.9437e-06
-7.59736e-07
-5.49707e-06
1.70215e-06
-1.26077e-06
5.61725e-07
-4.6842e-06
2.72622e-07
1.77034e-06
1.03005e-06
-1.99052e-06
3.95684e-06
-1.74889e-06
-2.16959e-07
1.55995e-06
-4.0924e-07
4.31955e-07
2.123e-06
2.40885e-06
-1.7182e-06
-1.23677e-06
2.39165e-06
6.97919e-07
-2.9314e-06
-8.23083e-07
1.76444e-06
-2.65418e-08
-1.34483e-06
-5.60356e-06
3.544e-06
-2.72746e-06
5.49867e-07
4.71184e-06
-2.53517e-06
1.89343e-06
-1.97176e-08
9.13232e-07
7.57421e-07
5.03257e-06
-2.29314e-06
-1.48865e-06
6.65177e-07
3.52632e-06
-3.27437e-06
5.0211e-07
4.34953e-08
7.85096e-07
-2.16621e-06
-4.71411e-06
3.72712e-06
-2.21699e-06
-8.38689e-07
1.96584e-06
1.08947e-06
1.94227e-06
-6.70359e-07
6.91531e-07
9.09007e-07
-9.19844e-07
2.1204e-06
-8.12364e-07
1.68375e-06
8.78111e-07
-3.11735e-06
-5.23993e-08
9.52495e-07
-3.14238e-07
-8.60906e-07
-2.76077e-06
1.89589e-06
1.05704e-06
-5.75563e-06
3.40802e-06
-1.97852e-06
-1.18326e-06
1.45478e-06
-1.9165e-06
-4.47099e-07
8.3827e-07
3.09605e-06
-4.53151e-06
-3.87356e-08
1.47315e-06
1.04033e-06
1.93518e-07
-1.7398e-07
9.17392e-08
2.26688e-06
1.02202e-06
4.41534e-07
-1.99807e-06
1.99486e-07
-1.64707e-06
-4.92832e-07
1.7693e-06
8.27356e-07
-1.86875e-07
-1.69819e-07
1.60189e-06
-2.61534e-06
-3.9275e-06
1.75646e-06
-2.0303e-06
6.47494e-07
9.39968e-07
3.86527e-07
1.14173e-06
-2.88255e-06
3.1946e-06
-3.34652e-06
2.05867e-06
2.07222e-06
-2.782e-06
-2.70266e-07
-2.9442e-06
2.29338e-06
5.17226e-07
-1.46369e-06
2.08641e-06
-2.38863e-06
1.17731e-06
-2.9129e-06
-7.3167e-07
6.8824e-08
-9.7901e-07
1.79637e-06
7.24975e-07
-1.41318e-06
-2.11917e-06
7.69687e-07
9.90373e-06
-9.71296e-06
-2.68422e-06
2.49348e-06
2.11978e-06
8.70286e-06
-8.36269e-06
-2.45991e-06
-8.82164e-06
8.96261e-06
-2.58569e-06
2.44492e-06
-2.76427e-06
8.93232e-06
-8.52808e-06
2.36005e-06
6.64909e-06
1.17807e-05
-8.52592e-06
1.15511e-05
-2.7821e-06
6.69413e-06
2.32232e-06
9.42366e-06
6.51128e-06
1.85751e-06
-6.4138e-06
-1.95499e-06
1.85779e-06
-5.79988e-06
6.04492e-06
-2.10281e-06
-6.42353e-06
2.1015e-06
6.61901e-06
-2.29695e-06
-1.65893e-06
1.5999e-06
-5.27972e-06
5.33878e-06