/*--------------------------------*- C++ -*----------------------------------*\
| =========                 |                                                 |
| \\      /  F ield         | OpenFOAM: The Open Source CFD Toolbox           |
|  \\    /   O peration     | Version:  2506                                  |
|   \\  /    A nd           | Website:  www.openfoam.com                      |
|    \\/     M anipulation  |                                                 |
\*---------------------------------------------------------------------------*/
FoamFile
{
    version     2.0;
    format      ascii;
    arch        "LSB;label=32;scalar=64";
    class       volScalarField;
    location    "1300";
    object      p;
}
// * * * * * * * * * * * * * * * * * * * * * * * * * * * * * * * * * * * * * //

dimensions      [0 2 -2 0 0 0 0];

internalField   nonuniform List<scalar> 
48448
(
1146.11
755.328
339.507
591.262
977.3
1555.46
1222.22
920.887
1166.83
1611.98
1128.91
1273.79
1350.63
1823.76
1541.59
1906.71
-203.335
191.368
128.683
101.746
7.07604
-57.144
97.7103
249.037
1227.98
1359.6
727.564
1372.59
1321.2
1443.21
1335.02
1261.29
966.536
370.773
948.336
1315.36
960.78
823.397
1103.18
1058.34
993.392
1389.85
351.809
78.9325
869.554
1129.61
224.937
706.385
197.003
1110.83
1353.02
1125.57
181.21
982.847
879.86
1242.43
21.7757
771.746
1358.84
251.445
75.7762
761.924
559.884
1023.56
316.601
329.61
199.808
386.946
530.831
332.037
245.919
349.264
8.02553
340.292
304.511
-74.9025
170.25
444.002
160.724
280.468
271.626
191.944
25.4077
394.251
111.49
71.311
199.56
243.633
1236.06
584.294
621.259
1348.52
966.878
808.929
870.149
717.204
225.908
322.273
670.761
513.561
279.252
369.33
488.72
479.332
202.825
2.52979
47.3566
208.865
102.462
154.562
138.555
176.611
250.159
837.839
359.239
141.117
541.438
549.515
379.788
637.735
210.012
213.165
-160.086
53.8825
194.039
129.318
62.8641
33.1222
-75.9771
11.5458
173.926
-77.1719
-122.166
-193.349
-423.529
-307.89
-113.475
-317.287
263.321
-57.4351
110.592
-50.9663
352.839
431.391
282.649
187.538
344.684
127.188
102.457
28.2961
-7.6619
-211.466
-57.3411
56.7149
419.373
452.111
142.53
80.41
302.623
344.513
72.5283
438.409
158.324
172.096
-101.945
-359.108
25.931
-166.336
-42.0809
-182.854
106.691
290.934
-105.473
-212.188
36.8324
172.675
559.101
74.7927
104.238
651.084
286.073
31.2597
377.524
-50.7752
346.731
391.046
121.716
217.803
258.462
283.804
286.19
135.118
-78.6767
3.67415
-30.1929
307.933
-69.0124
-21.0707
-13.2707
32.8496
127.457
92.7233
129.834
178.302
96.153
-40.2774
-80.1448
-10.5453
-16.86
55.9242
36.1332
85.2825
-12.4695
70.454
34.7268
60.7073
120.409
59.5732
23.1744
158.468
101.284
50.1111
63.8175
55.0884
-6.24664
-96.7839
231.68
149.57
-54.9746
-26.5647
96.3148
148.282
-33.6135
224.181
-50.3359
-28.9661
68.1746
86.1029
4.0457
-80.2682
-21.3058
102.604
253.957
76.8555
93.4444
116.281
71.0454
109.902
-11.3222
95.7479
269.648
119.704
42.9981
103.703
142.03
150.741
228.295
339.473
299.311
1206.43
324.453
329.297
623.13
310.517
127.303
61.5933
95.2185
301.582
207.07
101.384
182.35
120.519
158.401
70.4462
132.713
467.729
208.217
107.03
369.742
244.942
1282.34
721.971
701.241
1316.55
1215.55
822.255
1155.01
974.02
438.354
377.121
1151.55
572.395
438.04
530.128
533.012
673.103
196.023
375.436
121.499
197.887
239.402
242.996
175.534
201.563
416.091
982.898
541.715
542.458
557.648
675.441
471.01
685.964
255.971
456.475
322.222
173.732
261.731
271.002
251.629
250.054
19119.1
12662.8
13417.4
12751.5
17492.6
15348.2
15621.9
14817.9
19858.2
25468.4
17220.3
19160.4
29772.4
35253.3
30328.8
29700.7
18580.2
15955.1
19045.5
15619.9
22985.4
24989.2
21060.2
22327.4
7900.61
11084
2093.25
6933.03
10719.8
13685.7
2727.35
18726.3
25677.2
12686.3
15799.1
20345.6
22876.7
10997.2
8500.94
27275.5
30837
16957
29436
28677.3
16368.5
16221.2
14430
30289.7
9895.25
9042.39
17193.3
17687.3
15045.1
22962.6
21163.1
10999.2
20671.7
20057.7
20493.5
25879.7
17015.8
20266.1
27435
2922.72
1600.46
-895.104
-161.769
322.467
1377.47
434.838
2256.11
1182.86
53.3671
-75.7483
206.171
254.65
90.5536
168.346
77.5123
145.392
583.527
90.0435
-444.316
-191.286
880.269
1076.75
741.887
2275.98
204.968
262.548
93.8053
401.394
281.896
165.146
213.239
189.518
68.7749
156.612
307.395
215.532
-54.7449
258.969
263.557
305.823
-20.4105
70.99
7.21431
-66.4644
-27.2273
41.7463
-19.1239
42.226
934.38
436.734
254.533
509.665
268.939
334.962
500.745
185.33
904.806
307.011
110.384
193.521
180.63
414.704
150.564
41.7067
11172
14525.5
-2973.46
1376.45
11944
-3926.28
-3390.4
-7705.97
16276.2
60912
-30667.5
4206.05
15147.1
-2139.42
6910.5
-6879.46
-2329.16
7577.7
-1339.34
-549.544
-3779.98
-2948.45
-3540.25
-4203.23
4144.92
-9133.03
-4310.07
3409.46
-7226.65
-3698.78
5704.96
8911.64
18222.5
-5826.16
482.448
-4051.14
718.952
-314.656
-4604.32
7686.94
3035.22
-588.391
-10309.1
-1757.64
-3723.99
-9082.91
-588.978
-14491.2
-9580.35
7307.18
3862.56
-7237.72
-6994.31
-3506.63
-7060.5
-4056.35
-10296.8
-4107.22
3841.11
-11066.2
-8986.12
-6907.38
-12447.8
-9336.81
-130.184
-10158.3
-8469.19
-11724.5
-10374.5
-9958.63
-3210.35
-15209.5
-6827.13
-2671.45
2356.8
-884.592
-8278.14
-9969.58
-7344.47
-8374.39
-122602
-28904.5
2771.39
-9012.24
4940.22
106269
42155.9
-40812.5
8663.26
816.76
-19583
-3337.76
1281.5
704.696
-30330.7
-5726.91
-8018.75
-19320.7
-1320.24
-4952.21
-6036.7
-21822.9
-5340.27
-5438.61
-8997.91
-8781.89
-36745.5
-12682.1
-11310.7
-13602.3
2283.51
-8225.34
2579.48
6725.07
-9437.65
-42084.1
-31293
4497.35
13072.7
8451.63
-39093.6
-23980.7
-10103.4
-17004.1
20075.5
35191.3
-9219.04
-8088.42
4345.52
3510.11
4696.16
3910.48
4775.63
4068.25
5578.88
4462.25
2784.95
2298.68
2413.61
3845.49
2670.59
2333.43
3246.53
2947.17
4484.21
2750.4
4192.87
4484.14
4287.09
4183.51
4390.77
4140.71
3780.85
3332.47
4092.23
4556.13
3879.38
3812.81
3059.72
3619.09
3279.61
4315.81
4342.34
2934.99
3905.82
4205.28
3346.34
4256.77
2983.4
3129.77
3089.05
3859.39
3425.63
3251.51
3682.66
3388.52
5051.69
4938.54
2444.43
2975.11
4801.11
4244.79
4285.15
4035.74
4294.42
3703.18
2579.23
3280.7
4775.35
4375.15
3691.88
2404.36
1604.46
2715.09
2361.64
2701.61
2300.6
2538.04
2415.17
2401.83
3390.14
3807.17
2259.74
3898.01
3833.12
4151.58
4366.23
4277.11
2279.66
2294.93
2282.72
3314.16
2272.27
2447.91
3066.32
3069.65
4110.34
3771.84
3239.14
4311.83
3789.32
3944.52
3252.47
3702.28
3113.19
2554.12
3260.83
3745.91
3250.89
2829.5
3218.54
3423.85
3328.61
4101.7
3282.18
2879.18
3230.4
3618.05
3214.96
2620.67
2863.8
3298.11
4037.25
2827.29
2889.93
3274.85
2465.56
3522.75
2799.95
3162.2
4105.22
3329.75
2981.2
2805.02
3329.15
2027.1
64201.1
8991.52
10012.5
35837.9
41811.3
16880.5
32820.9
20030.1
-48.9057
70.0717
-340.302
3148.06
89.0984
-473.469
1054.77
86.0212
844.025
841.406
-333.02
1942.65
-10198.7
-9980.18
-2142.64
1898.89
8683.93
5386.84
9987.84
-1404.44
6971.93
7587.58
-4058.22
3647.61
3891.93
4740.78
21062.3
1633.77
4673.85
7860.36
5709.83
12037.7
-1176.46
948.504
-2169.8
1107.67
3225.21
1409.92
3121.11
-4002.38
-799.465
8437.83
838.592
10005.4
5056.64
13292.8
7257.97
-1873.18
1556.9
5680.88
2181.55
5584.52
3715.55
-970.747
-3012.35
6158.47
-1395.23
-9079.02
-1017.9
114.005
4528.32
-858.773
2005.07
6008.29
4958.88
2284.99
-807.803
1857.34
4050.44
2769.59
680.069
1170.74
-1037.36
129.73
-151.692
-47.3873
-0.875244
-7.25635
-347.958
-551.17
-7821.75
-13871.4
7014.93
-4278.01
4169.7
-7477.23
-1944.38
-7886.69
2074.66
-420.01
-3843.46
14019
1510.68
5584.54
-8437.1
1889.88
8510.67
7155.64
819.03
-319.449
11284.7
3492.84
-2244.58
-38.7499
680.402
-2823.33
-4421.62
1701.41
-3762.02
14482.7
1669.91
8457.74
432.094
-221.986
8586
1791.68
83.062
151.624
-242.535
-1227.37
2010.86
294.907
1083.47
990.135
1062.21
2371.12
2065.72
1623.59
756.649
1789.56
374.543
517.591
1146.71
1259
141.791
103.558
381.359
312.882
117.159
531.014
285.731
217.081
404.097
344.408
890.038
936.084
790.261
1322.33
1054.01
1095.6
1139.13
1056.14
620.404
1059.89
737.935
720.391
588.131
823.139
630.686
557.571
1037.29
425.802
736.492
797.207
105.762
266.657
1009.43
627.328
749.946
1512.81
734.308
769.454
836.901
924.925
600.815
693.667
432.017
592.341
558.451
395.864
468.38
523.599
399.737
446.201
11411.9
5965.97
690.746
1469.58
2535.87
4951.05
1281.29
2259.37
2122.42
1944.49
-290.968
1990.54
27.488
525.233
-11.3355
1723.77
1839.04
817.534
1399
254.615
1651.64
1232.64
1266.22
1386.26
3.09159
470.232
278.534
55.4087
224.279
212.222
252.549
244.991
2052.18
803.995
770.335
1368.95
876.22
420.832
4145.31
2571.89
531.571
70.7342
881.487
-253.425
2345.69
-729.535
-248.182
224.786
417.94
185.931
-746.171
395.379
-249.063
862.376
-93.9254
-23.3971
2846.52
614.609
-1631.69
2010.34
-12.0656
308.323
12.6153
127.242
-5030.53
591.669
-1743.81
2566.96
286.936
26.1937
1579.03
848.836
1933.63
2000.05
2277.52
2186.26
1331.4
1646.83
2074.15
2172.43
-1080.96
2238.88
352.021
3565.98
2145.53
1022.56
3162.82
3380.31
3647.16
3067.19
3745.75
3848.72
3518.82
3293.39
3318.88
3176.13
1192.46
1478.7
3117.99
2841.08
2412.21
2510.47
1953.4
2116.83
1631.91
2369.21
2322.4
875.032
2217.29
2124.61
1809.45
2392.53
2494.53
3162.12
3079.76
3216.49
2528.39
3071.32
3322.09
3102.71
1759.42
3172.71
2871.22
3347.8
3336.67
2818.04
3134.12
2583.79
3272.84
2665.62
2886.92
3306.79
3130.42
2861.67
3103.85
2859.35
2162.09
1018.87
1457.05
2046.46
2008.1
1414.61
1800.73
1516.19
2232.23
1623.06
1061.6
2362.64
2076
1730.51
2154.69
1592.5
3255.4
2710.62
2796.06
3433.71
2927.64
2652.96
3380.26
3249.33
2558
2784.38
3160.67
2697.25
2567.44
2739.2
2750.47
2831.82
2281
2192.29
1680.06
2507.33
2265.01
2012.45
2244.49
2169.53
2600.12
3064.78
2439.69
2751.29
2729.84
2802.05
2558.27
2625.49
2429.82
2686.55
2046.65
1522.76
2007.06
2291.22
1883.05
2259.19
1686.59
1955.65
1655.61
2539.19
1949.95
2182.56
1957.88
2559.64
1739.63
-273.826
598.031
1363.05
941.411
526.584
999.384
579.562
1125.44
192.628
311.425
1583.34
1292.07
1169.96
960.666
1175.87
3397.03
2362.01
2715.41
3256.98
2892.95
2334.84
2948.46
2563.09
1953.07
1807.24
2852.59
2158.74
1964.75
2062.49
2304.94
2355.78
1751.05
1669.56
1092.03
1937.89
1945.78
1555.35
1653.79
1451.4
1807.38
2693.8
1998.32
1912.78
1895.45
2512.18
2219.85
2088.29
1960.41
1597.77
1594.37
866.579
1429.06
1713.72
1356.03
1483.03
-70942.9
-62349.1
12951.1
-21321.9
-57726.6
-24595.3
-20196.4
7966.52
-2603.3
85.4092
826.936
1673.08
-2270.27
-454.768
1253.79
-646.227
1004.76
17.2034
4332.6
1935.95
-488.615
-3672.31
1541.08
1828.98
-4376.36
67.8907
-1047.51
-3094.81
-242.387
-648.574
-2689.21
-1063.58
-16777.1
2241.66
-565.914
1281.25
-150.482
82.7364
-3129.17
-6196.59
2287.59
677.97
-2875.67
-4307.46
5738.7
695.347
1311.49
-1732.96
1159.57
-5754.64
495.179
-162.221
-1018.11
-1525.83
-5.85242
-527.466
961.599
2154.41
1023.31
-2283.89
1484.52
2008.01
1726.76
2384.17
33562.5
29369.1
29407.3
28680.3
31930.5
31287.7
29348
28364.8
22067.8
20942.7
15897.7
15220
18773.5
17829.6
19861
19420.3
30092.4
22574.2
29780.3
33225.2
30017.1
33072.6
32355.6
34279.8
29114.2
22457.2
29151.4
27919.8
26391.3
25886.6
28535
27355.5
26920.5
29276.3
24130.4
23327.3
27128.6
26925.3
26897.5
24804.8
26384.3
21440.2
25772.9
31921.6
26715.9
25866.5
27091.5
25070.5
27636.2
27988.4
24348.4
30888.6
29303.4
26141.3
27237.8
28567.4
31339.8
30175.4
21724
25429.2
30968.6
28807.7
25494.4
20774.5
15396.5
7901.62
3629.52
5888
9257.28
3899.44
7748.06
3543.36
3198.21
2906.01
3075.93
1294.17
-1600.85
1491.23
1035.72
1930.36
7533.35
2273.36
-258.325
1654.67
3001.91
889.822
2016.84
1487.95
1235.74
-349.35
1013.76
561.175
-2874.5
3208.66
4904.01
-2609.13
5340.83
2206.22
5568.8
-2508.46
3372.77
1901.96
4757.35
2028.82
5359.91
-534.444
82.0046
2455.31
3952.6
-891.28
4376.3
-650.203
2786.88
3632.97
871.111
1873.71
3429.32
482.617
1503.58
3271.87
1501.52
3045.89
-399.266
-711.148
827.736
1484.44
-1703.01
858.506
3594.63
3949.58
3881.06
3435.92
3718.56
3793.39
3657.36
3825.54
3657.12
2805.13
3046.41
4250.87
3894.55
3046.39
4598.04
4226.46
4497.05
3107.77
4254.95
4571
4551.32
3887.91
4557.69
4755.59
3754.86
4100.35
4512.79
4058.16
3923.71
4147.85
3946.78
4650.08
3999.97
4181.49
3747.53
4038.88
4007.27
3897.05
3873.96
3923.74
3918.21
4221.55
3244.58
3906.22
3872.17
4004.21
3516.47
3924.39
4240.47
3835.65
4027.72
4295.32
4140.54
4078.33
4104.96
3993.49
4182.57
4799.84
4343.17
4411.38
4154.37
4319.56
4601.18
4274.72
1572.05
1270.44
768.876
758.933
813.566
2515.94
1618.42
1739.36
1222.2
1992.2
2121.31
1665.24
1552.08
2012.84
1984.77
2503.27
1739.41
2545.65
1924.92
2114.26
2194.37
2155.56
2818.61
2343.57
926.01
1162.81
969.817
876.119
1373.5
843.988
680.811
301.91
1207.74
1293.91
1503.67
515.477
1945.96
2051.34
1224.07
1131.72
1252.46
1373.87
1604.34
1489.59
1389.86
1743.77
1867.13
1661.9
1557.88
927.166
1545.8
1584.01
1229.49
700.336
1407.27
1904.84
1684.14
1763.86
1799.18
2335.78
2818.24
1588.47
2492.86
1282.05
2076.83
2231.78
1378.94
1600.57
2087.01
1788.49
1550.16
1505.95
2214.32
2613.63
3465.67
1911.99
2835.24
2073.08
1766.87
2628.06
982.97
4342.18
5569.45
2579.18
1315.54
3144.42
2629.16
3154.08
165.813
290.499
408.74
496.851
-297.913
426.056
283.786
983.243
2140.52
1199.11
1275.05
2503.78
1721.15
1644.45
1551.1
1520.28
2339.49
2056.23
2101.01
1284.63
1905.54
2081.58
1671.16
2355.88
648.179
185.403
892.11
-316.264
364.419
1020.94
182.991
727.862
1105.15
1026.68
1457.02
2923.58
1027.24
1002.17
1335.98
1257.42
41.0783
3626.07
4300.59
9053.62
2987.93
3452.29
4746.56
5727.29
504.28
8439.38
4282.25
9823.85
6921.11
7882.62
3793.39
4135.21
4312.65
4168.29
2480.89
2030.32
3521.79
4195.95
4456.06
2393.29
7287.78
6504.01
4888.89
7669.54
5885
7476.04
4565.55
4963.39
2734.27
6171.34
7907.3
6428.3
4993.32
5558.31
8857.08
9310.97
-1090.6
8411.88
4266.68
3388.41
3863.12
3433.87
3942.35
4417.47
7974.77
8091.59
6741.54
5597.99
5648.91
6446.87
5150.25
6276.85
5079.82
2567.34
5957.86
3888.37
3273.18
4744.44
3399.66
4854.6
3387.79
3286.9
3197
3530.45
3670.9
3188.7
3431.39
3162.59
3475.33
3920.59
3381.38
3750.92
3909.6
3995.94
4025.78
3524.58
2787.63
2907.41
2129.72
3195.22
3258.8
2799.88
3201.46
2546.99
3693.44
3992.19
3814.19
4082.54
4031.16
3829.64
4235.22
3932.46
3786.18
3410.04
3791.28
3856.57
3755.74
3575.21
3525.07
3501.07
3413.95
3869.09
3390.36
2920.01
3265.23
3882.43
3095.16
3677.43
3234.47
3817.78
4211.12
3838.49
3280.59
3562.95
3677.71
3908.59
2874.39
3462.93
3712.48
3178.23
3383.54
3320.03
3784.61
3371.15
3464.26
3903.48
3768.95
3695.83
3612.46
3552.46
3678.68
3845.27
3931.63
3713.25
4423.78
4472.51
4335.27
4317.96
4477.9
4515.49
3579.52
4367.31
4038.04
4186.43
3918.63
4066.57
4152.97
4129.69
3904.51
4583.62
4283.37
4158.53
4181.98
4293.82
4293.89
4426.9
3965.17
3945.29
3890.34
4281.93
4213.4
4017.12
3927.54
4032.48
3926.74
4375.72
4380.81
4092.89
4246.65
4614.52
4011.56
4374.16
3846.65
4021.49
4609.13
4048.33
3812.75
4119.27
4017.85
4285.64
3948.17
4254.76
4629.19
4407.58
3987.06
4209.79
4349.06
4282.76
-48912.4
-18689.8
9315.7
-31377.2
-70642.6
-24420.5
-46708.7
10453.5
-1222.25
-1334.66
196.726
17749.3
-3257.33
-1691.51
7292.19
2121.68
1993.8
56.7629
4279.2
1873.62
2278.29
679.447
4761.13
6570.98
-2242.85
5085.96
-7721.38
257.285
5664.5
6230.76
7733.24
-11658.8
-16997.3
-6010.1
14114.1
3383.11
-11278.7
-6643.44
-7795.93
-3838.55
-2605.35
11109.7
-853.387
6324.19
14057.7
5719.03
9255.83
-10784.8
-3956.65
5297.08
12657.4
3065.87
-2971.57
6919.87
-2121.59
5321.97
-5425.62
1010.92
-6446.48
-174.785
3473.45
3187.36
1936.36
3234.02
4400.87
343.791
3286.31
3087.92
4939.99
155.581
897.837
939.097
3127.39
-1031.89
6480.04
20724.7
-205.318
782.684
-1610.73
-648.434
9786.49
9991.51
17973.1
9940.05
5215.46
9131.69
13150.2
20146.2
-3802.92
9960.25
16715.5
6480.98
-11791.9
-1525.36
-5266.22
-12530.9
3178.38
-1286.57
2304.51
-5607.69
-263.333
3491.69
9407.78
8580.79
2491.55
33618.3
3748.54
4437.38
549.024
9394.85
7013.51
-1403.4
1600.71
1004.14
-7447.69
3436.63
2313.44
4421.93
-10222.3
-2018.15
1688.46
15355.5
21659.6
1614.84
11004.8
13028.2
-245.913
16023
9450.86
14047.6
15873.8
8790.1
10355.9
15359.7
11050.3
13696.3
7602.44
12296.3
11866.6
16574.7
9186.07
13145.1
18771.1
14554.8
10514.6
6681.55
13683.5
18116.4
11376.5
3527.54
8024.85
3116.38
5244.12
-1885.04
9633.83
7448.22
6234.57
3922.03
6088.66
7054.78
16750
14141.7
7579.91
11558.2
17442.4
11701.6
12350.2
9124.77
18619.6
18370.8
21558.3
18495.6
18143
15747.8
13860.5
18708.2
12892.1
8758.29
8517.8
8098.25
9174.89
9008.59
10299.5
8424.47
18184.1
16485.5
8561.72
19915.4
20370.7
17118.8
23351.2
14812.8
10569.8
2739.96
2329.88
11626.1
3418.93
265.11
4010.98
3169.57
2994.14
-4858.43
-536.982
3569.71
2136.28
-3224.59
1724.64
1107.06
782.267
1047.07
1411.96
2560.56
3701.4
2034.47
4552.35
3107.89
10449.9
3752.44
4091.91
7692.89
3725.93
2381.89
6676.24
4627.99
3073.06
3266.56
3211.17
375.834
-223.81
1946.71
2120.83
524.276
931.576
-2706.23
-1339.68
1927.19
441.28
491.852
1376.24
1644.74
4246.97
8763.49
5599.29
5355.54
4855.82
6198.28
4663.53
7690.54
3719.45
4381.8
3268.04
2199.06
4109.7
2910.04
3499.51
2949.12
3925.51
3400.11
2106.54
6803.82
6120.84
7722.97
3630.74
5934.43
3524.46
-4238.44
2935.74
973.19
7058.25
4897.73
5109.71
4795.4
4548.08
2838.75
9961.27
10465.5
6343.41
6532.67
5713.22
4907.65
8528.78
4963.53
10605.2
7774.61
7895.05
5123.06
7331.95
5536.94
8566.57
4108.1
6307.29
5597.9
7134.74
10903.9
8089
8649.48
7919.63
1427.26
-452.538
5788.49
6179.41
6682.7
6876.47
7801.64
3974.9
4646.82
5253.64
6426.58
7850.08
6545.87
6910.07
8246.44
4967.6
5623.47
2356.68
3901.02
7652.37
6010.19
9933.65
2111.09
2130.67
3344.59
1793.63
2720.16
2655.78
2559.36
2319.19
2320.39
3608.8
3459.73
3523.34
3530.57
3256.02
3747.56
2867.74
3276.17
872.17
3209.37
-2504.52
3151.86
2364.45
2138.29
3015.89
3213.99
3274.28
2714.47
3073.6
2864.56
2910.67
3040.36
3302.72
3081.7
3178.45
2755.44
3036.73
3407.94
2734.4
2547.72
3331.07
3143.72
3486.36
3368.93
4246.87
2296.34
3031.29
3342.57
3390.15
3713.98
2766.88
3228.64
3787.14
3120.87
3109.7
3290.18
3087.48
3654.52
2571.7
3285.37
3551.11
3164.95
3402.08
3241.58
2718.22
3379.01
616.177
1181.86
2072.22
2141.1
1250.46
1051.28
1159.17
1504.45
1968.54
2674.63
2645.2
2855.43
2543.91
2357.98
2622.97
2708.74
2581.34
2619.77
1945.85
2789.34
2668.16
2718.05
2075.21
1580.59
2070.65
2471.01
2629.2
2323.84
2504.9
2653.58
2454.53
2523.33
2141.58
2280.26
2103.34
2873.8
2142.26
2089.41
2483.1
2257.71
1690.93
2699.08
2305.22
1895.1
1968.17
2503.27
2096.94
2861.54
1608.57
1525.58
2515.69
2237.32
2616.59
2220.33
2911.36
2430.92
2207.2
2744.37
3049.07
2686.96
2536.04
2930.78
2662.41
2982.63
109.651
377.377
1167.64
2171.87
-719.114
159.989
3206.46
149.174
925.756
331.008
1241.08
1543.44
-98.2091
793.009
1045.7
1246.4
1976.4
2405.61
2225.4
3016.04
2590.96
2361.46
2347.59
1930.24
278.654
1439.55
2460.81
2191.08
504.152
1300.79
2697.45
2163.35
-421.954
1289.21
1175.69
1353.71
1827.6
884.053
1077.1
727.277
734.048
702.144
1589.58
1328.74
985.332
992.986
1052.9
1510.59
2073.58
238.113
1331.77
2226.27
1877.32
910.703
1518.44
1750.42
1604.22
1561.56
647.446
1420.34
1631.98
1928.28
1680.77
1454.59
7306.51
1975.69
5953.2
4939.4
4297.93
3060.82
5639.32
4406.29
1605.41
2088.31
2334.19
2399.62
1978.65
2061.28
2167.45
2151.67
5108.41
3693.41
4814.27
4565.16
4758.08
4316.34
5354.06
5062.04
2837.45
2762.02
3732.02
2751.46
2990.5
3401.1
3442.09
3434.6
1567.35
4418.67
2599.31
2618.06
1697.31
3113.75
2199.7
2575.54
1360.69
2430.53
2889.38
3876.36
1756.75
2069.08
2607.54
2772.55
4313.62
3627.33
2729.04
4626.85
4176.33
3300.54
4415.08
3311.98
4167.55
4568.47
2619.74
3169.76
3467.77
4160.33
3699.04
3065.21
5058.31
4135.16
2407.39
2402.16
3465.75
3179.44
2694.81
2725.77
3800.63
6831.44
2692
7693.17
4393.69
3366.92
5197.92
7257.12
3328.65
1206.14
1594.32
-5201.21
3802.18
3260.62
3151.31
2522.15
3080.63
754.768
-6755.13
12084.5
4138.92
2049.05
2955.41
6380.48
3137.65
2236.22
3844.41
724.764
4425.87
2649.22
3323.43
2828.03
1702.52
-566.292
1957.46
2220.09
3877.66
1286.01
2033.43
2367.25
1587.56
2817.87
3955.38
-3047.16
-51.9994
2510.26
5479.53
1722.32
1657.96
-553.93
4554.94
1829.2
2126.11
3460.69
1352.52
670.095
-1827.25
-1495.31
-1709.54
6006.64
-6455.45
994.304
-8692.84
-460.674
-1050.32
212.728
-98.9049
-1939.57
-354.26
170.778
-629.603
209.063
-1219.88
-614.688
24.7214
-952.562
-2018.54
-505.479
-2800.02
-1120.9
-1216.01
4053.12
-1923.33
-3667.11
-2779.1
-199.277
-3118.94
223.852
-959.453
-4373.88
-7514.76
-1675.99
-733.861
-3170.17
-1518.28
4766.29
304.448
-647.163
-39.2975
21.1687
172.544
-602.052
-236.553
-215.227
-5485.41
-12584.8
-1005.71
454.556
1077.99
2451.17
232.027
-423.744
-1282.57
1128.7
-550.892
-107.233
-2649.04
871.749
-300.526
-1022.19
2057.2
1623.81
3151.97
2305.96
2415.1
2239.05
2766.51
2526.13
1000.67
770.878
-1374.41
1287.75
910.885
922.029
939.737
802.771
2787.11
2402.49
2521.17
2332.31
2846.56
2614.04
2104.74
2079.51
4140.96
3190.55
4419.99
5378.25
5021.95
4631.08
5257.02
5403.97
1321.37
2684.98
2793.56
2296.17
1731.54
2296.48
2013.25
2633.69
1256.06
2120.15
1552.45
2325.79
1529.01
1285.75
2504.41
1907.13
3299.75
2380.95
2930.75
2001.22
2772.53
2274.05
2392.76
2182.35
2968.16
1938.88
2643.11
2328.57
3297.56
2289.86
2517.16
2039.84
1613.92
2120.43
22307.4
8696.4
4778.33
2231.48
12342.8
11000.6
64.3533
595.362
1266.07
2422.03
672.517
668.824
-177.503
101.917
50581.2
14055.7
70848.4
45529.9
31000.4
27488.6
44154.3
37788.6
2518.77
488.696
15275.2
363.489
-907.359
-2883.85
6368.58
5008.32
710.188
15961.7
4984.4
1633.52
2625.15
3678.54
1137.17
4327.15
295.321
861.646
3493.26
14003.4
2966.54
327.989
7071.69
4651.97
28882.1
11386
-887.999
25291.5
25195.7
9484.52
14880.2
2368.59
25863.5
20969.6
96.8678
4527.8
13766.3
11485
4788.61
4566.16
-2343.2
914.115
-413.08
-930.529
-2031.18
-1464.73
-460.447
-499.071
1828.02
1283.9
-589.82
-195.611
2366.93
2680.94
913.37
1414.25
-51.5191
-1638.31
1.13677
-266.516
-75.2405
-482.213
889.579
637.379
-1046.87
207.507
14.484
455.34
-856.111
-959.604
0.414353
-635.296
-464.183
-575.868
-618.174
-2084.72
-891.318
-1057.67
-1670.03
-499.214
-156.265
-1804.97
-806.922
-586.621
-364.903
-886.515
-590.046
-980.186
-447.39
-827.576
-181.994
-858.593
-714.192
-738.127
-1104.98
-700.637
-402.249
-1190.25
-911.851
-1138.77
-954.694
-936.936
-1018.36
-337.14
8234.17
2780.08
7327.82
2157.01
7042.95
7663.24
5123.67
7575.94
-7804.88
-5042.54
-7039.6
-5935.71
-6721.31
-9843.61
-6384.16
-9872.43
30114.9
10378
58273.1
10328.5
20777.8
25317.9
19942.9
30813.9
-332.178
-518.643
1013.59
-4.53571
84.3936
-385.629
144.828
-254.135
2136.97
9041.7
1633.82
-3189.56
1152.23
3107.36
-1204.91
1353.49
5114.34
-6281.95
4572.51
15167.1
4325.7
-1059.26
10447.3
4966.04
6918.13
1183.3
-3364.19
1828.01
3969.27
1074.54
1561.17
-1186.3
14685.6
2866.36
-6303.05
4892.29
4809.41
2124.51
4411.92
1692.94
24602.4
24080.5
15477.8
1242.35
22486.4
24548.3
11019.9
17614.7
38327.2
55297.8
18654.9
27509.9
31657.1
36192.5
14861.6
20189.3
9282.78
12214.2
9049.16
3992.37
9857.25
11524.6
4712.07
8779.51
2151.42
6411.98
5218.18
6178.21
4146
3990.07
5047.17
5512.88
19944.6
14802.3
14180.5
14005.8
13384.1
17758.5
17868.6
17788.8
21419.8
16021.2
15429.5
17187.8
16425.5
15293
16633.3
12715.7
6982.16
4895.32
7710.75
4020.27
7707.22
9220.8
8269.13
5686.04
11479.6
6960.09
11112.8
11285.1
9512.47
9167
7824.31
8223.72
183.92
836.042
64.3895
671.568
497.207
282.782
511.771
119.793
1666.64
2056.37
1830.34
1244.5
2369.01
2392.91
2209.42
2489.58
214.252
1014.45
-27.3433
314.792
563.214
398.925
673.738
372.616
685.3
391.213
227.935
793.468
478.702
312.392
426.401
120.677
1350.26
305.163
646.922
914.614
1029.84
584.977
1132.46
688.995
1588.9
1606.57
1635.18
387.509
1179.16
1374.15
1095.32
1492.27
227.258
622.392
450.856
401.754
483.616
353.726
558.723
559.367
203.183
276.975
867.019
1512.28
670.439
700.6
1265.97
961.852
18924
11765.1
19878.8
8256.78
15944.5
14999.7
9765.98
16093.1
12679.4
11507.7
16218.9
6864.15
8840.59
11809.3
7995.4
11042.5
22196.8
13323.4
18883.3
20966.6
19332.7
22577.6
22058.4
22289.1
6722.15
6002.77
7825.47
8522.63
4794.72
5568.1
4809.55
3911.28
10621.9
18928.9
7657.73
7012.52
6746.9
12823
7695.49
7748.41
14043.9
6170.65
17129.5
17613.5
10560.9
11288.1
16878.7
14751.3
18284.3
6302.54
6701.36
10153
12585.8
8087.59
10356.4
7792.1
18202.4
13247
6604.88
18053.6
14578.7
11406.2
13960.7
9028.12
2838.64
1253.79
1654.66
-87.1513
946.02
808.57
1225.86
1585.27
1323.31
1817.37
1102.53
696.464
1440.76
1546.59
954.493
1018.15
3026.26
1006.95
4347.95
1323.04
2516.44
3311.34
2356.05
2934.12
-20.615
-516.831
48.1199
383.727
-170.999
-207.187
329.673
201.347
1381.22
1712.68
366.064
191.271
775.759
44.1297
229.436
331.76
1384.35
496.646
1464.79
2190.03
1207.82
676.656
962.45
984.504
1579.43
438.017
13.3892
-40.4118
-92.9358
447.199
431.065
229.634
1406.94
30.3728
105.239
831.44
108.481
503.298
285.313
-295.428
-1792
217.47
213.822
1212.27
-6.96101
470.21
565.098
159.554
94.8224
-461.723
-49.8401
981.872
287.545
-275.817
531.684
247.898
332.965
53.1121
250.001
941.43
364.965
67.2816
557.671
438.522
2162.39
2218.64
1309.33
2081.57
2322.54
1977.18
904.718
1201.9
547.044
231.846
1669.54
1350.08
410.849
242.072
943.892
1284.39
122.039
1436.62
18.7855
55.1516
167.471
353.566
126.507
199.298
549.781
1645.67
1141.86
1193.5
1325.23
1305.12
1640.1
1459.89
318.775
1060.47
1057.95
385.2
627.697
1309.69
545.482
1045.48
1451.56
1752.67
1154.16
1646.63
1862.25
1808.38
1878.83
1302.05
1246.07
1316.52
1062.32
1646.41
3135.01
2039.76
1203.79
1396.19
964.576
738.683
585.433
1226.35
1161.11
918.738
1096.68
915.355
1491.65
1900.95
1689.57
1924.99
2136.17
2000.76
2010.9
1845.78
2030.13
1623.17
1757.05
1943.11
1529.29
1254.88
1474.08
1794.61
1611.51
1741.97
1418.27
1220.1
1104.59
780.411
1000.21
1589.74
1407.51
1996.26
1940.88
1718.8
1445.26
1859.29
1550.9
1808.24
1266.54
1400.68
1496.03
934.307
1136.96
1403.85
1371.17
1402.99
3624.84
3771.17
5715.14
1256.75
4902.77
4270.75
3718.86
4618.21
3178.22
3179.27
4086.05
2571.89
3463.25
3326.35
3072.28
3279.33
5474.76
5416.01
5865.42
3104.56
4581.66
5194.96
3598.66
4181.21
971.73
2169.77
2192.62
2214.28
1590.52
1461.39
1976.92
1791.2
4155.41
4503.44
2041.62
2551.73
3060.12
3050.95
3034.11
2269.39
3310.08
2981.77
4437.41
5036.23
3387.67
3273.71
5026.2
3859.15
4058.09
1955.12
1727.19
2444.99
2719.51
2341.4
2291.45
1710.05
4311.71
2733.89
1980.42
3487.97
3671.35
2634.45
2964.63
2294.51
-207.189
-675.819
458.083
2.04098
-1554.78
-1187.69
435.456
331.023
-287.923
-60.6139
567.493
-448.6
-267.902
-384.002
-94.908
288.919
295.597
330.299
482.727
627.842
285.358
222.068
725.658
513.59
479.769
2999.01
383.947
142.465
2856.09
1677.08
-621.535
498.93
-138.107
478.347
1050.88
-171.403
390.588
370.227
-323.938
526.094
-189.095
365.658
765.379
628.78
252.892
519.849
502.19
873.906
243.894
-557.196
1572.97
86.4306
316.579
1504.45
959.995
1765.19
339.062
524.611
1208.88
545.111
712.396
737.161
750.155
560.013
2886.86
1860.55
3010.1
1882.98
2396.07
2601.15
2695.7
2635.37
1909.17
2310.07
1224.45
1739.67
2144.74
2320.17
2097.48
2207.2
3243.95
1102.33
3181.15
3125.82
3319.46
3437.24
2923.06
3781.75
1950.9
1169.32
2431.96
1730.74
1851.94
1599.25
1852.02
1981.83
2140.8
2412.56
2428.29
2069.53
2606.07
2600.89
1686.54
2502.85
2016.29
2155.66
2639.51
2749.43
2467.68
2266.92
2060.01
2478.62
2976.04
2355.15
1981.15
1946.27
2721.18
2576.51
2287.38
2287.64
3105.99
2650.6
2079.05
2410.33
3111.99
2327.45
2300.27
1792.84
4296.89
2034.21
2675.35
2159.96
3068.19
3238.63
2645.85
2703.76
1468.1
719.089
1182.63
1254.73
1612.6
772.82
1531.56
902.641
1206.78
1457.05
1596.29
2054.35
1818.46
1509.83
1475.48
1187.08
1338.47
1100.49
2538.03
1198.4
1055.62
1304.12
367.272
779.354
1436.75
1272.75
2069.51
1067.18
1776.92
2079.09
1452.78
2393.33
1234.77
1063.9
996.694
1566.28
1498.98
1382.01
2107.7
1527.46
1199.04
1718.58
1238.14
1308.17
1671.75
2590.94
1423.62
1936.1
1428.14
1942.65
813.887
761.598
1723.02
1774.86
1417.23
1559.77
6626.6
3155.52
4184.99
2948.14
3968.87
3497.03
2870.36
3430.26
1817.1
2798.73
1392.21
1952.25
2008.62
926.602
2035.79
1364.01
1138.77
1217.7
149.626
465.94
1499.74
769.559
862.96
225.377
1347.02
1756.51
1905.58
2065.83
1747.3
1467.99
2867.06
683.496
2483.46
1915.87
1876.16
766.832
2178.82
1609.36
1821.56
346.511
373.273
766.95
907.909
834.003
993.436
1492.86
693.914
555.994
1957.32
2000.46
1257.45
357.751
1375.97
285.858
1126.52
1711.52
1229.15
-92.015
353.861
630.135
1800.23
677.953
581.207
-31.4627
4710.51
3220.88
4257.09
1836.51
3246.01
3383.88
3313.85
4379.93
2193.2
1119.81
2723.73
1000.97
1362.61
1785.02
2266.09
2978.14
5212.52
3735.56
4414.52
3282.65
3954.5
3926.12
4141.52
4436.16
1454.21
1236
2060.94
1968.62
1235.91
1524.53
1749.94
1610.72
1816.1
3822.72
956.026
600.2
2276.22
2749.44
939.607
1265.71
2176.77
876.877
2630.84
3632.7
3252.4
1819.02
3286.3
3044.63
4169.78
1179.93
1178.91
2616.64
2704.51
1440.12
1970.9
1672.47
4904.48
3150.14
1765
3623.92
3474.61
2693.39
3364.65
2688.85
6183.08
3645.78
-387.778
1371.94
4093.91
-359.277
2918.79
724.24
140.927
-50.2322
209.981
175.824
13.6652
-19.8169
14.3816
6.4881
162.19
315.482
483.385
1448.21
232.82
144.97
379.68
168.041
-1902.69
947.65
4101.73
1474.73
514.981
9.98075
2968.9
1866.23
176.326
217.829
1043.73
589.724
12.2732
893.753
312.367
329.447
143.734
431.158
-3.18561
-146.158
106.352
232.746
204.188
154.57
160.415
2296.85
424.988
747.697
358.114
1682.82
600.353
1290.7
-51.105
384.518
476.542
142.136
43.3301
130.922
142.461
1051.82
-353.414
-1996.14
-150.255
-320.423
669.632
26.8833
-395.733
-38.4525
-946.95
819.559
2276.94
137.346
1758.63
2104.05
1705.24
3164.08
-862.795
-1229.59
-1274.17
445.873
-510.598
-1621.47
62.1817
-1316.07
179.959
-12.3442
852.5
615.019
421.328
776.205
812.79
889.995
-620.127
-1066.79
-379.048
-580.728
-211.277
-1621.45
-598.366
-1463.6
293.609
-1693.18
-758.953
-986.345
1129.04
-1365.42
565.802
-146.714
-292.563
116.135
151.353
434.339
16.7202
105.774
373.955
132.271
-757.012
221.341
-714.875
819.328
-21.4994
182.292
534.274
-891.411
1784.74
1643.6
1824.06
905.636
1421.28
1571.64
1477.28
1389.35
958.821
1268.58
748.8
577.168
-40.4502
2385.62
594.884
417.638
1920.79
911.04
734.498
578.095
924.485
1176.38
628.35
432.564
551.482
431.613
530.829
158.175
551.085
557.47
567.113
562.822
826.275
1326.01
787.717
778.591
1015.46
1263.33
305.365