/*--------------------------------*- C++ -*----------------------------------*\
| =========                 |                                                 |
| \\      /  F ield         | OpenFOAM: The Open Source CFD Toolbox           |
|  \\    /   O peration     | Version:  2506                                  |
|   \\  /    A nd           | Website:  www.openfoam.com                      |
|    \\/     M anipulation  |                                                 |
\*---------------------------------------------------------------------------*/
FoamFile
{
    version     2.0;
    format      ascii;
    arch        "LSB;label=32;scalar=64";
    class       volVectorField;
    location    "1300";
    object      U;
}
// * * * * * * * * * * * * * * * * * * * * * * * * * * * * * * * * * * * * * //

dimensions      [0 1 -1 0 0 0 0];

internalField   nonuniform List<vector> 
48448
(
(44.2569 -25.7953 4.06099)
(7.40146 19.2309 5.87704)
(32.9229 11.1679 -5.93847)
(16.8115 11.7224 -23.9199)
(38.7725 -37.9187 -11.5666)
(17.3202 -28.9505 -4.05531)
(39.4419 -42.2833 -7.19608)
(38.956 -10.1739 6.32529)
(-16.1055 20.0511 27.4882)
(-30.1259 15.9047 43.3019)
(-36.2607 2.51766 7.97891)
(-8.4135 15.8063 18.3673)
(-12.1092 18.8008 22.2704)
(-26.654 7.34282 30.4069)
(-24.4055 13.3289 15.9599)
(-32.9223 13.235 23.8733)
(15.2981 32.8717 -1.07394)
(-22.1514 14.5895 14.4484)
(23.5956 -3.55994 3.07429)
(-13.2361 42.3217 10.7668)
(-16.2298 30.1479 5.69044)
(-14.579 7.07793 3.37718)
(-14.2199 26.1152 4.42341)
(8.92817 8.41337 7.9562)
(20.2362 12.0157 -13.2028)
(19.0736 9.98156 9.82673)
(16.4853 33.7378 -8.57337)
(28.8138 15.0584 -6.93604)
(19.4572 13.2286 -12.1954)
(4.98694 23.512 -2.94817)
(25.3281 16.3702 -4.05662)
(21.0803 24.58 -4.28863)
(10.0136 39.6915 -10.0612)
(12.6046 49.4259 -9.57772)
(25.4181 15.5128 -23.3228)
(17.4721 23.4032 -10.7408)
(12.2313 30.3204 -3.3199)
(4.26502 25.3288 -3.47299)
(6.93703 20.0954 1.73107)
(7.58688 28.9717 -17.3781)
(-10.8403 -19.8116 19.1892)
(-22.6089 14.4284 11.6154)
(-34.5154 9.59834 15.0151)
(-2.02768 27.5971 15.4042)
(-6.38724 0.931505 9.46693)
(-27.0596 17.3766 10.6192)
(-14.5088 7.55718 11.5493)
(-22.677 20.1629 7.76281)
(12.0029 31.7973 -14.9496)
(23.146 12.0259 -11.2553)
(-10.2146 16.84 1.54591)
(-0.186477 33.2457 -12.526)
(12.5018 30.5719 -19.6772)
(16.5694 32.8702 -14.0432)
(-17.3228 24.2094 -0.765133)
(-1.98309 17.0795 -0.0715321)
(5.57515 35.0056 5.56844)
(-9.51055 28.8382 4.19775)
(-23.5666 13.9472 15.8776)
(-32.7934 17.484 14.4444)
(-22.3553 33.1964 8.15147)
(-27.6427 24.7893 8.87866)
(-28.0935 19.5836 11.0362)
(-19.3251 15.5456 10.8046)
(83.0223 -89.4681 -14.8444)
(37.0845 -12.1774 -7.5609)
(21.7932 -1.82149 2.23767)
(26.7315 -6.40208 -0.387199)
(56.7594 -73.6106 9.7166)
(54.0649 -49.186 3.92623)
(-0.88353 -9.68454 -16.8474)
(9.61651 9.01353 -5.46764)
(12.2449 34.4206 -6.35564)
(5.51996 -8.22443 3.7434)
(-7.15369 28.0333 3.80359)
(-14.292 42.1327 16.9865)
(-10.8311 21.2356 1.78317)
(-11.3262 21.6809 -1.59274)
(-7.57822 35.4993 12.4851)
(-8.19656 33.3202 13.1144)
(11.2719 -0.474482 -14.6066)
(-1.22333 19.3938 -10.1677)
(14.7437 -17.3776 -17.4253)
(23.5077 -4.42346 -11.7913)
(11.8753 -0.595432 -17.1023)
(-3.46462 5.81628 -9.55766)
(15.3019 -3.04936 -21.6291)
(5.41699 -8.6054 -19.706)
(20.4662 1.87544 -3.93944)
(11.6742 32.1874 -7.05951)
(32.3854 11.7891 -0.598333)
(41.5434 9.90743 -3.35703)
(17.6337 15.2223 3.17146)
(16.4887 17.1718 2.98794)
(36.4862 8.23872 1.83539)
(20.3763 17.4437 -4.59986)
(13.1873 32.9673 -11.898)
(15.5885 12.814 -7.05938)
(32.7492 13.2878 -5.5506)
(-4.79115 39.0397 -11.2841)
(11.7044 28.1115 -11.0115)
(15.3806 16.5236 -2.11791)
(11.9387 32.2444 -13.0327)
(15.5442 15.6831 -2.27598)
(6.92022 36.8085 -5.91633)
(-0.133012 38.4722 -2.52706)
(-4.46914 27.9997 -8.22855)
(8.24819 8.7625 -4.23315)
(3.89365 30.5688 -10.4071)
(-0.754156 31.2445 -5.72603)
(9.40315 23.7727 -8.40169)
(7.6002 24.5863 -4.25883)
(21.8612 7.5642 0.641184)
(37.1892 4.69082 3.92639)
(14.8362 28.7627 -0.899821)
(38.9305 8.2289 -5.10653)
(18.4351 1.33969 -0.121352)
(20.8796 17.1592 -5.2102)
(30.4354 9.6295 -2.61985)
(25.1699 16.4915 -4.17896)
(10.6462 4.47352 -6.67544)
(9.28736 19.2234 -16.8898)
(9.39112 35.0521 0.73662)
(-3.8935 30.932 -11.3867)
(7.23219 10.918 -4.3796)
(11.8721 19.6063 -11.9073)
(10.1556 23.2682 -6.86874)
(7.36705 30.1653 -13.935)
(-16.3332 25.962 12.2592)
(-19.0309 5.64136 10.4799)
(0.857148 20.0512 33.1025)
(-15.9671 -2.26483 19.0904)
(-18.163 21.96 14.7705)
(-8.01197 9.50439 16.6826)
(-21.0228 25.7024 21.3395)
(-0.7851 16.3577 22.1099)
(-24.1936 -5.66408 36.4891)
(-25.5696 -20.4703 48.8733)
(-27.4749 12.9212 19.5451)
(-18.6878 -29.5505 35.4132)
(-26.612 -13.0653 40.1619)
(-26.9418 0.337477 44.5495)
(-25.0087 -8.21151 29.6432)
(-31.9218 3.54654 30.7841)
(-14.4677 -0.266573 -3.61016)
(-10.9039 24.3347 11.3577)
(0.968984 -13.7661 -0.102592)
(-11.9062 16.8608 5.47456)
(-9.64116 19.637 -3.32511)
(-15.7305 14.5125 9.70564)
(-6.35491 -18.3307 -6.57587)
(-13.0182 -16.8841 2.51119)
(-24.271 -10.3362 19.1689)
(-5.71601 -19.4691 11.1814)
(-3.28726 17.6689 -1.20663)
(-5.77234 -39.7885 8.52741)
(-24.7607 -22.4575 24.9312)
(-5.48268 -5.49167 20.795)
(-26.1638 -13.3445 16.2194)
(5.59325 5.47744 11.9294)
(-19.2959 -0.342703 12.4006)
(-8.92171 6.22552 17.4064)
(-15.1961 -4.61491 20.4447)
(-14.3271 -19.284 17.0956)
(-20.1614 1.36778 8.58463)
(-21.2807 10.9875 15.2855)
(-15.0096 -12.4083 8.7199)
(-0.920971 3.64872 23.6796)
(-18.6252 6.20145 24.1847)
(-4.33429 -11.8429 15.5949)
(-21.3519 19.1353 14.7765)
(-11.8495 26.145 23.3855)
(-10.5465 11.2759 11.3661)
(-19.3528 -0.563247 8.50535)
(-9.50875 21.5373 22.6569)
(-17.5674 19.087 14.467)
(3.32505 4.88577 10.6764)
(-13.6924 -2.34189 14.3645)
(-9.17364 -7.89647 7.2325)
(-11.2072 19.9957 3.39975)
(5.04543 19.4848 22.72)
(6.42703 9.67463 21.7241)
(-5.9908 6.48964 8.30882)
(-12.4994 -7.02926 10.6523)
(-15.7756 22.0321 6.5027)
(-15.5681 28.0538 4.73442)
(-4.81954 -2.2656 15.7966)
(-14.8179 29.8971 14.8742)
(-4.30894 26.9789 12.9371)
(-2.52131 21.3187 12.2372)
(-11.7778 27.7068 13.7653)
(1.60242 8.88979 9.73608)
(-7.778 21.4569 18.923)
(-16.1454 7.71506 14.025)
(-12.2184 20.7218 25.4148)
(-9.14335 24.0255 26.7077)
(-5.8833 18.1737 16.122)
(-15.91 12.6462 16.8459)
(-4.44804 27.5928 22.7939)
(-10.0683 19.5318 20.7472)
(-21.9313 -0.187404 37.7665)
(-25.1405 -8.25342 52.856)
(-23.1413 14.1597 43.4458)
(-21.017 21.2673 32.1119)
(-19.645 1.4345 35.7012)
(-21.596 -9.58348 45.5956)
(-19.8586 17.298 31.9533)
(-24.2704 7.2425 43.3649)
(-12.3495 21.0291 26.6043)
(-21.4799 24.6674 37.5074)
(-5.49511 9.78842 19.2803)
(-0.95773 4.37915 3.5296)
(-15.2076 23.4186 29.7245)
(-21.0603 25.6015 38.2022)
(-7.53603 15.184 17.5248)
(-13.0836 17.2267 24.2337)
(-14.7712 6.68645 4.63694)
(-1.69319 13.0128 10.0219)
(0.298016 -0.693534 -1.8641)
(9.94132 -4.75489 -11.0238)
(-7.64465 11.9664 9.85175)
(-2.83843 5.59487 10.6334)
(-3.51755 5.66781 9.43321)
(-0.047802 6.50055 3.18583)
(-13.1052 8.83604 14.7903)
(-13.4344 23.3831 27.972)
(-13.7388 23.3125 24.2123)
(-15.6729 26.8484 22.4575)
(-10.8516 25.7074 21.7652)
(-9.48505 26.1406 22.9037)
(-11.8763 27.3754 22.4824)
(-11.618 25.6203 24.8435)
(-22.5943 1.62547 35.3895)
(-16.3069 25.3202 32.9427)
(-21.6002 19.3659 43.3132)
(-15.6601 20.8907 34.5046)
(-15.441 17.4977 32.6968)
(-14.0701 20.8215 31.7442)
(-15.8071 18.0681 35.0706)
(-15.2398 21.5826 38.1437)
(-4.45149 18.6855 16.9341)
(-8.34519 15.0821 11.0068)
(-7.19829 22.2191 21.0661)
(-6.69762 8.9 9.05322)
(-5.37064 14.967 13.5171)
(-9.32127 15.3525 17.8588)
(-7.61407 13.7851 15.1859)
(-6.64433 14.535 13.8778)
(-8.42109 20.3792 24.3465)
(-7.14353 9.26713 8.47148)
(-12.212 24.5422 24.1199)
(-23.2301 27.0601 39.6148)
(-9.87034 21.0663 24.5448)
(-7.29759 14.4087 18.2083)
(-15.4437 27.8912 33.9774)
(-12.0597 19.6399 21.966)
(-29.58 -12.7166 50.747)
(-25.5109 14.4868 43.2184)
(-20.4146 22.6576 33.2402)
(-29.842 10.0981 38.5891)
(-25.7117 -10.7722 45.7934)
(-30.2441 10.7978 45.582)
(-33.1865 10.7334 40.3417)
(-34.0193 18.5872 44.412)
(-22.8456 23.6666 35.9162)
(1.78772 4.89087 15.0501)
(-1.49763 3.63153 0.885838)
(11.6425 3.99155 16.4317)
(-6.69037 11.4245 26.0791)
(-2.42702 7.38655 16.2583)
(0.0144082 9.84911 19.2584)
(-1.87679 9.29677 16.7977)
(2.33932 13.0493 9.30538)
(12.9335 -0.383317 -6.80322)
(27.4806 -17.5428 -25.9825)
(11.5867 -8.79245 -0.0123714)
(7.9701 4.71935 7.22967)
(9.07457 0.206253 -3.99707)
(14.7773 -3.81374 -3.25799)
(19.7678 -5.60086 -12.8972)
(-7.53404 17.28 28.0566)
(25.618 -2.34389 11.7557)
(24.1246 -5.63302 1.88313)
(24.8195 -1.59062 4.68896)
(7.99679 3.68297 11.6509)
(17.2215 9.62406 8.30576)
(27.4012 -0.461012 6.48031)
(27.4254 1.61454 2.54938)
(-26.4252 23.1263 43.5132)
(-16.403 32.2711 27.648)
(-25.1016 23.1982 38.7993)
(-4.62778 8.05902 25.8176)
(-24.273 25.439 32.9054)
(-29.0559 27.7939 38.4619)
(-16.0256 24.8885 29.7226)
(-25.7484 25.0578 26.7423)
(-25.4616 27.1138 35.8969)
(5.71827 4.79785 13.7436)
(-1.70356 2.49465 -0.0390409)
(-10.3767 23.9666 17.6527)
(-21.3425 27.8522 31.8711)
(-12.7619 16.3639 22.0438)
(-12.0578 22.575 21.0039)
(0.958404 6.56227 9.1541)
(-4.59331 16.0548 11.3506)
(-14.0343 24.9496 18.3245)
(10.5111 6.1608 16.0498)
(20.4952 -6.87448 9.60732)
(-3.67957 19.6384 14.1797)
(-7.17537 25.0114 21.047)
(11.3439 1.35315 10.2731)
(-0.568372 11.1141 21.168)
(-2.26301 11.2138 8.19733)
(20.7766 -5.8503 2.20222)
(12.4131 3.6986 13.4703)
(12.2629 -0.224688 1.28252)
(5.70695 5.1408 4.39574)
(5.22527 6.52656 6.91348)
(2.99931 2.50713 2.92121)
(-3.78546 8.03084 1.87319)
(1.87543 -110.877 -98.4804)
(5.34372 -98.7991 -178.358)
(8.6074 -117.651 -101.238)
(15.954 -96.7361 -183.323)
(9.86069 -100.722 -129.674)
(9.09273 -100.474 -139.769)
(-8.7799 -112.032 -130.376)
(-0.36613 -110.175 -149.001)
(4.67433 -45.3347 -247.141)
(10.2097 7.18128 -188.178)
(-11.5481 -24.2644 -191.907)
(14.1924 -19.021 -411.039)
(9.73747 -30.7216 -312.482)
(-13.7218 -5.19808 -216.19)
(7.15861 -34.0475 -344.34)
(-5.13159 -2.28496 -252.635)
(-3.45346 -115.156 -87.9774)
(0.142936 -51.0486 -166.91)
(17.0237 -103.99 -106.954)
(-5.59836 -71.4332 -257.42)
(-14.0612 -76.9781 -166.863)
(1.93188 -68.0409 -171.305)
(-21.7919 -89.6696 -200.679)
(-21.8406 -67.8509 -177.447)
(1.48254 -27.4146 -225.174)
(17.7494 -34.3591 -498.042)
(-4.04655 -69.9058 -332.085)
(27.0064 -6.44215 -261.101)
(22.4484 -53.9203 -291.757)
(-10.8127 -49.5725 -410.639)
(11.2109 -31.1873 -246.154)
(6.25776 -47.5384 -402.635)
(3.28253 -69.2428 -224.298)
(3.66082 -116.058 -159.058)
(8.84283 -82.0308 -229.681)
(6.09064 -45.4852 -389.703)
(-17.2536 -72.5581 -277.376)
(6.14192 -110.565 -193.351)
(5.43382 -42.7292 -306.101)
(-12.1897 -68.0932 -237.288)
(-4.13971 -62.69 -172.108)
(-13.572 -25.0931 -397.587)
(-23.6854 -31.7307 -226.331)
(20.3542 -105.942 -166.068)
(11.8673 -59.3683 -262.119)
(13.6201 -47.6605 -344.083)
(-9.71682 -83.4408 -82.609)
(1.02103 -46.3751 -242.389)
(-38.847 -90.499 -144.867)
(1.50669 -72.3449 -234.414)
(11.7101 -58.4682 -380.411)
(-9.09805 -62.763 -280.05)
(-23.9872 -56.0058 -173.142)
(-2.79277 -66.0689 -274.777)
(0.36744 -68.9602 -268.959)
(10.2467 -58.6616 -350.176)
(-17.1558 -92.1416 -176.594)
(-6.56995 -54.3283 -313.851)
(-10.3262 -28.683 -394.831)
(-26.0007 -42.8878 -237.091)
(0.26363 -65.3053 -251.444)
(-14.0411 -46.9658 -304.96)
(-2.56994 -60.5925 -269.12)
(17.2025 -29.5534 -328.103)
(175.104 -150.236 -28.8555)
(51.2704 19.8243 -21.1932)
(104.592 -109.291 -29.7933)
(58.574 -23.9725 -21.2662)
(116.77 -120.097 -35.0497)
(86.3477 -70.012 -15.9214)
(117.229 -125.738 -29.3744)
(102.076 -98.1285 -25.4221)
(7.3671 -2.372 -22.5564)
(17.8007 -8.62507 -37.3449)
(16.1157 8.45873 -11.7572)
(-3.23301 17.3602 -9.67828)
(10.344 3.34598 -21.0148)
(17.9409 -6.17616 -31.6745)
(6.89619 8.75239 -21.0213)
(10.4965 0.383569 -11.9798)
(87.195 -83.7627 -21.4232)
(3.08253 3.42969 3.89798)
(46.2952 -54.1738 -0.459863)
(30.0729 0.675236 -7.09476)
(69.6689 -82.7104 -11.7651)
(48.7836 -62.8118 -7.65129)
(68.1735 -75.2712 -12.7349)
(57.7563 -67.6513 -9.85792)
(12.9723 15.5184 -2.77982)
(-3.6874 26.9059 2.54077)
(19.0415 26.2464 -0.202119)
(9.77422 -7.87766 6.3455)
(0.17831 19.0879 -4.50255)
(2.17516 19.802 2.24966)
(5.11632 24.4224 -8.80078)
(2.05012 23.4487 0.379796)
(-9.00178 -0.798684 -37.4999)
(91.0713 -97.3238 -18.0819)
(29.4314 -9.39957 -6.76632)
(0.6824 18.0988 -4.27935)
(-0.970432 6.4015 -3.17346)
(71.5937 -76.7867 1.36437)
(-15.148 1.81568 -10.5164)
(4.41241 -16.4259 -35.3985)
(12.0018 6.92369 -9.60205)
(-4.97659 11.0753 -11.1845)
(23.2803 0.61057 0.960961)
(66.3607 -78.0324 -13.9135)
(6.00793 11.7817 -20.8735)
(2.80598 8.08862 -12.6615)
(2.42188 -13.0426 -16.2074)
(5.24988 12.2382 -4.99819)
(88.6948 -96.0539 -18.7377)
(27.2382 -12.2964 -9.30188)
(0.247664 22.4707 -6.94482)
(17.0167 4.84783 -7.38689)
(34.9043 -13.2687 -3.03414)
(6.16254 5.08428 -0.337471)
(16.1157 2.05888 -8.5922)
(2.94824 24.169 -5.01891)
(78.509 -86.7697 -18.405)
(12.0319 22.627 -6.65671)
(1.17957 25.4621 -6.15247)
(12.5824 4.93155 -8.41277)
(38.6803 -76.0333 0.46951)
(9.71141 11.6339 -5.47681)
(2.65551 9.13921 -4.20642)
(8.42366 22.2091 -8.49266)
(-122.291 -49.1381 -251.533)
(-115.914 -68.2256 -339.519)
(-2.39453 -61.7146 -117.761)
(-41.3411 -65.2147 -199.035)
(-125.326 -93.29 -321.397)
(-104.628 -40.8641 -276.842)
(-69.3357 -72.3719 -176.594)
(-69.0047 -51.3999 -172.24)
(-108.716 -76.0399 -402.884)
(-87.4843 -93.699 -470.331)
(-27.5338 -82.6465 -67.4101)
(33.8408 -57.38 -232.218)
(-114.753 -111.824 -443.031)
(-95.4553 -83.1706 -443.69)
(-63.88 -50.0389 -220.009)
(-28.4416 -43.8375 -205.27)
(-21.2689 3.54114 -63.2782)
(-112.862 2.7493 26.629)
(15.5069 -63.7626 100.342)
(125.721 61.9625 35.8071)
(-62.4551 34.6674 62.0655)
(-120.342 -86.7164 -92.0768)
(111.242 -49.1738 56.8305)
(-52.4838 -85.4205 2.86914)
(35.8389 0.453888 -134.248)
(53.4569 -13.49 -145.016)
(-38.3452 -41.3012 -95.1981)
(-5.63272 -40.2779 -55.8491)
(45.9985 18.6405 -169.453)
(21.7657 -13.3231 -166.259)
(43.0887 24.6535 -135.62)
(36.6816 1.76928 -119.774)
(-117.979 -93.766 -385.937)
(-2.6057 -95.4639 -145.153)
(-17.2724 -58.6257 -216.692)
(3.92333 -58.2499 -237.559)
(-62.0642 -74.9167 -186.725)
(-54.5936 -98.0094 -177.66)
(-24.845 -50.8772 -230.417)
(-44.1947 -69.5431 -194.231)
(-99.9892 -52.8748 -338.012)
(-17.3769 -58.2193 -227.163)
(-34.0377 -38.9152 -88.5982)
(-23.4837 -63.4289 -104.941)
(-50.6597 -73.4252 -184.116)
(-54.7768 -80.8553 -196.761)
(-11.879 -97.5934 -114.554)
(29.2043 -64.4989 -67.7977)
(-19.0419 -35.1469 -64.4705)
(-15.8479 -11.2466 -122.81)
(26.6094 2.0877 -188.127)
(72.1417 60.517 -21.7262)
(-75.0065 -46.6087 15.9896)
(9.08871 -18.3353 -150.626)
(-20.2279 3.95319 -24.7904)
(20.2531 -7.77036 -178.264)
(-2.47597 112.369 2.32532)
(57.8532 52.0956 15.7915)
(36.2031 14.9073 -165.982)
(158.541 -50.7188 79.847)
(-31.3573 109.953 3.56193)
(-36.8396 13.7423 -38.0449)
(20.0189 108.351 -60.8574)
(-41.5175 -13.611 -60.7022)
(-20.3732 -59.7583 -136.687)
(76.7094 -77.5233 -60.2967)
(-65.8479 -57.8589 -321.185)
(-64.2103 -2.40901 -176.338)
(-10.9468 -34.3389 -95.4417)
(70.6396 -106.85 -111.16)
(-72.134 21.4218 -215.756)
(-39.5238 -10.8072 -129.584)
(-13.7231 -29.6801 24.4223)
(22.6533 -51.9604 115.453)
(-96.2739 -9.19197 -159.774)
(-56.1698 24.5726 -5.28223)
(-34.542 -33.4639 32.4124)
(-19.9119 -33.2166 72.689)
(-32.7073 59.1249 -111.872)
(-36.1337 -0.72163 14.2362)
(-38.3514 30.2078 -573.153)
(-217.896 25.479 -38.9449)
(-93.8732 -37.8378 -609.041)
(44.449 -40.1277 -283.21)
(-193.431 -52.6746 -436.759)
(429.084 214.566 25.0314)
(-178.459 -109.096 -398.478)
(-28.3012 -46.0622 -301.539)
(-2.78595 -81.5581 -134.052)
(-58.4443 -106.521 -88.8335)
(-13.327 0.556331 -151.279)
(-24.0131 32.7749 -35.1211)
(34.8533 -97.0137 -112.524)
(-17.3539 -150.846 -41.171)
(17.8921 29.6378 -243.618)
(58.3167 4.91329 -163.757)
(55.4593 -26.8118 -32.6093)
(-96.1767 -19.8662 -167.321)
(-37.7017 5.40661 -124.442)
(-39.8692 -20.2536 -31.1308)
(-13.4892 40.3682 -131.65)
(-34.435 93.4851 -83.9115)
(-63.7052 25.1595 -60.5902)
(-93.957 40.8617 -102.675)
(118.341 36.2334 -3.29287)
(-50.2017 13.9455 -113.302)
(-152.718 -14.0667 -231.53)
(-19.6901 -1.84194 -181.289)
(-16.648 29.3355 -53.2513)
(5.77274 7.531 -50.1347)
(25.9071 -7.1679 -208.428)
(-91.3859 12.1573 -62.8483)
(-30.949 -86.6702 -318.528)
(-14.0142 -137.61 -194.032)
(-87.3701 -114.732 46.7704)
(-9.84128 14.5731 -336.38)
(-29.4381 -59.8191 -301.729)
(-42.6823 -25.6213 -153.686)
(-1.40252 -96.3324 -245.621)
(-88.7029 -61.0114 82.6838)
(-97.5359 -12.7183 -153.514)
(45.3834 3.95345 -253.737)
(-63.9923 -16.3075 -61.2748)
(-114.62 14.6499 -50.4662)
(-287.971 21.0845 216.647)
(61.9453 -90.3024 84.803)
(-314.149 -56.2332 102.471)
(-52.5628 -89.6901 -46.5613)
(38.9745 6.57538 62.8124)
(19.6085 5.1994 56.7839)
(0.822952 12.5285 59.9736)
(-17.5967 -18.1572 47.2596)
(19.8351 20.6673 57.827)
(28.231 25.4339 68.8007)
(-4.70494 17.226 53.77)
(3.85025 20.0399 65.7888)
(-8.8432 29.0529 47.1291)
(-32.7153 18.0423 50.677)
(-14.6271 23.2781 52.3498)
(-25.8135 18.4258 52.2906)
(-25.1737 15.7952 48.4122)
(-30.668 17.4106 46.0933)
(-14.9932 25.6396 56.2049)
(-21.4211 19.1419 51.2326)
(-5.52238 9.59667 66.4897)
(-11.9907 2.85348 54.878)
(-13.4072 -16.2131 70.3308)
(-15.1244 -41.2376 64.9031)
(-12.9479 2.711 63.6711)
(-10.9592 24.8138 61.168)
(-16.5254 -34.459 71.4505)
(-16.4669 -21.0496 68.2653)
(-15.636 -40.9623 57.2343)
(10.4664 -65.9031 57.8784)
(-7.31165 -64.7879 59.2785)
(11.0405 -79.8723 65.9925)
(-7.34314 -58.161 55.8796)
(-8.73506 -52.5355 49.4955)
(0.20325 -76.465 69.0514)
(2.23587 -71.6328 63.2773)
(3.59264 20.0222 57.39)
(0.759706 17.6512 62.706)
(-17.0168 14.0504 59.9098)
(-14.7104 30.9442 60.5701)
(-3.32892 27.9432 62.1698)
(0.0729248 24.5299 65.6085)
(-17.1599 35.4992 62.8553)
(-11.8958 22.0497 51.596)
(0.72382 18.5469 52.7508)
(-14.0269 47.5627 62.3543)
(-1.78086 41.6533 63.1467)
(3.99266 28.7532 65.5917)
(-4.05067 24.3517 62.105)
(-6.57796 31.8516 60.0215)
(-1.00094 28.3886 61.6442)
(-4.4629 26.3358 60.5014)
(-13.1989 1.97011 59.3939)
(-27.7131 -33.4553 50.6081)
(-8.2074 -39.7767 49.4363)
(-14.1518 -56.7844 71.4858)
(-26.6512 -5.41024 59.8959)
(-22.8921 -8.53875 53.9091)
(-21.0549 -20.0778 59.2877)
(-18.5692 -40.6956 48.8898)
(-10.0945 11.183 65.5659)
(-12.8181 -46.3259 63.2286)
(-7.25026 -18.0585 54.0667)
(-12.6364 8.72955 61.0336)
(-18.5363 4.85553 61.8108)
(-23.6997 -4.79503 46.2745)
(-13.6964 -1.63238 55.53)
(-14.4127 -20.9077 48.6311)
(6.03406 5.50641 85.1068)
(-10.358 8.2797 75.7574)
(3.36943 18.535 73.2075)
(-7.20285 -2.12532 71.582)
(-2.67035 5.04835 80.3734)
(4.21944 5.86696 79.8341)
(-6.13115 15.3346 70.9475)
(-5.81034 16.8088 69.3754)
(-12.5406 -7.21367 74.6446)
(-8.25734 -16.659 71.9486)
(-1.50099 15.6414 71.1499)
(-14.7092 -42.7185 66.2429)
(-7.8048 -10.9459 70.2639)
(-12.5068 -7.52291 72.2333)
(-14.1037 -11.2075 67.3269)
(-11.6646 -10.7214 65.6041)
(-12.4127 21.1255 54.7061)
(-16.4869 24.6388 55.4405)
(-36.0102 17.1571 50.3172)
(-24.8939 12.4492 53.9597)
(-14.3524 19.2647 56.0162)
(-15.3458 21.0741 54.0218)
(-22.5742 14.5469 50.1344)
(-23.8189 18.7141 50.4987)
(-6.28307 -42.5027 62.2874)
(-2.48081 -69.1956 62.8483)
(3.96958 -57.0136 57.161)
(8.48528 -76.3979 65.7223)
(-1.58539 -60.1708 60.2657)
(-9.79711 -49.5134 60.577)
(7.2315 -66.0816 62.3924)
(3.19093 -65.7812 58.977)
(-6.62403 -1.42448 73.4016)
(-2.14464 25.8401 72.0135)
(-9.01576 -14.7764 72.2049)
(-10.7882 -31.1905 68.1293)
(-8.87489 8.20072 66.1448)
(-7.90981 17.0223 69.9113)
(-11.0494 -29.6734 73.2662)
(-7.56579 -6.45543 67.482)
(-9.3944 6.27873 73.4374)
(-11.9811 -29.8258 70.0359)
(-3.10457 22.1557 61.7338)
(0.624021 21.4262 68.8708)
(-8.0766 12.4049 69.3615)
(-11.2068 1.87582 66.7916)
(-1.87448 26.8367 65.9566)
(2.83215 20.2376 71.7062)
(-10.4487 18.5177 61.1162)
(-11.1839 -14.4814 56.374)
(-9.33617 -35.0287 60.7257)
(-9.46385 -15.1411 50.613)
(-6.01774 7.47548 57.9631)
(-8.73072 -10.8844 59.1604)
(-3.95308 -8.01154 60.38)
(-13.257 -25.7245 53.5129)
(-10.5366 17.884 60.4753)
(-9.10737 -9.0089 49.787)
(-10.2293 -37.0263 53.712)
(-15.8814 9.19118 58.9085)
(-11.6576 16.3854 61.0277)
(-8.76804 -0.139623 53.0329)
(-9.77722 13.2474 58.8762)
(-5.98371 -14.523 60.8193)
(93.6254 41.4906 -277.494)
(43.5677 11.9781 -207.123)
(49.6792 37.7424 -289.555)
(29.3407 -32.0741 -394.438)
(81.4356 28.5811 -296.649)
(109.102 27.6338 -346.504)
(75.985 29.1406 -317.467)
(78.8312 15.9707 -361.701)
(34.1946 17.5506 -89.8601)
(7.36421 -35.7249 -7.83794)
(10.8089 -36.7979 -55.6342)
(46.0171 -3.21426 -106.919)
(55.3029 1.15235 -79.3871)
(15.2097 -52.2956 -6.83754)
(34.3404 16.9614 -100.378)
(14.4098 -38.3374 -37.2802)
(96.2239 -5.79793 -305.771)
(27.4455 7.41018 -142.636)
(59.6159 22.7182 -146.254)
(59.7359 13.1344 -457.485)
(63.9562 -4.40434 -322.775)
(-2.5411 -79.3475 62.6085)
(59.7959 -11.3223 -420.352)
(31.9173 9.68562 -185.792)
(24.827 -35.4596 -405.74)
(33.5435 -17.7836 -259.598)
(42.7964 -39.399 -674.071)
(29.815 -42.0407 -357.386)
(21.0027 -44.5128 -445.761)
(40.8265 -43.9655 -496.501)
(18.1786 -29.377 -394.329)
(39.3283 -57.1941 -510.532)
(63.1173 -2.98886 -196.059)
(34.9231 13.1191 -339.511)
(39.4426 -23.4071 -429.01)
(28.8947 -3.78572 -235.419)
(42.2344 -7.8991 -210.088)
(75.7578 1.81474 -396.769)
(64.8238 -11.101 -220.373)
(68.2744 -25.2297 -482.142)
(42.8299 4.3675 -172.369)
(49.3844 -24.3677 -228.631)
(-25.5223 -62.1846 54.0314)
(64.6275 8.7319 -211.503)
(36.076 3.72201 -198.182)
(31.4773 3.28727 -187.386)
(21.7683 -0.189102 -204.136)
(20.0008 -2.94647 -208.773)
(58.6185 12.492 -439.768)
(25.7018 -25.2796 -403.355)
(47.4965 13.4169 -259.584)
(34.7923 -13.3373 -648.276)
(48.4661 -21.3589 -524.88)
(57.5972 -31.7739 -501.554)
(41.564 -29.7608 -529.912)
(54.2845 -37.1845 -468.714)
(37.7467 7.87359 -251.692)
(30.1889 -11.1165 -506.313)
(38.167 -13.0788 -240.019)
(22.8047 6.8151 -105.096)
(50.2105 15.3292 -313.039)
(24.7748 -42.6763 -341.677)
(31.0922 1.52448 -276.913)
(36.0473 -3.28377 -298.879)
(1.65383 14.2599 -313.074)
(13.8213 20.6716 -231.74)
(-10.5116 4.56185 -74.004)
(75.5779 -20.0817 -498.202)
(12.9645 -13.6821 -368.091)
(20.5654 33.2882 -298.817)
(-8.43296 -39.1816 -277.289)
(3.02339 -3.41702 -272.168)
(19.7881 8.53074 -258.097)
(44.548 -21.4014 -149.606)
(24.2172 -24.1678 -162.527)
(45.323 1.89502 -478.312)
(22.8123 -6.48346 -229.686)
(35.323 -6.10701 -209.272)
(-8.21233 -5.25659 -221.589)
(9.76023 -20.136 -214.261)
(9.46096 3.40852 -41.4907)
(25.8862 -35.1933 -72.6006)
(-0.0865015 -33.7854 7.46816)
(19.7911 -0.0181675 -90.8812)
(8.57189 3.73863 -33.9191)
(14.6285 -9.85409 -18.6815)
(13.8714 -6.78506 -13.9892)
(16.382 -17.9237 -4.12924)
(41.8097 -40.8002 -515.28)
(42.9952 -46.1898 -672.443)
(17.3821 -4.92615 -245.359)
(4.86482 -48.569 -401.679)
(59.9983 -55.5659 -534.922)
(61.5464 -35.5567 -476.628)
(29.2738 -48.874 -437.772)
(53.607 -25.6382 -356.178)
(50.9115 -6.55391 -418.546)
(22.1936 -16.5471 -134.319)
(85.7238 -29.3925 -570.035)
(47.4102 -23.0392 -631.224)
(-25.2088 -11.6532 -297.37)
(-11.861 0.137479 -243.3)
(21.0552 7.00761 -526.014)
(82.1115 1.74169 -465.486)
(36.1742 -3.41968 -326.683)
(48.8618 -4.70268 -555.953)
(34.6827 -11.3855 -147.719)
(5.1809 12.7161 -78.6983)
(-7.9885 -18.557 -302.718)
(-5.76748 -12.1954 -273.157)
(17.0854 4.924 -126.641)
(29.2166 -22.6291 -186.197)
(-5.81505 -1.50994 -103.243)
(30.1974 -57.357 -469.223)
(-0.0259427 -48.1168 -532.817)
(24.4353 -15.6192 -211.98)
(22.3243 -0.14328 -231.329)
(41.9442 -32.1205 -449.816)
(33.8352 -20.9542 -303.451)
(42.2731 -20.6913 -429.055)
(5.92181 13.0109 -91.6358)
(62.5355 1.56882 -206.042)
(12.6123 -35.5314 -527.405)
(11.3504 -16.7705 -108.124)
(-0.578877 19.8014 -69.5247)
(56.3524 -1.83385 -255.172)
(-3.01336 -0.254917 -97.6743)
(16.2365 -18.8295 -299.409)
(58.849 -224.937 3.45342)
(74.7093 -204.667 2.11549)
(39.6703 -110.451 -5.2974)
(40.2769 -95.1722 5.93934)
(63.2554 -205.246 3.41414)
(64.2666 -212.742 2.21954)
(51.8634 -119.569 5.68805)
(32.5532 -95.8198 -0.923372)
(84.8992 -183 0.697365)
(95.0388 -152.186 6.18878)
(47.4168 -71.2545 -4.85869)
(30.4428 -48.5544 5.82471)
(85.7316 -164.094 4.89667)
(92.7244 -169.75 0.425682)
(48.5886 -88.2103 -0.137682)
(32.155 -44.8793 -2.966)
(9.70827 3.14023 -20.1365)
(15.243 1.67219 -14.2847)
(21.5737 -14.8184 -20.2822)
(23.6793 -5.1033 -17.9801)
(26.4224 -7.7342 -20.4041)
(17.6995 -0.668192 -15.4497)
(22.9962 -10.9109 -23.8762)
(17.4888 -7.52943 -16.8825)
(32.391 -0.650837 -1.48767)
(22.7937 0.042484 -6.02241)
(32.4817 -11.7322 -0.652725)
(31.3333 0.542619 0.286361)
(18.7976 3.04025 -1.10512)
(21.041 -0.0390947 -4.59341)
(36.1071 1.57714 -2.40772)
(35.1953 -4.05502 3.06673)
(77.4905 -189.575 6.62395)
(36.4147 -111.765 1.83263)
(41.6301 -93.3948 6.98105)
(38.1049 -49.287 -5.00763)
(50.5854 -112.481 6.79186)
(42.2617 -108.078 6.84797)
(45.6124 -76.1615 3.82958)
(42.9141 -102.903 5.72441)
(82.1463 -194.173 4.99982)
(46.1955 -65.1332 -12.3583)
(44.1856 -72.8775 -7.02672)
(36.6135 -115.201 0.562992)
(37.4106 -82.4512 -0.194716)
(40.4988 -64.5927 -9.64004)
(41.4093 -106.399 4.22586)
(43.9144 -65.0327 -6.41604)
(29.6544 -33.9219 14.6858)
(45.4425 -12.2724 19.4496)
(49.1162 -6.69705 17.1844)
(33.8651 -8.1271 -2.48859)
(20.6789 -14.5116 7.92722)
(43.9459 -27.5939 10.4282)
(27.137 -13.8733 16.1461)
(49.5393 -11.9774 17.1354)
(26.0441 -14.8441 5.7822)
(35.4368 -6.47836 -3.58762)
(46.8994 -10.5404 13.9058)
(19.0013 -5.15219 1.15881)
(24.0275 -6.56401 -10.588)
(29.2415 -5.56786 7.76307)
(26.5415 1.11062 -11.7776)
(28.1984 -6.88801 4.01284)
(163.8 -248.188 -13.7154)
(103.411 -261.953 2.79349)
(119.644 -195.798 -4.04637)
(68.3702 -172.575 -36.0203)
(122.41 -224.81 -15.8948)
(121.549 -210.828 -14.4022)
(120.164 -217.775 -8.00535)
(120.599 -212.4 -3.34309)
(74.5927 -269.67 4.46805)
(56.9758 -233.894 1.51686)
(66.0233 -210.548 1.24759)
(41.5664 -110.226 -8.75775)
(60.7996 -236.632 4.51978)
(60.8744 -225.489 2.95925)
(66.3811 -218.55 9.12669)
(63.1756 -212.879 6.80148)
(109.231 -172.289 -9.62893)
(82.5317 -190.099 -1.296)
(96.4835 -162.688 0.10669)
(44.5134 -72.073 -4.19971)
(102.919 -182.082 -1.77025)
(95.886 -166.305 -9.20973)
(100.33 -180.75 2.14303)
(95.6518 -173.711 -2.15467)
(9.9219 -1.44411 -21.6771)
(20.972 -12.2568 -26.3204)
(11.6937 8.03208 -9.02538)
(16.2385 -1.29212 -19.5387)
(12.2549 -5.31107 -21.2626)
(19.0318 1.9811 -21.1679)
(16.452 -0.219979 -22.1118)
(12.1893 -2.20764 -22.3834)
(89.1409 -237.434 -0.841854)
(120.711 -206.978 -1.59278)
(36.7773 -126.014 -28.4498)
(19.6941 -122.443 -10.3567)
(94.4596 -226.535 7.07959)
(122.697 -212.082 0.387039)
(54.4111 -166.734 -20.0399)
(71.7818 -145.784 -13.8503)
(90.92 -228.237 -4.44427)
(54.6108 -198.83 2.46917)
(82.7156 -204.489 -2.14063)
(115.904 -190.806 -9.79072)
(82.9973 -221.045 0.709771)
(90.9853 -226.161 15.8404)
(91.8061 -203.457 -27.3011)
(90.0088 -214.548 0.634975)
(114.067 -196.88 5.46398)
(13.8387 -41.9109 -15.2707)
(14.396 -33.9998 -7.74379)
(32.7635 -49.9887 -5.5757)
(71.7993 -120.203 14.6927)
(42.5609 -83.1396 1.59553)
(49.8259 -94.9853 -1.28976)
(17.1063 -41.9674 -26.6825)
(105.236 -189.957 -6.60375)
(43.2936 -72.8423 -7.56751)
(43.3865 -126.078 7.33674)
(80.6977 -194.749 1.68756)
(103.976 -188.916 -0.448394)
(54.4073 -100.998 -3.96803)
(86.2122 -200.303 6.14931)
(33.3563 -121.042 3.18408)
(34.0876 -26.1334 85.8462)
(12.481 -25.7397 8.54602)
(36.8889 -26.8878 38.7522)
(35.9461 -41.538 101.498)
(30.8952 -24.0887 63.1857)
(12.916 -26.8257 47.7696)
(40.4428 -46.576 103.579)
(6.35608 -42.145 24.0014)
(10.5682 -10.9125 20.3324)
(4.7717 -4.18112 21.4428)
(4.63283 -13.3813 46.8036)
(1.93977 -30.583 87.0618)
(7.86995 -8.60164 19.0983)
(0.189324 4.21471 41.8315)
(1.71017 -22.3156 42.0995)
(0.0272632 -21.8708 50.2927)
(37.5878 -23.589 40.3838)
(18.2394 -16.287 61.8977)
(40.3064 -18.2021 97.9979)
(32.2473 -14.285 99.4026)
(21.2242 -6.91139 87.1522)
(17.4592 -2.66157 86.8972)
(43.0689 -15.1825 103.709)
(38.6802 -19.3217 98.4673)
(21.4696 -21.6823 85.0875)
(23.0192 -18.9397 96.3104)
(32.3388 -11.5611 103.414)
(33.2737 -4.18136 98.5983)
(23.0861 -22.5172 83.6561)
(28.3855 -12.7433 93.147)
(36.8715 -13.183 92.659)
(31.8836 -10.4845 100.913)
(10.191 -13.3566 16.3726)
(28.6661 -21.0006 96.4762)
(22.1114 -38.7551 100.051)
(6.2899 -36.9794 89.873)
(5.71334 -31.1759 60.988)
(10.2422 -34.5344 48.744)
(3.04956 -38.8989 84.8146)
(19.9789 -35.1222 88.8156)
(0.431694 -5.49826 38.7121)
(11.7235 -31.1371 87.8194)
(2.3371 -13.7025 47.7228)
(12.0092 -30.0411 64.076)
(2.14302 -30.3574 48.6054)
(3.80308 -28.5165 44.8807)
(14.2923 -27.4561 35.4388)
(5.14642 -23.3367 38.3185)
(37.3406 -36.4205 117.566)
(26.0106 -25.8317 89.1367)
(25.4453 -32.2507 99.8264)
(33.5982 -18.0256 95.6424)
(32.6408 -36.2344 107.829)
(26.3892 -27.2934 95.9063)
(27.8766 -31.8484 106.95)
(28.0205 -27.7711 98.9005)
(10.907 -34.0297 29.5903)
(33.6482 -9.50323 99.4398)
(21.3625 -21.9022 92.8116)
(11.4852 -18.1864 60.1375)
(4.51276 -27.931 48.3324)
(23.8002 -21.0372 98.3709)
(0.372986 -25.8737 49.8907)
(16.9393 -22.4532 87.8335)
(2.20785 -0.164475 52.4393)
(1.05242 3.63812 62.8867)
(4.58293 -0.228243 65.5274)
(1.59353 2.14733 63.9879)
(2.23619 2.38159 58.3516)
(1.63565 0.440521 62.964)
(1.01192 1.60461 62.8457)
(2.03903 0.576365 66.4713)
(6.00919 1.83075 71.3016)
(6.10198 -1.09849 82.6652)
(21.8267 -0.386929 81.3846)
(11.437 -0.570473 74.2947)
(13.0652 0.655588 80.1278)
(12.5327 1.03532 78.5233)
(16.5198 0.563449 77.41)
(13.2246 0.744386 75.0208)
(19.5349 -8.77626 73.6546)
(26.8369 -4.95915 81.9124)
(28.5443 -9.2336 98.7139)
(27.4824 -2.93392 76.4261)
(28.8474 -6.55005 82.0121)
(27.2337 -6.47176 78.9563)
(28.7854 -6.19009 80.4498)
(26.8105 -3.34838 77.4292)
(12.4374 1.20832 66.7162)
(22.9252 0.448377 73.0353)
(27.1839 -3.22175 69.2014)
(25.5291 -1.33497 64.1273)
(28.9631 1.7683 73.9022)
(29.6774 -0.757571 69.1893)
(29.2528 -3.59949 65.0084)
(28.751 -8.21477 60.8512)
(7.28326 3.74144 69.7051)
(13.7211 0.733565 69.8789)
(10.3304 3.24674 66.7406)
(20.7114 1.14373 73.6419)
(10.1009 2.90486 67.6151)
(10.6409 0.100783 67.0822)
(10.9208 3.26441 69.5765)
(11.1626 0.95673 66.0689)
(8.82427 1.76873 69.5075)
(21.2717 0.569116 72.9525)
(24.3923 -1.33068 78.6397)
(15.3931 -4.81268 68.9432)
(11.6754 0.0519371 70.3844)