# Region type : patch pressure_outlet
# Faces       : 1888
# Area        : 4.314365e-03
# Scale factor: 1.000000e+00
# Time        	areaAverage(U)
1             	(-4.739446e-02 2.252148e-02 1.041903e+00)
2             	(-4.543165e-02 2.041320e-02 1.028806e+00)
3             	(-4.353176e-02 1.938883e-02 1.013958e+00)
4             	(-4.195708e-02 1.950979e-02 1.004590e+00)
5             	(-4.015322e-02 2.041639e-02 9.986639e-01)
