/*--------------------------------*- C++ -*----------------------------------*\
| =========                 |                                                 |
| \\      /  F ield         | OpenFOAM: The Open Source CFD Toolbox           |
|  \\    /   O peration     | Version:  2412                                  |
|   \\  /    A nd           | Website:  www.openfoam.com                      |
|    \\/     M anipulation  |                                                 |
\*---------------------------------------------------------------------------*/
FoamFile
{
    version     2.0;
    format      ascii;
    arch        "LSB;label=32;scalar=64";
    class       volScalarField;
    location    "10000";
    object      omega;
}
// * * * * * * * * * * * * * * * * * * * * * * * * * * * * * * * * * * * * * //

dimensions      [0 0 -1 0 0 0 0];

internalField   nonuniform List<scalar> 
43136
(
9.2347
8.96912
10.5887
7.27394
8.59894
9.77363
8.68961
9.45905
9.09202
9.82101
10.0949
7.47243
8.84467
9.70705
8.97623
9.47933
11.7833
11.7816
12.4731
7.84283
10.9312
12.3164
10.7264
11.615
6.4596
6.53571
6.73715
6.24455
6.40692
6.55217
6.50271
6.58528
8.4305
9.78807
6.99924
7.08281
8.55865
9.08892
7.24372
7.29211
9.79586
7.42175
11.1085
11.2583
9.30661
9.14435
10.7101
9.80875
9.67776
7.09178
7.15064
7.45537
7.47766
7.29774
7.40288
7.23032
10.6697
7.62559
7.36662
10.4738
10.1987
7.63889
9.74903
7.60876
6.16998
6.86284
6.48859
6.39484
6.24377
6.4325
6.31683
6.44273
8.76562
16.1327
11.3219
10.068
9.34326
11.3754
9.80173
11.6282
7.3299
9.96108
9.49933
7.99135
7.643
9.1101
7.94315
9.24792
6.66198
8.03186
7.26266
7.00898
6.80002
7.13891
6.92778
7.19017
7.10775
6.6107
6.49469
7.71873
7.31989
6.56984
7.45331
6.76225
7.71562
8.3889
9.55254
7.2124
7.80693
8.07981
7.68766
8.00033
6.7658
6.59067
7.9221
7.19621
6.84831
6.80432
6.9928
6.94997
7.26486
7.69279
8.49559
9.68409
7.42967
7.61867
8.33967
8.48089
8.7178
9.13474
9.99131
7.59179
8.61841
9.36917
8.37924
9.27792
10.6223
14.332
16.3571
8.20657
10.5833
14.0258
9.75915
13.8497
13.0804
17.7081
21.3291
9.08301
13.035
16.8929
12.0777
16.615
6.87228
6.94785
7.14289
6.41771
6.78865
7.01185
6.6989
6.94111
8.97335
9.91722
7.44814
7.68193
8.58297
8.75268
7.75913
7.7826
10.4378
8.2645
14.9186
11.6933
10.3383
9.59532
11.5258
11.3308
9.43338
7.32434
7.46187
7.76248
8.09063
7.72013
7.97057
7.4793
11.5745
8.53854
8.19235
14.6253
10.6002
8.64837
10.4175
8.56331
2063.49
2055.94
2052.71
1261.09
2456.73
2056.26
2372.3
2160.13
2044.19
2032.93
2038.61
1131.06
2012.34
2035.07
1949.04
1975.74
2051.02
2046.51
2045.24
1132.11
1937.53
2049.1
1863.39
1928.06
245.517
337.607
401.939
46.5926
179.96
360.689
189.214
314.722
2159.43
2049.2
1084.59
1140.23
2085.9
2083.69
1319.28
1224.12
2046.6
1164.42
2047.23
2053.4
2036.64
1975.4
2047.99
1975.6
1983.24
1062.02
1112.62
1110.79
1192.96
1147.03
1137.13
1112.35
1992.57
1124.73
1127.25
1942.21
1903.09
1150.37
1899.13
1144.81
2034.09
2032.01
2050.08
951.63
2117.62
2038.77
2103.04
2084.12
2044.43
2054.93
2049.5
836.988
1978.51
2048.27
1904.54
1943.39
2083.87
2050.09
2080.35
886.565
2067.67
2080.16
1972.69
2002.78
178.093
199.545
284.182
38.1415
141.796
227.072
142.27
200.054
1998.66
2204.04
768.837
775.699
1954.68
2092.45
865.69
890.197
2039.09
838.498
2048.08
2070.3
2002.41
1925.8
2047.94
1955.72
2155.93
754.953
775.289
897.141
940.985
834.426
911.901
837.695
2214.57
893.083
805.989
1929.09
2104.04
898.71
1877.24
806.343
14.3725
13.7541
16.6353
8.11578
12.187
15.4718
12.3382
14.2232
11.2405
11.0475
13.9628
7.78669
9.92159
12.3491
10.1513
11.947
17.8288
17.1349
20.7195
9.00927
13.6153
18.7331
13.7691
17.9505
6.8826
6.68481
7.07626
6.36138
6.70378
6.89018
6.76818
6.92001
11.0541
12.702
7.81771
7.60337
11.143
11.5984
7.94
8.22977
13.1482
8.1141
15.4395
16.652
12.116
10.4596
14.5944
11.6462
12.8107
7.91113
7.78661
8.18744
8.47569
8.18335
8.10429
7.88656
15.3869
8.6558
8.11996
14.7004
12.3551
8.71188
11.8308
8.38841
5.90551
6.18724
6.09652
5.95517
5.92796
6.02985
5.94878
6.03215
7.13793
9.30387
8.66504
7.36262
7.35958
8.38146
7.47117
8.32614
6.795
8.34491
8.6514
7.07984
6.98293
7.87413
7.15323
7.82728
6.04687
6.48512
6.36149
6.17368
6.10235
6.24311
6.15017
6.25137
6.29086
6.17734
5.99812
6.42682
6.37122
6.08687
6.33365
6.13198
6.70671
6.84187
7.96122
6.52362
6.70349
6.82421
6.82052
7.01998
6.22821
6.03576
6.51494
6.35003
6.20493
6.14035
6.28013
6.20136
6.53176
6.59994
6.80107
7.83727
6.64768
6.61494
7.13347
7.06459
6.2034
6.79894
6.64457
6.3558
6.26868
6.4091
6.35405
6.47072
8.67422
14.1021
10.7229
9.70003
9.53529
10.1474
9.73601
10.1892
7.4506
9.10196
8.49921
7.25239
7.55376
8.03687
7.73734
7.9807
6.5008
7.47166
6.77718
6.55925
6.54122
6.71352
6.62151
6.71578
7.13363
6.75264
6.40186
7.52187
7.32489
6.58842
7.2566
6.57452
7.45632
7.8359
8.50298
7.03644
7.55516
7.73477
7.82144
7.9582
6.88998
6.47619
7.60929
6.88948
6.69366
6.59012
6.79248
6.71933
7.09152
7.02691
7.82448
8.48128
7.29283
7.05961
8.14114
7.89161
1535.74
1541.21
1543.71
846.501
1480.96
1545.37
1437.83
1495.46
1534.94
1504.8
1528.41
1050.23
1711.54
1517.72
1685.36
1531.37
1542.99
1542.04
1550.64
907.217
1575.98
1549.18
1526.89
1513.73
214.605
204.603
239.603
43.0769
153.744
231.817
155.423
213.386
1531.63
1453.9
793.296
808.239
1523.03
1472.98
869.164
868.605
1539.14
1048.33
1538.36
1544.63
1515.89
1682.66
1542.2
1656.11
1430.57
778.616
791.964
768.465
839.28
842.01
786.733
782.908
1497.04
917.737
992.072
1517.98
1570.58
961.61
1605.31
989.106
6.01621
6.06611
5.9177
6.35295
6.13837
6.03337
6.16807
6.1251
6.113
6.15992
5.95696
6.51408
6.27682
6.12038
6.36101
6.24276
5.88167
5.89179
5.86444
6.01716
5.92102
5.88495
5.92881
5.91005
7.13137
7.20754
6.66427
8.2761
7.57242
7.30789
7.70408
7.62416
6.21028
5.98829
6.6843
6.82788
6.30542
6.34168
6.46918
6.52027
6.07798
6.63713
5.94475
5.92886
6.23469
6.48204
5.94627
6.02741
6.00938
6.77289
6.95402
6.38891
6.15156
6.71883
6.33967
7.10006
5.98443
6.33524
6.8166
6.01141
6.07737
6.20156
6.06221
6.17375
6.07318
6.02675
6.63402
6.27539
6.1231
6.13954
6.19483
6.21108
5.98439
6.06225
6.97908
6.15101
6.06103
6.13631
6.14249
6.21134
8.28209
9.48419
13.0549
9.83436
9.50547
9.98631
10.1511
10.5027
6.40079
6.26255
7.49151
6.50563
6.36504
6.35198
6.45024
6.48363
6.03235
6.95372
6.2357
6.16522
6.1025
6.21152
6.12185
6.2109
6.0715
6.22281
7.30991
7.06853
6.14399
6.21918
6.72204
7.03968
7.21167
6.31465
6.24649
7.6083
7.18143
6.34943
7.35243
6.35443
7.29597
7.79143
6.31189
7.5027
7.55703
7.51756
7.3191
7.25292
6.29752
7.17177
6.23893
7.24809
6.61231
6.7761
6.72613
6.88666
8.14959
9.40967
7.23692
9.80959
8.76582
8.69302
8.75946
8.93685
6.1346
6.43166
6.09068
6.65695
6.32567
6.29637
6.31017
6.36391
9.15279
11.0779
8.38762
15.5418
10.403
10.2522
10.6232
10.8402
7.6284
6.52574
7.79716
9.13785
7.68293
7.13112
8.43585
7.87146
7.62699
9.05848
7.00548
6.49634
7.8434
8.12259
6.73165
7.05998
6.54509
7.99561
9.26139
7.37809
6.91576
8.11041
7.28845
8.56229
6.59435
7.5159
9.33397
7.12313
6.78957
7.29894
7.10233
7.55815
6.23136
6.04842
6.17273
7.43471
6.40556
6.1464
6.88012
6.52189
6.00805
5.99409
5.98498
6.58022
6.12363
6.03129
6.28699
6.17255
6.07784
5.9615
6.02156
6.98508
6.20897
6.00782
6.47779
6.17243
9.51135
8.2459
9.5125
13.0008
9.97921
9.05628
11.1646
9.98985
6.19933
6.33992
7.68252
7.01938
6.44143
6.67567
6.80433
7.29866
6.07107
6.83964
5.98998
6.07978
6.30012
6.41555
6.03281
6.15198
6.64254
8.35862
7.47525
8.44525
7.36565
7.86066
7.61225
8.07593
6.34837
7.49355
7.18274
6.12301
6.448
6.96077
6.29092
6.68683
17.7573
11.079
9.83377
16.5507
14.5055
10.8752
13.5825
10.2827
8.35817
7.02492
6.70962
7.8437
7.81677
7.03663
7.64815
6.83786
7.14239
6.45875
6.24793
7.00072
6.76681
6.44304
6.65177
6.31884
12.6936
9.33481
8.55767
11.5588
10.7336
9.25175
10.4365
8.82056
9.83447
8.79508
12.011
8.99447
9.52046
9.20491
10.1666
9.84851
8.18878
7.84792
6.68484
7.57102
7.86637
7.50353
7.60988
7.28299
8.46629
11.7216
8.75187
7.88
9.10456
9.37344
8.13547
8.51333
7.30866
7.16236
7.57262
6.53862
7.00643
7.37738
7.1232
7.43337
10.7834
13.6171
13.0559
8.85001
10.7366
11.9773
9.93472
11.5438
21.5654
35.5262
31.1125
11.72
21.7889
30.8069
17.9271
29.7752
16.2297
21.7258
16.4988
10.2764
16.136
19.2022
13.7412
18.0488
7.62947
7.87985
7.79527
6.73588
7.50358
7.88407
7.19973
7.69881
13.5813
12.9498
8.69651
9.73065
12.0617
10.7259
9.94011
9.29467
16.8123
10.9575
25.8761
15.0979
15.9383
14.2712
19.7316
19.6471
11.5219
8.22387
8.99885
8.8281
9.71517
9.07315
9.52418
8.61696
14.1399
10.0315
10.5762
24.2854
12.8588
10.3709
15.8428
10.6354
9.61123
10.5473
13.5172
7.57983
8.89281
12.0007
9.16055
11.3216
12.387
16.403
21.554
10.0683
11.6152
18.492
12.1568
17.3965
20.6961
31.024
35.8567
11.4229
19.0765
32.3836
19.5052
28.8827
6.93607
7.62529
7.71511
6.64473
6.92022
7.52384
7.06357
7.49406
9.66974
12.4441
7.40468
8.19871
10.0425
10.8996
8.24842
8.30709
14.2054
9.83824
26.3319
18.3815
13.3036
12.9541
15.9636
14.8768
12.7654
7.59555
8.4482
8.87566
8.77342
8.20533
8.70855
8.34703
17.1146
10.2383
9.61357
23.8661
16.5089
10.5743
15.3858
10.4004
10.351
8.48117
12.0408
10.9135
10.0533
9.46499
11.0417
10.9352
7.33018
6.62654
7.96601
7.21036
7.14347
6.97062
7.47242
7.33877
14.6484
11.0408
16.2443
15.4774
14.0949
12.9094
15.2847
14.7584
11.6608
8.82961
16.0703
13.8627
11.3014
10.3375
12.9911
12.6979
8.28114
11.6948
10.5884
8.29623
8.89853
10.0865
8.49072
9.79299
7.95504
7.90407
8.68971
10.792
8.71746
8.18921
9.36805
9.18769
13.1948
12.0911
9.07046
14.4268
13.3272
11.919
13.1174
10.7791
13.06
13.6725
8.90002
9.80635
11.8094
11.9316
10.0525
10.2989
2717.82
2428.22
436.825
436.679
2581.53
2528.58
914.033
1085.43
2203.71
2019.92
552.505
587.14
2137.85
2078.12
1149.73
1163.73
64.6977
79.297
14.7469
15.0261
68.5509
70.991
21.8727
24.8619
62.097
96.7082
16.0184
20.2632
70.7563
72.6148
25.5114
30.6
2345.33
465.614
471.944
566.953
1118.09
1050.81
544.753
489.13
2272.51
568.699
535.213
472.483
1164.07
1125.55
520.989
527.474
118.534
133.988
212.966
23.2352
55.1354
182.311
68.0756
179.15
143.289
27.636
244.867
172.928
142.463
70.386
158.124
85.6447
3132.85
2640.17
1079.63
772.563
2920.15
2746.88
1399.13
1541
2298.15
2054.44
1116.16
897.229
2188.32
2109.66
1532.75
1532.14
187.922
244.162
22.8501
26.9356
208.028
208.261
43.1046
59.387
107.331
164.992
25.9476
28.5785
117.212
118.581
36.0322
46.0836
2488.7
1114.25
800.139
882.382
1549.98
1499.79
875.651
825.506
2380.12
878.21
1099.68
1092.76
1582.99
1538.89
1117.1
1122.77
346.873
198.143
321.145
36.2514
123.079
273.422
133.584
265.64
466.524
45.951
369.247
621.269
479.184
142.391
561.57
175.578
2534
443.251
1654.71
525.704
1733.12
1748.5
1665.5
1683.4
49.9818
12.6943
63.4339
13.9672
32.5963
35.6173
48.6136
41.4538
1540.17
576.608
1434.58
535.417
1494.47
1471.83
1448.7
1437.52
105.457
17.3771
97.6986
20.5997
69.1086
73.5697
83.8482
78.8056
265.869
1611.23
359.79
59.7472
391.73
1621.94
96.7165
442.693
308.97
67.459
461
1595.48
353.116
346.514
492.211
423.139
1553.3
403.07
87.0406
490.019
508.057
428.082
469.966
418.69
1548.6
498.577
76.9147
479.166
1495.49
510.429
500.695
107.472
6.22004
6.99686
6.15474
6.92111
6.4752
6.59786
6.61969
6.71036
7.79879
8.68945
6.8217
8.43801
8.31732
8.05045
8.05881
8.03588
5.96861
6.10695
5.9015
6.18985
6.05966
6.01041
6.0575
6.02319
8.02154
8.62942
7.19729
9.57554
8.53595
8.3362
8.72655
8.52743
7.37015
6.38555
7.3018
8.31322
7.31173
6.85841
7.88041
7.3304
7.23312
8.02382
6.59796
6.222
7.3515
7.48776
6.44109
6.71657
6.26352
7.41314
8.11105
6.85581
6.50268
7.43064
6.79262
7.57564
6.24368
6.71259
8.08242
6.55126
6.31495
6.64655
6.57946
6.85087
103.032
62.2946
310.686
74.3612
90.8392
94.4319
89.7588
99.0902
48.4356
23.9331
247.925
28.1929
47.2195
70.1574
41.4009
73.6538
1004.76
1079.51
1932.62
874.138
1037.64
1363.53
994.883
1476.12
49.1861
27.2893
174.774
29.9063
44.1229
57.1226
40.8346
60.7651
62.0584
300.301
66.6708
38.7165
54.7327
87.482
39.997
76.5815
93.8043
50.9567
606.292
389.817
99.3777
77.7487
357.808
361.767
290.392
63.8226
35.144
224.002
257.664
82.0156
244.304
69.2801
393.203
383.986
54.7448
651.563
373.958
347.191
307.295
179.596
15.09
10.9615
10.5537
14.4371
12.953
11.1969
12.5759
10.7647
7.81139
6.53918
6.37905
7.07439
6.90748
6.51632
6.83882
6.41122
7.35937
6.26705
6.16607
6.83677
6.52348
6.26441
6.47554
6.17101
14.0579
8.67507
8.51132
13.151
10.7101
8.87373
10.6295
8.70083
8.95118
8.68004
12.0226
8.01043
8.94156
9.05586
10.1492
10.3198
7.88054
7.16004
6.37933
7.63158
7.63085
6.86994
7.56813
6.74159
8.63378
11.903
7.92586
7.68498
9.98912
10.0959
7.81234
8.10744
7.38016
6.90538
7.03623
6.28462
6.65492
7.04364
6.66561
6.95804
6.07574
6.21037
6.61218
6.47993
6.13209
6.18928
6.35061
6.36296
6.38795
6.62116
7.18044
7.19057
6.49867
6.63105
6.82964
6.91362
8.05336
8.535
12.023
9.946
8.35467
8.7194
10.4785
10.5119
7.45289
8.14654
9.20905
9.72981
7.8294
8.16806
8.86713
9.02633
6.30045
6.75768
6.6538
7.02053
6.57492
6.4952
6.83157
6.79708
6.3766
7.20761
7.23264
6.92603
6.61285
6.72499
6.89877
7.02946
7.45722
7.14082
7.54763
8.99234
7.57645
7.22614
7.81111
7.42021
7.51236
9.12347
7.66015
7.83756
7.71318
8.14278
7.7542
8.11575
4608.12
5067.46
2439.83
1125.77
3975.21
4127.5
1731.85
2119.65
5788.3
6242.37
5134.31
2111.03
4910.89
5862.76
2808.17
3999.41
2406.76
3398.77
2659.39
1346.7
2244.09
2737.16
1636.64
2168.02
327.673
588.156
421.494
97.6465
296.677
492.927
155.664
305.967
4315.22
2187.28
1005.52
1391.87
2118.14
2119.18
1554.9
1350.33
4916.79
1869.16
4181.57
2679.46
2756.81
2828.25
3329.51
3030.21
1274.56
506.574
840.261
582.401
956.146
759.868
885.607
811.87
1908.16
1006.6
1236.08
2751.9
2033.61
1369.81
2044.59
1569.15
2595.22
3320.94
3145.74
1276.39
2505.23
3297.86
2557.09
3152.65
4827.63
5449.38
3863.83
2162.61
4246.82
5449.68
3974.19
4603.39
3199.76
2975.72
2567.28
1620.07
2912.67
2924.13
2580.91
2645.73
421.528
637.603
608.988
111.321
404.131
640.507
409.815
563.711
3273.19
3219.15
1151.5
1473.3
3290
3069.13
1531.07
1524.95
4707.06
2136.28
3819.37
3845.81
4197.01
3688.52
3935.04
3626.89
3011.71
1146.23
1477.27
1411.23
1462.82
1450.44
1491.5
1377.4
3424.39
1664.64
1917.97
3285.37
2989.17
1857.52
3220.16
1877.44
3986.78
4846.9
2570.18
721.731
3346.5
4022.46
1296.21
2001.7
5437.43
5055.08
4369.83
2331.18
4540.01
4747.44
2820.66
3539.59
2647.7
3460
2850.49
9122.75
2570.87
3066.77
2402.06
2622.25
202.751
1105.35
2890.66
103.113
291.783
984.716
315.794
1631.81
4022.9
2229.69
617.481
1391
2100.62
2073.73
1361.16
1071.43
4706.17
2158.47
3962.97
2906.25
2782.48
2856.4
3435.86
3075.25
1207.31
313.517
1475.44
4406.33
912.921
728.004
2062.42
1356.95
1975.42
9836.93
3107.88
2815.17
2206.64
4309.82
2203.42
4229.81
2637.1
3202.97
2959.99
9699.41
2640.91
2682.99
3825.23
3380.21
3896.08
4468.44
3511.51
3334.72
3683.18
3637.68
3568.62
3540.29
2964.32
3444.44
2592.92
4200.86
3216.48
3206.99
2854.57
2930.57
3199.33
1733.03
1889.58
167.737
2306.32
2571.51
1674.32
1940.9
3023.82
3437.21
9610.25
5305.59
3853.18
4175.78
6805.57
9149.5
3072.88
5123.06
3486.24
3436.93
3534.58
3640.63
3496.52
3496.99
3377.39
8645.61
5602.07
5023.55
7224.22
8549.74
7062.95
7455.11
3354.26
5439.84
5357.11
3612.15
3757.44
6760.22
3789.87
5664.95
4822.43
5581.51
2528.86
1159.87
4065.5
4699.25
1758.46
2213.73
6047.99
5338.13
5236.02
2290.61
5022.19
4974.27
3056.46
4242.41
2606.05
3969.09
2855.46
1606.76
2445.97
3397.04
1890.43
2446.96
335.519
637.698
513.407
103.029
299.497
535.208
162.883
367.276
4539.33
2257.98
1011.63
1453.42
2213.38
2204.32
1635.31
1411.56
5289.8
2021.27
4720.38
3117.42
3039.07
3099.67
3717.1
3316.68
1405.36
530.148
937.071
697.937
1052.44
841.871
981.969
903.101
2142.54
1238.41
1423.46
3226.31
2267.25
1562.29
2285.82
1779.42
2853.05
3846.57
3449.81
1526.14
2871.81
3781.88
2956.7
3537.6
4831.24
4934.95
3740.88
2343.72
4394.35
5207.84
4040.78
4357.1
3280.95
2883.61
2393.2
1727.79
2965.26
2860.42
2626.11
2525.46
503.259
692.392
657.97
116.867
467.869
696.348
469.878
609.889
3617.21
3425.67
1380.54
1673.08
3550.34
3324.96
1731.57
1720.88
4773.2
2311.96
3930.19
3932.06
4237.69
3763.91
3962.49
3719.74
3210.64
1378.9
1693.9
1602.83
1666.51
1652.67
1702.08
1596.51
3505.63
1831.95
2104.52
3287.69
3111.85
2011.69
3320.4
2036.49
4591.41
2655.47
4794.67
1643.82
3058.92
4055.76
3019.16
3723.26
2638.63
2721.11
3322.56
1671.12
2243.24
2963.19
2236.45
2768.21
5291.78
4033.78
5009.43
2714.06
4163.15
4732.46
4076.78
4447.52
594.947
638.912
973.937
187.345
394.678
773.34
397.681
685.312
2032.26
3706.98
1133.08
1020.89
2032.26
2983.35
1315.36
1723.1
2999.99
1786.86
3962.29
4614.16
2761.29
2504.61
3383.4
2875.91
3635.65
1134.69
1047.56
1696.92
2092.9
1579.3
1698.17
1348.67
4311.43
2213.1
1617.53
3623.18
3600.53
2365.38
2840.96
1957.75
2264.4
2674.69
3084.45
1882.09
2329.84
2638.19
2497.59
2825.21
3488.14
4475.13
4094.23
2719.96
4164.2
5182.33
4044.86
4492.75
3340.41
3432.33
2801.84
1694.3
3358.41
3395.14
2912.18
2923.03
963.292
1087.45
708.044
218.16
929.453
1095.36
759.868
800.742
2983
3306.9
2030.57
2425.45
3161.93
2988.54
2288.46
2257.84
3479.58
2679.7
4161.53
3666.11
3586.4
3782.07
3730.58
3936.75
3181.39
1943.72
2208.67
1717.56
2049.24
2113.53
2041.62
2096.1
3444.12
1734.05
2322.12
3721.77
3467.62
2058.37
3631.64
2083.59
861.26
524.067
1137.18
326.312
882.826
930.496
862.582
1002.64
123.417
18.5796
163.899
22.6992
116.168
117.423
116.489
130.123
1485.63
870.19
1698.32
554.689
1510.43
1589.13
1487.78
1719.04
45.8465
15.9753
52.599
16.9048
40.6476
43.8577
38.6833
41.0637
526.829
1161.65
322.539
115.801
518.253
920.146
122.567
348.475
547.473
123.182
756.786
1220.09
612.144
543.131
716.62
722.463
1138.67
305.406
111.535
419.127
441.867
371.615
439.59
327.349
1317.54
504.086
128.546
832.299
1208.02
470.531
705.206
160.896
10.5342
12.2271
12.8674
11.1471
11.3256
12.3037
11.6717
12.523
14.9228
19.406
26.8082
24.6982
16.2382
19.0238
18.8388
22.7751
16.2067
32.2852
36.5144
41.0935
22.7273
29.1362
26.3708
32.6318
11.9619
33.6048
45.5049
25.0982
13.863
25.2557
16.7183
33.0459
13.4586
14.0363
12.4141
14.8813
13.8617
13.7458
13.524
13.6603
15.0315
20.9615
24.7859
15.4452
15.1854
18.7635
15.5151
19.3103
14.4627
12.753
19.3017
24.8609
14.7623
14.0806
19.7781
19.8968
15.7341
34.5974
27.2234
28.3355
22.9901
29.3806
23.033
35.3478
2387.31
2372.5
2399.98
1109.63
2259.59
2394.82
2202.04
2302.72
2351.65
2351.78
2353.6
1114.64
2233.18
2347.42
2184.03
2271.35
2372.64
2359.51
2359.14
1280.84
2541.45
2362.02
2671.51
2737.31
250.732
210.71
175.973
27.9353
187.005
229.254
136.011
138.306
2248.61
2413.42
1135.25
1035.92
2208.24
2315.92
1067.25
1180.5
2369.48
1072.09
2355.39
2396.35
2295.21
2312.13
2372.44
2403.57
2414.64
1124.87
1002.03
1039.94
1236.43
1161.8
1145.19
1109.26
2514.28
1040.3
1016.93
2434.19
2577.46
1182.84
2422.1
1148.28
10.4255
10.6446
8.74742
10.3715
9.97751
9.93938
9.84576
9.4837
11.4073
12.4082
8.77608
10.336
11.1104
11.2266
10.6402
10.2386
7.53677
7.2887
6.70565
7.31118
7.27176
7.1106
7.16721
6.93328
10.383
9.50883
8.39794
10.2144
9.74086
9.42395
9.69966
9.05261
10.2328
8.38312
9.86523
9.72309
9.9891
9.52281
10.0848
9.66931
10.3408
9.65932
8.14051
8.18274
9.61576
9.68872
8.6904
8.35036
8.21423
9.81084
9.50724
8.08329
8.54711
9.26339
8.23454
9.24237
7.94778
7.65451
9.04625
7.79006
7.93031
7.99034
8.13696
8.29735
7.00063
16.4727
8.31665
8.94156
7.38203
8.06608
7.78508
8.1474
179.325
3419.42
1038.19
648.089
369.372
1459.37
427.547
1172.44
13.053
156.3
19.8998
23.754
16.9091
23.9761
18.0824
22.6673
13.6757
84.9597
22.448
24.0568
17.1414
24.8691
18.9303
23.2366
25.6762
9.26746
10.0786
78.2565
31.2551
9.8041
51.7556
13.7975
64.3833
127.778
261.74
14.5727
57.4304
99.4534
55.1059
76.9738
9.90142
10.8124
81.0421
17.7122
12.4424
13.0857
16.1102
19.2137
13.4087
24.5174
112.405
202.056
20.7781
26.4511
82.4518
102.585
2356.64
2341.87
2357.84
1190.07
2190.26
2354.95
2083.56
2205.63
2338.28
2337.29
2342.69
1225.95
2195.28
2337.47
2139.37
2239.32
2355.19
2344.15
2354.46
1379.55
2328.58
2351.65
2347.42
2396.98
402.362
284.455
314.176
29.0997
325.675
359.424
260.184
258.398
2170.54
2254.93
1205.44
1215.74
2075.53
2138.43
1195.46
1225.66
2340.14
1243.43
2342.11
2357.8
2181.83
2128.15
2342.72
2230.63
2193.89
1217.4
1215.88
1234.68
1276.57
1242.52
1260.17
1233.91
2283.41
1260.79
1240.19
2271.6
2241.62
1316.07
2190.54
1335.17
2339.99
2349.67
2359
1168.62
2162.35
2360.3
2059.82
2246.7
2357.57
2372.91
2383
1170.44
2479.02
2381.33
2400.9
2317.44
2360.56
2387.43
2386.84
1176.52
2215.18
2393.21
2105
2265.3
243.056
219.36
314.875
25.6018
137.056
285.832
143.14
273.227
2245.11
2053.83
1091.28
1076.05
2200.94
2097.78
1191.68
1204.83
2363.58
1228.29
2391.42
2368.33
2304.2
2398.37
2367.39
2367.29
1985.1
1067.4
1064.29
1017.12
1170.59
1168.25
1042.2
1046.68
2246.14
1182.48
1196.02
2293.12
2182.06
1218.31
2255.36
1214.24
2360.92
2388.57
2367.88
1048.39
2167.97
2377.91
2213.54
2442.82
2434.42
2463.01
2442.15
1559.11
2866.54
2455.94
2833.1
2392.07
2379.07
2421.81
2397.9
1347.78
2709.38
2409.87
2788.81
2430.73
174.792
218.341
106.686
21.9157
103.282
170.309
62.477
104.307
2615.9
2440.99
975.361
1221.19
2632.03
2657.5
1459.38
1400.71
2426.79
1563.85
2432.68
2390.34
2491.16
2959.72
2398.68
2823.69
2415.95
839.842
1173.73
703.34
1273.01
1296.43
885.261
1120.26
2413.33
1311.2
1500.12
2376.55
2915.57
1493.87
2803.71
1556.93
803.836
456.662
489.921
310.035
696.198
509.787
711.67
485.913
163.554
39.9181
40.5184
41.4988
64.6067
44.4955
61.1891
39.1039
117.292
37.3442
17.5968
23.7099
90.6222
41.1126
91.2886
30.717
48.1029
24.9766
17.8186
17.1082
35.5872
26.0138
34.8299
21.3897
269.843
404.315
237.813
62.3832
269.265
324.175
139.513
154.517
186.544
46.4485
45.3241
198.579
170.792
68.7867
174.757
73.5271
410.825
240.697
59.5509
89.9416
122.269
135.699
89.5341
71.5144
162.118
36.6036
41.715
38.8833
80.1857
47.2119
70.2881
42.7117
1581.08
1597.69
1590.88
835.568
1613.63
1590.65
1664.87
1600.09
1617
1636.81
1632.84
862.131
1806.82
1629.1
1869.17
1637.89
1602.78
1630.17
1627.76
815.852
2218.48
1624.24
2458.5
1770.17
102.665
97.8894
56.3533
20.8186
57.4639
80.4196
41.4296
58.6308
1710.72
1811.28
691.167
626.13
1768.16
1811.36
822.738
792.871
1609.92
848.884
1627.08
1601.11
1623.28
1914.24
1607.79
1968.54
1900.78
542.623
583.133
414.052
775.878
744.673
506.91
573.764
1657.36
772.272
844.118
1692.98
2144.08
837.665
2099.74
894.122
6.01136
6.51182
6.12029
6.38731
6.34443
6.34232
6.26523
6.33869
8.00258
11.8583
9.50991
9.92615
10.6612
11.0131
9.84298
10.1164
6.2149
7.73006
6.45948
7.1904
7.05188
7.17778
6.85208
6.79989
7.33
9.05899
8.19991
9.68234
8.69436
8.55256
8.67011
8.71139
7.44776
6.64255
7.06585
8.9656
7.24043
6.71403
7.43891
7.02349
7.51727
9.02415
8.66707
6.66058
7.43215
8.6476
7.00872
8.49271
6.5407
7.04869
8.72279
7.63447
6.7513
7.1118
7.73435
7.88809
6.55108
7.63081
8.76568
8.20932
7.13993
7.67016
8.06255
8.29127
83.3299
47.7208
253.175
70.4289
83.4926
76.4071
92.7217
106.667
27.4581
15.5626
82.2818
16.1524
26.5977
25.0059
28.7158
33.499
836.624
545.796
1917.36
580.024
864.993
833.356
972.753
1225.68
36.6585
17.4474
99.6443
21.6251
35.6104
33.9631
36.2061
44.2345
46.8791
254.877
69.7061
30.9183
51.9357
86.3475
32.2712
66.0038
43.9702
29.0303
143.181
236.641
61.0984
47.607
155.352
152.71
282.104
73.7814
33.4605
224.979
216.072
94.9351
213.392
70.667
328.511
295.872
38.9735
207.971
271.04
202.427
166.403
89.0927
6.97589
9.02099
8.98284
7.8873
7.14863
8.1301
7.55252
8.18579
11.3811
14.4375
15.4393
11.8805
11.6419
12.8407
12.0108
13.3752
12.7101
17.0839
19.0863
17.7468
13.5299
16.7997
16.0275
17.9355
9.41721
10.3981
14.2144
12.1545
9.73458
10.1932
10.884
11.2268
9.23212
9.31724
8.16724
9.59099
9.30587
8.44264
9.27227
8.65337
10.881
11.0189
14.6365
10.8832
10.8448
11.4178
12.6176
13.058
10.1625
8.74838
10.0972
12.7023
10.7479
9.24383
11.1015
9.78324
11.1226
13.2608
11.1903
15.1586
11.6663
11.9539
13.1787
13.1129
1751.41
879.449
1947.08
545
1802.33
1842.09
1827.16
1903.85
153.474
16.1502
158.453
20.1443
109.323
95.5594
123.672
91.689
2169.39
1100.41
3302.3
512.368
2273.24
2349.2
2291.16
2445.29
45.9222
13.4839
45.8845
14.8547
34.036
36.4208
32.562
30.5207
831.617
2009.45
481.156
107.484
863.836
1930.69
152.562
505.761
814.734
113.488
717.503
2054.35
804.915
748.985
851.343
764.303
2040.28
461.842
102.06
344.283
492.791
442.181
389.259
377.415
2134.25
312.007
79.8808
682.616
2177.4
434.294
803.69
129.896
10.8486
12.665
11.0652
10.9195
10.7789
11.5917
10.6908
11.3771
16.3918
20.043
17.5496
16.6681
16.6106
18.8034
16.0882
18.1227
11.8337
15.4541
13.9178
11.4802
11.876
13.9534
11.6007
13.6683
11.1862
13.6719
10.2176
11.7734
11.3459
11.3711
11.1228
10.9789
12.728
11.144
10.923
13.1352
12.4603
11.4672
12.6204
11.263
14.4393
13.6538
16.2355
12.4784
13.9929
13.9768
13.4726
13.4336
10.7621
10.8282
12.957
10.2738
10.5647
11.0141
10.5709
11.3324
12.216
11.5749
13.1854
15.6727
12.0096
11.8322
12.9008
12.7603
784.552
490.368
448.987
306.978
520.405
504.647
517.848
494.314
161.564
63.1802
56.2634
50.8623
62.043
56.7763
51.1801
51.5895
163.903
55.5268
39.9301
41.7665
60.0361
56.4143
54.1305
51.8966
53.127
38.6318
25.6486
21.2183
35.7236
33.9786
30.0925
30.8825
168.174
215.668
156.906
49.2453
157.434
168.029
149.895
153.177
163.897
45.2192
56.8933
207.571
158.691
51.0619
203.049
60.3135
208.878
151.71
40.1007
45.6299
139.975
147.969
51.1395
41.3239
198.684
45.1728
40.7976
52.545
56.9778
48.8292
52.7548
48.5654
1771.89
1167.13
1741.2
1016.42
1474.25
1388.71
1511.31
1405.03
727.577
318.653
598.32
275.68
420.715
404.534
414.129
395.028
1725.62
1215.06
1949.34
1020.16
1418.36
1426.18
1448.39
1454.91
325.16
169.335
350.492
53.6755
196.764
202.702
191.637
195.895
843.378
1423.95
771.516
330.186
852.417
1033.37
647.433
760.7
871.194
340.23
787.719
1350.47
882.59
533.942
1128.32
796.527
1459.7
784.715
319.919
778.354
1002.22
760.75
762.019
444.15
1364.98
692.752
336.29
796.188
1010.18
701.767
799.269
575.084
6.50249
7.80482
6.45317
7.52141
6.96431
7.09231
6.91995
7.13584
10.3777
16.6649
9.69007
15.8947
12.7075
12.674
11.7934
12.5462
6.28282
7.06145
6.18665
6.88215
6.51925
6.55037
6.37754
6.50612
9.00039
12.2315
8.36071
11.2818
9.9719
10.108
9.42221
9.92496
8.75784
6.77998
8.30798
11.5504
8.52389
7.44363
9.94133
8.48841
8.79886
11.5973
8.1641
6.82898
8.84712
9.26931
7.5678
8.13783
6.63421
8.01393
10.6403
7.30505
7.17966
8.33377
7.66298
8.69102
6.8103
7.57567
11.251
8.09224
7.02216
7.74741
7.81699
8.95902
10.8591
13.4949
13.1581
13.0376
11.9374
12.1241
12.8657
13.054
21.0561
35.8117
30.9128
31.3643
28.923
29.3788
30.0373
31.3854
17.0575
24.5332
30.914
27.6957
19.7229
20.1381
27.3889
28.6466
16.2626
22.3043
23.3375
18.4557
19.2733
19.8545
18.9675
21.1154
16.2239
14.7369
14.8964
24.8324
18.2943
14.8959
19.2753
15.2723
16.508
25.3669
23.6692
14.9738
18.675
24.0698
18.5565
23.2366
16.4169
16.0477
22.242
23.432
16.7731
16.4924
19.5028
19.4018
16.7192
25.2299
23.8065
24.4509
19.6244
20.1234
23.2658
23.8787
126.855
92.9474
305.197
139.018
112.572
105.707
127.492
125.529
69.7487
37.4549
106.387
55.7987
61.8488
54.0499
78.4323
78.9109
838.832
576.563
1548.3
1052.7
867.338
774.843
1216.31
1337.55
174.223
84.7996
549.794
112.982
176.088
149.9
257.505
312.128
86.8814
297.03
137.434
105.932
102.959
116.682
107.457
126.255
81.3655
91.0064
179.672
268.762
100.302
92.5959
225.102
220.114
441.537
178.715
161.396
755.344
526.11
180.64
537.554
172.4
430.521
835.314
183.222
414.541
426.777
470.813
400.663
311.885
3622.2
958.321
329.046
357.777
1349.5
874.113
335.495
347.96
130.192
14.5785
10.8457
12.7554
18.8454
14.9285
13.3859
11.2893
21.0628
8.07951
6.66913
7.66555
8.26127
7.72405
7.20971
6.84567
35.1959
11.0743
9.95369
13.7899
12.8528
11.219
11.8003
10.4992
133.285
52.6526
57.5517
15.2252
79.0124
80.0351
74.8162
56.1921
123.505
12.2963
10.4868
53.7996
61.4428
14.0817
56.9637
11.7774
24.1366
32.9987
10.7916
8.64967
23.6977
25.6424
9.92039
10.8805
21.9694
8.01421
9.96712
8.45313
9.26651
9.11571
9.37505
9.60022
1866.59
1835.65
1124.58
1053.5
1808.75
1727.65
1188.64
1158.6
1844.4
2091.47
1257.16
1412.99
1825.91
1834.57
1310.91
1320.19
699.571
924.446
462.99
353.39
597.888
610.203
397.138
473.342
323.593
758.657
236.921
126.644
405.851
432.91
189.786
245.505
1751.39
1012.27
990.326
1178.36
1029.82
1001.84
1060.04
961.192
1666.96
1146.03
1026.93
982.593
1015.21
1091.16
983.217
1040.83
666.769
514.149
762.901
292.416
570.045
549.475
500.337
483.265
672.862
362.672
824.28
851.563
563.621
506.819
759.395
801.933
23.0521
20.9792
8.70026
25.659
21.4198
16.0644
20.4791
14.1827
16.3192
10.097
7.29533
16.6725
14.0496
9.11761
12.4155
8.27177
7.00262
6.64037
6.39203
6.78866
6.86083
6.6647
6.80697
6.51473
26.2491
20.356
8.0072
19.3363
20.2581
12.501
14.6872
9.51843
18.7033
8.40517
22.4532
19.0646
17.5176
14.5795
23.878
15.4465
12.6436
11.2304
7.31832
7.82266
10.9887
10.9581
7.85928
7.69199
8.21218
20.0205
14.5058
7.96849
8.33729
12.2639
8.12888
12.218
7.59643
7.3375
8.77419
7.03367
7.49459
7.63072
7.52354
7.5998
9.06427
7.59617
7.40294
9.48231
8.38288
7.72928
8.31163
7.88791
6.74861
6.24827
6.40069
6.96433
6.56238
6.33763
6.63395
6.47221
6.85749
6.56536
6.71343
7.29466
6.81712
6.64342
6.89041
6.75911
10.3851
8.37518
8.50925
11.1768
9.5716
8.46871
9.47437
8.97021
7.27805
7.19795
8.81152
7.51194
7.3291
7.57462
7.91068
8.05509
6.90134
7.05315
6.46924
6.88473
7.03252
6.77117
6.81002
6.64577
7.22025
8.759
7.62682
7.68306
7.76414
8.22353
7.55605
7.83736
7.02871
7.47366
7.35206
6.5861
6.90479
7.2517
6.75184
7.18886
20.3532
17.5768
9.91053
8.4942
16.3111
17.528
9.96843
10.3868
13.5686
9.41594
8.04796
7.29649
9.89007
9.83209
7.90807
8.14621
7.79953
7.4668
7.19501
6.89221
7.48837
7.55569
7.15308
7.13004
6.99515
6.67662
6.62236
6.40385
6.779
6.77677
6.59303
6.55243
12.9982
8.83307
7.92102
7.39132
8.8766
8.58332
7.80873
7.9522
13.6608
7.39499
8.16741
8.9494
9.11525
7.86764
8.79776
8.07725
7.76876
7.36083
6.92867
6.83872
7.33651
7.32741
7.09641
6.97445
7.79531
6.83958
6.97554
7.44091
7.34923
7.1093
7.34502
7.02643
5.97572
6.05842
6.40436
6.51135
6.04684
6.13077
6.2274
6.24887
6.14461
6.31469
6.55639
6.69835
6.24741
6.32255
6.40538
6.41455
7.17903
7.17798
8.83787
9.54274
7.27713
7.42082
8.04318
7.89414
7.71621
7.7916
10.436
11.9918
8.06703
8.31457
9.34903
9.16195
6.14367
6.5083
6.67638
6.77286
6.29617
6.38245
6.61713
6.84392
6.21017
6.91365
6.64694