/*--------------------------------*- C++ -*----------------------------------*\
| =========                 |                                                 |
| \\      /  F ield         | OpenFOAM: The Open Source CFD Toolbox           |
|  \\    /   O peration     | Version:  2506                                  |
|   \\  /    A nd           | Website:  www.openfoam.com                      |
|    \\/     M anipulation  |                                                 |
\*---------------------------------------------------------------------------*/
FoamFile
{
    version     2.0;
    format      ascii;
    arch        "LSB;label=32;scalar=64";
    class       volScalarField;
    location    "1900";
    object      p;
}
// * * * * * * * * * * * * * * * * * * * * * * * * * * * * * * * * * * * * * //

dimensions      [0 2 -2 0 0 0 0];

internalField   nonuniform List<scalar> 
67200
(
0.0859121
0.00499246
0.0521578
0.014183
0.0536174
0.04062
0.0530395
0.0370968
-0.0559328
-0.0740945
-0.0732682
-0.0753183
-0.0669246
-0.0659454
-0.0735624
-0.0789883
-0.0142222
-0.0920924
-0.2036
-0.0892695
-0.0903607
-0.11958
-0.125073
-0.139415
-0.0704758
-0.0822445
-0.0831128
-0.0989032
-0.0865071
-0.0853472
-0.0936769
-0.0930849
-0.0320487
-0.00585683
-0.02764
-0.0731042
-0.03914
-0.0238317
-0.0515873
-0.0400646
-0.0352002
-0.076042
-0.0863823
-0.0174075
-0.047279
-0.0685054
-0.0393693
-0.0813859
-0.0177227
-0.0368943
-0.0819928
-0.112205
-0.046662
-0.0491074
-0.0851762
-0.0715842
-0.028582
-0.12232
-0.0831447
-0.101251
-0.0809768
-0.106006
-0.0993992
-0.0875011
-0.26066
-0.144586
-0.151563
-0.152626
-0.165359
-0.144787
-0.185379
-0.144698
-0.0859169
-0.0569588
-0.066893
-0.0645143
-0.0672245
-0.0635836
-0.0724213
-0.0688258
-0.0739421
-0.0592725
-0.0277318
-0.0608033
-0.062145
-0.0500985
-0.0524113
-0.0427959
-0.115171
-0.0755343
-0.0833041
-0.0831342
-0.100307
-0.091813
-0.100528
-0.0903282
-0.095021
-0.118399
-0.128507
-0.0798135
-0.108034
-0.132486
-0.0940734
-0.1145
-0.0913202
-0.0773347
-0.0693878
-0.096516
-0.0979038
-0.0845996
-0.108811
-0.0766316
-0.10936
-0.140927
-0.0783889
-0.0922851
-0.108498
-0.119132
-0.101576
-0.104175
-0.0847078
-0.0827892
-0.0712203
-0.0700803
-0.0946233
-0.0934743
-0.0818025
-0.0719545
-0.00601084
-0.0164361
-0.0144451
-0.0126739
-0.0105783
-0.0147488
-0.0122142
-0.0155394
-0.0296523
-0.0442945
-0.0376264
-0.0353782
-0.0356164
-0.0375916
-0.0346612
-0.0370433
-0.0215878
-0.0334878
-0.0313421
-0.0266771
-0.0254254
-0.0298722
-0.0258773
-0.030101
-0.0193995
-0.030241
-0.0252484
-0.0262469
-0.0241888
-0.0275832
-0.02497
-0.0275473
-0.0231353
-0.0189101
-0.0172171
-0.0288313
-0.0232729
-0.0192924
-0.0238661
-0.0211289
-0.026074
-0.032428
-0.0328689
-0.0209324
-0.0266714
-0.0290191
-0.0257594
-0.0291358
-0.0197906
-0.0183022
-0.0291671
-0.0251126
-0.0194554
-0.0214631
-0.0242213
-0.0247528
-0.0213463
-0.0275398
-0.0316263
-0.0326458
-0.0256093
-0.0275851
-0.0299286
-0.0307271
-0.0187514
-0.0547066
-0.0726412
-0.0482076
-0.0366886
-0.0513724
-0.0418324
-0.0562585
-0.0660832
-0.0575203
-0.0795536
-0.0651809
-0.0623088
-0.0681991
-0.0710288
-0.0717608
-0.137062
-0.128351
-0.241606
-0.138168
-0.120816
-0.141556
-0.154796
-0.156342
-0.0633326
-0.0706082
-0.0912004
-0.0712405
-0.0711043
-0.0752702
-0.0744088
-0.079846
-0.0582506
-0.0692998
-0.0540827
-0.0664799
-0.0681359
-0.0708457
-0.0671885
-0.0651409
-0.0708007
-0.0683203
-0.0949067
-0.0887142
-0.0761381
-0.0767512
-0.110727
-0.0841309
-0.0750611
-0.0604999
-0.0771065
-0.0949106
-0.0893423
-0.0745977
-0.0918253
-0.0828642
-0.094198
-0.101191
-0.0766295
-0.0974771
-0.104917
-0.0967203
-0.105444
-0.0912931
-0.234272
-0.0313618
-0.13049
-0.140663
-0.100665
-0.0749608
-0.147307
-0.0923152
0.00194522
0.00158754
-0.0209006
-0.0080575
0.0049892
0.00219889
-0.00644911
-0.00869114
-0.069187
-0.0517491
-0.068989
-0.0786172
-0.0677126
-0.05887
-0.078642
-0.0636879
-0.101504
-0.0478703
-0.0964556
-0.0907654
-0.0825895
-0.066053
-0.0941224
-0.0706903
-0.0128825
-0.0792269
-0.0911834
-0.0269109
-0.040586
-0.0710143
-0.0439213
-0.0714596
-0.0119352
-0.0202486
-0.027798
-0.0629803
-0.0257241
-0.0219855
-0.048337
-0.0328826
-0.0958211
-0.123312
-0.0445582
-0.0936133
-0.0986003
-0.0828036
-0.0795202
-0.066527
-0.0735517
-0.0671236
-0.0354289
-0.0383627
-0.062262
-0.0645956
-0.0475801
-0.0477684
-0.216311
-0.140997
-0.103722
-0.164453
-0.166105
-0.14839
-0.153769
-0.135186
-0.0942859
-0.0664811
-0.0705083
-0.085454
-0.0788486
-0.0732138
-0.0778205
-0.072745
-0.0495351
-0.0484063
-0.0223749
-0.0582375
-0.0566652
-0.0441194
-0.0455896
-0.0349155
-0.134001
-0.0981791
-0.0965852
-0.11726
-0.110238
-0.102526
-0.109102
-0.0952563
-0.111274
-0.091973
-0.135728
-0.0982168
-0.108101
-0.123003
-0.112813
-0.122164
-0.104349
-0.0927632
-0.0681866
-0.0775791
-0.102687
-0.094342
-0.0859956
-0.0779262
-0.0798255
-0.13055
-0.0988304
-0.0785596
-0.0984047
-0.107417
-0.0892545
-0.106226
-0.066788
-0.068114
-0.0910958
-0.0619595
-0.0697716
-0.0743886
-0.0686713
-0.0756037
-0.0435488
-0.0359232
-0.0381398
-0.0366147
-0.0400752
-0.0378964
-0.0391699
-0.0373239
-0.0317725
-0.0300595
-0.0308961
-0.0306198
-0.0302598
-0.0301623
-0.0307781
-0.0302627
-0.035154
-0.0323923
-0.0346401
-0.0321001
-0.0335549
-0.0328605
-0.0337557
-0.0326664
-0.0341277
-0.031641
-0.032025
-0.0327978
-0.0338108
-0.0329189
-0.0336088
-0.032877
-0.0328529
-0.0359127
-0.0363411
-0.0319355
-0.0335201
-0.035617
-0.0324283
-0.0344979
-0.0325064
-0.0313391
-0.031319
-0.0343801
-0.0324601
-0.0313827
-0.0338724
-0.031777
-0.0355205
-0.0358683
-0.0321746
-0.0334417
-0.0334967
-0.0340571
-0.0334364
-0.0331938
-0.0340825
-0.0325589
-0.0315062
-0.0312266
-0.0333017
-0.0326745
-0.0323155
-0.0316379
-0.328991
-0.13368
-0.312197
-0.188933
-0.259453
-0.2744
-0.26775
-0.244674
-0.0594902
-0.0290733
-0.0684006
-0.0766131
-0.0592189
-0.0396983
-0.073013
-0.0530523
-0.295322
-0.115165
-0.302221
-0.173915
-0.231355
-0.207359
-0.238276
-0.202593
-0.136023
-0.107216
-0.137557
-0.104231
-0.115725
-0.131859
-0.118776
-0.114451
-0.116707
-0.24986
-0.166263
-0.110026
-0.141678
-0.200297
-0.127191
-0.175825
-0.0954901
-0.102356
-0.0728342
-0.226494
-0.107819
-0.113789
-0.112469
-0.101909
-0.24762
-0.172599
-0.124894
-0.156674
-0.186473
-0.161527
-0.167451
-0.141425
-0.218691
-0.157331
-0.104546
-0.0937997
-0.177136
-0.172719
-0.144793
-0.128077
-0.0324446
-0.0741475
-0.0663628
-0.0863284
-0.0535104
-0.0645581
-0.0670644
-0.0743223
-0.152455
-0.236396
-0.183222
-0.180638
-0.160658
-0.186462
-0.186532
-0.192743
-0.106947
-0.170342
-0.279927
-0.176346
-0.148349
-0.162083
-0.177211
-0.195207
-0.121063
-0.156186
-0.145107
-0.13122
-0.137635
-0.151677
-0.140866
-0.149512
-0.106599
-0.0870996
-0.110478
-0.151261
-0.121931
-0.103221
-0.132458
-0.122011
-0.123925
-0.171275
-0.157615
-0.095976
-0.126733
-0.166534
-0.109393
-0.138151
-0.104651
-0.116241
-0.165486
-0.15339
-0.121659
-0.125671
-0.14713
-0.151307
-0.118983
-0.166595
-0.168891
-0.17046
-0.15626
-0.157161
-0.161314
-0.164181
0.106911
0.0778833
0.0689942
0.0129421
0.0778343
0.0796778
0.0507387
0.0573191
0.00400048
-0.255968
-0.146091
-0.152511
-0.0606356
-0.0924734
-0.12396
-0.185564
-0.0250846
-0.132412
-0.220739
-0.142487
-0.0895328
-0.134451
-0.15539
-0.170026
-0.0885807
-0.12352
-0.11866
-0.120109
-0.101078
-0.113024
-0.107402
-0.122149
0.0295025
0.0307703
-0.0226983
-0.107419
-0.0064826
0.0070707
-0.067431
-0.0352569
0.0257266
-0.113413
-0.0945614
0.0225624
-0.0208897
-0.0763835
-0.0134504
-0.0614309
-0.0122479
-0.0654562
-0.106742
-0.12799
-0.0763387
-0.0774577
-0.108585
-0.097202
-0.0275361
-0.139738
-0.126692
-0.129018
-0.0745096
-0.131666
-0.101479
-0.139082
-0.216574
-0.0407777
-0.0909222
-0.13374
-0.155839
-0.127856
-0.140403
-0.0927511
0.0188525
0.033939
-0.0264532
-0.0140331
0.0236864
0.0203018
-0.0131289
-0.00209651
-0.0708881
-0.0533114
-0.0536341
-0.0675599
-0.06828
-0.0635625
-0.0666027
-0.0594011
-0.0912477
-0.0562863
-0.0707016
-0.0760121
-0.084676
-0.0770911
-0.0875393
-0.0779576
-0.0411967
-0.0807604
-0.112328
-0.0526227
-0.057361
-0.0879138
-0.0581533
-0.0964851
-0.0293346
-0.0413202
-0.0408075
-0.0731215
-0.0359568
-0.035909
-0.0615258
-0.0446237
-0.090488
-0.108122
-0.0611856
-0.0787156
-0.0866963
-0.0855625
-0.0781457
-0.0726548
-0.0730329
-0.0708901
-0.0497875
-0.0430724
-0.0651078
-0.0684915
-0.0576789
-0.0565832
-0.17926
-0.00453921
-0.00401328
-0.122349
-0.0951015
-0.0540601
-0.0916222
0.00367087
0.0666492
0.095512
0.05807
0.0450644
0.0653628
0.0700132
0.0525855
0.0675593
0.0214445
0.0341074
0.0125958
0.0101951
0.0229981
0.0229866
0.00998641
0.0188034
-0.101175
-0.0274453
-0.0287676
-0.0871155
-0.0739423
-0.047225
-0.0759916
-0.0377384
0.00910772
0.00701597
-0.0852475
-0.0150991
0.0039722
-0.0130778
-0.0250384
-0.0474598
0.0344388
0.0141628
0.043968
0.0202006
0.0417001
0.0464873
0.0437152
0.0470135
-0.0109679
-0.083591
-0.018104
-0.0180993
-0.0268709
-0.0359672
-0.0119847
-0.0259108
0.0187419
0.0109972
0.0199662
0.0395735
0.0195432
0.00698212
0.027434
0.0231022
0.0353782
0.0200814
-0.018494
-0.000574524
0.0286534
0.0177338
0.00744495
-0.0113828
-0.040694
-0.211495
-0.0835778
-0.105677
-0.113803
-0.133662
-0.0949676
-0.131799
-0.0501118
-0.0635019
-0.0550677
-0.059314
-0.061845
-0.0669366
-0.055396
-0.0564279
-0.0295706
-0.069295
-0.0552912
-0.0525916
-0.0507432
-0.0595368
-0.0490347
-0.0629444
-0.0140645
-0.0396826
-0.0146457
-0.0698379
-0.0243024
-0.0250412
-0.0316901
-0.0228667
-0.0327393
-0.0880656
-0.0795367
-0.0479485
-0.050464
-0.0906443
-0.0571063
-0.0691858
-0.0412715
-0.0233075
-0.0709527
-0.0568362
-0.0403942
-0.0402239
-0.0550929
-0.0610329
-0.0501973
-0.0643809
-0.0898603
-0.0712173
-0.0544661
-0.0647035
-0.061971
-0.069475
-0.161525
-0.0845917
-0.11182
-0.169019
-0.153537
-0.117808
-0.162697
-0.117792
-0.0452753
-0.0149092
-0.0156942
-0.0533762
-0.0331958
-0.0208207
-0.0387463
-0.0241065
-0.052782
-0.0153141
-0.0183425
-0.0730814
-0.0497001
-0.0226335
-0.0594208
-0.0302338
-0.143002
-0.0954918
-0.110507
-0.129761
-0.116646
-0.0998267
-0.121424
-0.106912
-0.0750961
-0.0911065
-0.125782
-0.0734521
-0.0786982
-0.0997611
-0.0974791
-0.103327
-0.0545455
-0.0586643
-0.0189058
-0.0584452
-0.0570952
-0.0513779
-0.0507668
-0.0430175
-0.0994172
-0.133428
-0.078281
-0.101684
-0.108649
-0.109289
-0.0936151
-0.100485
-0.0618462
-0.0745
-0.065855
-0.0256009
-0.0608519
-0.0668596
-0.0479535
-0.0599601
-0.00623359
-0.0211011
-0.00430719
-0.0153689
-0.0116657
-0.0124347
-0.00999311
-0.0115433
-0.0345114
-0.0419986
-0.0287115
-0.0343401
-0.0357443
-0.0360629
-0.0329459
-0.033961
-0.00479971
-0.0158119
-0.00493735
-0.01187
-0.010401
-0.0110711
-0.00879291
-0.00988912
-0.020504
-0.0289751
-0.0187802
-0.0261933
-0.0252124
-0.0256869
-0.0229452
-0.0239661
-0.0254698
-0.0109
-0.0198931
-0.0295354
-0.0236527
-0.0158416
-0.0264767
-0.0206056
-0.0262172
-0.0299983
-0.0231263
-0.0119297
-0.0246147
-0.0268997
-0.0183025
-0.0223908
-0.00976754
-0.0176141
-0.0274132
-0.0160029
-0.0126523
-0.0183457
-0.0177147
-0.0221503
-0.0107848
-0.0170579
-0.0283988
-0.0213522
-0.014667
-0.0180388
-0.0204801
-0.0224776
-0.23368
-0.117989
-0.0270678
-0.101378
-0.146428
-0.117453
-0.140232
-0.10911
-0.0765857
-0.0727238
-0.0525058
-0.0757559
-0.0856606
-0.0758287
-0.0787771
-0.0690895
0.0468287
-0.0179085
0.0761409
-0.00844249
0.0148532
0.0239234
0.0247461
0.0326414
-0.095112
-0.0805426
-0.0628516
-0.0902402
-0.0962853
-0.0924613
-0.0923407
-0.0867965
-0.110646
-0.0652278
-0.12216
-0.0838102
-0.0992067
-0.0843247
-0.0812719
-0.105609
-0.093854
-0.0808177
-0.0465291
-0.0392258
-0.0815958
-0.0718863
-0.0584035
-0.0583703
-0.0446906
-0.114696
-0.0843636
-0.0574205
-0.0652718
-0.0943979
-0.0639974
-0.0794997
-0.0237981
-0.0427399
-0.0791385
-0.0384007
-0.0393813
-0.0522934
-0.0491551
-0.0605454
-0.026791
-0.0292264
-0.0277355
-0.0282173
-0.0271213
-0.0278323
-0.0275498
-0.0279057
-0.0354195
-0.0440557
-0.0349529
-0.0378043
-0.0377561
-0.0394122
-0.0363024
-0.0368416
-0.0289936
-0.0306256
-0.0295177
-0.0297745
-0.0296276
-0.0300444
-0.0297417
-0.0298555
-0.030885
-0.0345482
-0.0309066
-0.0335878
-0.0327683
-0.0330082
-0.0325111
-0.0323442
-0.0311415
-0.0288518
-0.0299179
-0.034387
-0.030887
-0.0291192
-0.0325273
-0.0303698
-0.0321804
-0.0351392
-0.0326553
-0.0291657
-0.0314637
-0.0339998
-0.0300691
-0.0317085
-0.0289754
-0.0298839
-0.0337131
-0.0306718
-0.0294155
-0.0301186
-0.0305652
-0.031881
-0.0291651
-0.0307301
-0.0338529
-0.0318339
-0.0301256
-0.0312259
-0.0313594
-0.0323754
-0.226143
-0.164412
-0.0164511
-0.188849
-0.161282
-0.102887
-0.121604
-0.0737736
-0.1781
-0.297967
-0.040609
-0.178648
-0.186962
-0.157802
-0.154744
-0.129339
0.0721825
0.0700596
0.089799
-0.00239617
0.0540351
0.0818766
0.0531099
0.0767645
-0.15888
-0.14286
-0.0990078
-0.135468
-0.138151
-0.125741
-0.118625
-0.11124
-0.147003
-0.019451
-0.15043
-0.144619
-0.107676
-0.0970718
-0.152532
-0.124859
-0.108622
-0.14408
0.0160449
0.0206014
-0.096557
-0.12561
-0.0188777
-0.033367
-0.00447367
-0.124166
-0.121291
-0.0528987
-0.0733803
-0.106371
-0.076577
-0.114516
0.0255662
-0.0341483
-0.121746
0.0235438
0.00468986
-0.0398615
-0.0192472
-0.0798061
-0.288892
-0.00404485
-0.292484
-0.115147
-0.171775
-0.136726
-0.239795
-0.192643
0.0695274
0.0937049
0.0541759
-0.00384095
0.0600226
0.0908913
0.0125534
0.0526659
-0.305676
-0.0444266
-0.298216
-0.111396
-0.176898
-0.142344
-0.232153
-0.18991
-0.107778
-0.0688069
-0.115638
-0.0937294
-0.106518
-0.102589
-0.101593
-0.10614
-0.0236867
-0.17832
-0.119389
-0.050705
-0.0781582
-0.120151
-0.0694868
-0.119771
0.0257152
-0.0353393
0.016876
-0.144812
-0.0349551
-0.0190454
-0.03697
-0.030646
-0.249052
-0.123381
-0.072641
-0.125813
-0.124537
-0.0923324
-0.11415
-0.0996213
-0.198525
-0.0896863
-0.041865
-0.0403762
-0.120598
-0.120369
-0.0892778
-0.0561074
-0.0127758
-0.0157871
-0.0306235
-0.0353067
-0.0175478
-0.0190089
-0.0247858
-0.0261694
-0.0184417
-0.0217218
-0.0488179
-0.0531226
-0.0267445
-0.0281835
-0.0454994
-0.0459976
-0.0471181
-0.057384
-0.0560553
-0.0617532
-0.053574
-0.0550333
-0.0555371
-0.0568613
-0.0637505
-0.0763944
-0.0714868
-0.0810974
-0.0758429
-0.0782033
-0.077142
-0.0795809
-0.0214616
-0.0398529
-0.0438031
-0.0562792
-0.0326968
-0.0383343
-0.0431998
-0.0461973
-0.0234242
-0.058877
-0.0508452
-0.0415675
-0.0332923
-0.0473943
-0.0414186
-0.0470376
-0.0486112
-0.0511228
-0.0723598
-0.0705079
-0.0492027
-0.0531144
-0.060266
-0.0686025
-0.0498206
-0.0717784
-0.0727055
-0.0594656
-0.0591315
-0.0623961
-0.0591404
-0.0638517
-0.0308347
-0.0655172
-0.0780076
-0.0710651
-0.050042
-0.064886
-0.0651426
-0.0784366
-0.0778333
-0.0728992
-0.102155
-0.0726708
-0.0770177
-0.0837049
-0.0815935
-0.0832346
-0.131998
-0.147449
-0.20688
-0.156715
-0.150685
-0.164778
-0.172771
-0.177794
-0.0888111
-0.0804662
-0.125408
-0.0894826
-0.0883529
-0.0913527
-0.0996207
-0.0975883
-0.0735723
-0.0905378
-0.0813682
-0.0797379
-0.0877183
-0.0959352
-0.0814641
-0.0918889
-0.0842063
-0.0862214
-0.114388
-0.102623
-0.0953103
-0.100478
-0.114022
-0.107988
-0.110316
-0.0982678
-0.0878905
-0.137886
-0.111616
-0.104023
-0.119662
-0.107939
-0.122259
-0.135467
-0.0892957
-0.11647
-0.138711
-0.125975
-0.120462
-0.109998
-0.25065
-0.152772
-0.0937221
-0.16779
-0.163524
-0.145422
-0.153463
-0.13641
-0.130131
-0.213618
-0.0949121
-0.153415
-0.168252
-0.153367
-0.165583
-0.142539
-0.0604697
-0.0581114
-0.0257354
-0.069347
-0.0600668
-0.0517731
-0.0549491
-0.0414236
-0.142401
-0.134624
-0.114488
-0.111141
-0.120607
-0.129691
-0.115325
-0.113617
-0.135214
-0.104299
-0.135744
-0.13811
-0.130191
-0.140228
-0.144754
-0.140433
-0.126036
-0.146261
-0.0815365
-0.0776015
-0.117441
-0.14202
-0.0951411
-0.0954144
-0.0963776
-0.13064
-0.132382
-0.110434
-0.130871
-0.126323
-0.111228
-0.12361
-0.079129
-0.0949178
-0.127263
-0.0667022
-0.0915056
-0.103053
-0.092799
-0.10556
-0.00726225
-0.00653375
-0.0217736
-0.0145621
-0.00760493
-0.00899316
-0.0139041
-0.0148379
-0.00576254
-0.00563538
-0.0149752
-0.0131666
-0.00763868
-0.00927322
-0.0134984
-0.0130895
-0.0337253
-0.0285136
-0.0424289
-0.0358466
-0.0341433
-0.034673
-0.037775
-0.0373502
-0.0215983
-0.0212151
-0.0323809
-0.0300564
-0.0246408
-0.0247589
-0.0290748
-0.0289963
-0.00680422
-0.0223122
-0.0171926
-0.0173508
-0.0117577
-0.016419
-0.0137011
-0.0178261
-0.00860084
-0.0183417
-0.0211647
-0.0231579
-0.0118338
-0.0149878
-0.0204796
-0.0195951
-0.028189
-0.0213127
-0.0210197
-0.0323302
-0.0265575
-0.0214326
-0.0287027
-0.0226708
-0.0286011
-0.0318993
-0.0204053
-0.0254444
-0.0269659
-0.0288805
-0.0261445
-0.0248855
0.0844091
0.0478785
0.0611678
0.014446
0.0573396
0.063531
0.0454126
0.0529428
0.0221787
0.00828557
0.0192324
-0.0117985
0.0123536
0.0130676
0.0115962
0.0129243
-0.00530721
-0.00614413
-0.162347
-0.0822388
-0.030022
-0.0214478
-0.0871317
-0.0746384
-0.0392361
-0.0374988
-0.0667465
-0.0617531
-0.0525365
-0.0466021
-0.0639661
-0.058812
0.034138
0.0278528
-0.0171783
-0.0170713
0.0302715
0.027153
-0.0100737
-0.00952058
0.0358394
-0.0121151
0.0199654
0.0376033
0.0323945
0.0140489
0.0318178
0.0165189
-0.0065767
-0.0299651
-0.0296851
-0.0693851
-0.0298595
-0.0249525
-0.0495005
-0.036746
0.00344588
-0.0610751
-0.0263082
-0.00108255
-0.0158427
-0.0440154
-0.00600885
-0.0283699
-0.0296178
-0.0311032
-0.0289214
-0.0301927
-0.0299374
-0.0298364
-0.0298855
-0.0296644
-0.0353728
-0.0448534
-0.0369048
-0.0370869
-0.0367702
-0.0396344
-0.0365094
-0.0393587
-0.0277531
-0.0294568
-0.0261786
-0.0289442
-0.0280527
-0.0273746
-0.0279955
-0.0271358
-0.0312256
-0.0338765
-0.0312886
-0.0324975
-0.0323069
-0.0328279
-0.0321545
-0.0326138
-0.0317979
-0.0292008
-0.0308909
-0.0335639
-0.0316604
-0.0302309
-0.032342
-0.031128
-0.0323666
-0.0353318
-0.0322994
-0.029051
-0.031911
-0.0339526
-0.030464
-0.0316687
-0.029159
-0.0307481
-0.0332609
-0.0304596
-0.0298255
-0.030979
-0.0306921
-0.03198
-0.02884
-0.0307249
-0.0349506
-0.0318703
-0.0295325
-0.030982
-0.0312666
-0.0331933
-0.00750529
-0.0282094
-0.00768753
-0.0236788
-0.0204197
-0.0224923
-0.0175576
-0.0228239
-0.0468367
-0.0558821
-0.0557081
-0.0591704
-0.0540718
-0.0575128
-0.0545986
-0.0604054
-0.00907778
-0.0450641
-0.0143504
-0.03786
-0.0293998
-0.0338288
-0.0266871
-0.0322915
-0.0439802
-0.0610031
-0.0524915
-0.0630627
-0.0575373
-0.0617093
-0.0575726
-0.0653112
-0.0426456
-0.0239579
-0.0383414
-0.0544592
-0.0401511
-0.0292091
-0.0454789
-0.0431036
-0.0452671
-0.0598816
-0.0528505
-0.0278795
-0.0458291
-0.0537888
-0.0360612
-0.0499728
-0.0202422
-0.0377473
-0.0543086
-0.0393939
-0.0283679
-0.0422129
-0.0449813
-0.0522511
-0.0262191
-0.0477221
-0.0633531
-0.0534072
-0.0379213
-0.0486763
-0.0488607
-0.059575
0.00185336
0.0041002
-0.0166784
-0.015227
-0.000660622
-0.002315
-0.0113761
-0.0166298
-0.0174673
-0.199898
-0.106536
-0.103409
-0.0787903
-0.0676613
-0.070747
-0.110429
-0.0468029
-0.0630611
-0.0629323
-0.0635543
-0.0580549
-0.0647427
-0.0584541
-0.0675311
-0.0310448
-0.069206
-0.0537528
-0.0514226
-0.0439945
-0.0482679
-0.0473375
-0.0650945
-0.0107705
-0.0275882
-0.020912
-0.0523704
-0.0257852
-0.018633
-0.0325594
-0.0221225
-0.0181224
-0.0626084
-0.0756502
-0.0329344
-0.0415342
-0.0569623
-0.0419448
-0.0668511
-0.0364644
-0.0270389
-0.0598635
-0.0493339
-0.0383772
-0.0391423
-0.0465491
-0.0415964
-0.045731
-0.0640682
-0.082256
-0.0757093
-0.0481378
-0.0495248
-0.0575407
-0.0717308
0.00480145
0.0132613
0.0158202
-0.0128342
0.00268458
0.0142046
0.001279
0.0116379
0.0249909
0.0448384
0.0394489
-0.00299239
0.023375
0.041531
0.0197394
0.0355562
-0.00657989
-0.00925352
-0.148828
-0.0909336
-0.0323392
-0.0384601
-0.0722846
-0.086235
-0.0407787
-0.0428613
-0.0682005
-0.0609452
-0.0455628
-0.0499681
-0.0569902
-0.0621471
0.0112782
0.00902687
-0.0193738
-0.0184275
0.00908095
0.00518643
-0.00603919
-0.0129121
0.0255602
-0.0106677
0.0267724
0.01842
0.021394
0.0130984
0.0265464
0.0125526
-0.0102984
-0.0270068
-0.0288493
-0.0608862
-0.0309199
-0.0252282
-0.0412346
-0.0340201
-0.000841644
-0.0701591
-0.029926
-0.00212129
-0.0163935
-0.0494813
-0.00752503
-0.0356518
-0.0293122
-0.0286637
-0.0286871
-0.0299124
-0.0292345
-0.0288213
-0.0294234
-0.0288682
-0.0274011
-0.026228
-0.0264313
-0.028418
-0.0271652
-0.0265349
-0.0273358
-0.0265399
-0.027271
-0.0261606
-0.025598
-0.0285196
-0.026753
-0.026054
-0.0265892
-0.0258209
-0.0342357
-0.0341532
-0.0353551
-0.0443152
-0.0356007
-0.0343225
-0.039222
-0.0373049
-0.028564
-0.0283728
-0.0304298
-0.029781
-0.0287926
-0.0290091
-0.0291985
-0.0294649
-0.0279423
-0.0285157
-0.0265382
-0.0278997
-0.0279188
-0.0275519
-0.0277842
-0.0271848
-0.0284732
-0.0316502
-0.0313341
-0.0314258
-0.0296065
-0.0300981
-0.0300259
-0.0314249
-0.0277199
-0.0298134
-0.029677
-0.026462
-0.0273126
-0.0285678
-0.0272122
-0.0285828
-0.0156269
-0.042534
-0.0172072
-0.0444495
-0.029483
-0.0295274
-0.0318294
-0.0318146
-0.0860156
-0.188603
-0.100271
-0.133426
-0.128193
-0.128695
-0.128622
-0.136041
-0.017499
-0.0583406
-0.0229259
-0.057796
-0.0412154
-0.0372815
-0.0446687
-0.0421182
-0.0701908
-0.0940485
-0.0721314
-0.0709436
-0.0739882
-0.0778497
-0.0730403
-0.0762094
-0.062983
-0.035125
-0.0566301
-0.104096
-0.0638711
-0.0479423
-0.0792364
-0.0582734
-0.0625688
-0.111096
-0.07642
-0.0261054
-0.0667373
-0.0913314
-0.0457503
-0.079777
-0.0390062
-0.0587986
-0.100992
-0.0718936
-0.0502527
-0.0590101
-0.0706699
-0.0783251
-0.031663
-0.0712982
-0.111706
-0.0817659
-0.0497367
-0.0691991
-0.0810086
-0.0961133
-0.0144811
-0.0311894
-0.0106673
-0.0372024
-0.0253255
-0.025321
-0.0187346
-0.0201145
-0.0465824
-0.0558121
-0.0490026
-0.0600651
-0.0509019
-0.0504182
-0.0515676
-0.0504544
-0.0118598
-0.0330518
-0.0128005
-0.0357544
-0.0224097
-0.0226074
-0.0227349
-0.0221208
-0.0637312
-0.0684736
-0.0599635
-0.0789549
-0.0732513
-0.0713754
-0.0696513
-0.0683698
-0.0417007
-0.0223289
-0.0486072
-0.0610143
-0.0400479
-0.0328901
-0.048126
-0.0475036
-0.0416458
-0.0595937
-0.0415148
-0.0229129
-0.0392649
-0.0487711
-0.0348028
-0.0419416
-0.0197306
-0.0437242
-0.0598589
-0.0472995
-0.032204
-0.0436723
-0.0478617
-0.056013
-0.0202722
-0.0462536
-0.0589771
-0.0397871
-0.0324037
-0.0463403
-0.0407263
-0.0524795
-0.00217151
-0.00265283
-0.00254229
-0.010231
-0.00620765
-0.00288561
-0.00934686
-0.00568761
-0.00288721
-0.00262334
-0.00245588
-0.0118955
-0.00560834
-0.00233743
-0.00776952
-0.00385011
-0.00207578
-0.002259
-0.00196613
-0.0104188
-0.00462575
-0.00219659
-0.00585566
-0.00395629
-0.0180412
-0.0205156
-0.0172009
-0.0268574
-0.0223645
-0.0192265
-0.023632
-0.0219214
-0.00571412
-0.00498638
-0.0143403
-0.0142192
-0.00760633
-0.00810235
-0.0118501
-0.01129
-0.00266802
-0.0105347
-0.00245408
-0.00200107
-0.00451488
-0.00793986
-0.00242615
-0.00523413
-0.00615354
-0.0160477
-0.016651
-0.0144644
-0.0101175
-0.0138528
-0.0137304
-0.0172901
-0.00412175
-0.0126521
-0.0133437
-0.00372717
-0.00696681
-0.0107559
-0.00652263
-0.0112767
-0.138371
-0.105959
-0.0188722
-0.096558
-0.0863751
-0.119601
-0.0880337
-0.09081
-0.0530005
-0.047431
-0.0264418
-0.0518352
-0.0556731
-0.0517613
-0.0528337
-0.0454147
0.0396193
0.00647507
0.0475646
0.00974448
0.0293445
0.0226377
0.027343
0.0261762
-0.0599485
-0.0513548
-0.0198038
-0.0470076
-0.054093
-0.0507095
-0.0493514
-0.0421221
-0.0766901
-0.0215215
-0.0664353
-0.0523014
-0.063669
-0.0685637
-0.0620013
-0.0621243
-0.0743557
-0.0536952
-0.0224382
-0.0209902
-0.0616639
-0.0494259
-0.0268063
-0.0260294
-0.0157887
-0.0646359
-0.0463504
-0.0150317
-0.020179
-0.0523717
-0.0193337
-0.0426597
-0.00760602
-0.0130254
-0.0462075
-0.0190532
-0.0113447
-0.0214231
-0.0227747
-0.0268864
0.00560336
-0.0147274
0.0211961
-0.00264536
0.00172857
0.00152871
0.007868
0.00738955
-0.0382744
-0.0604057
-0.0363769
-0.0685751
-0.0562464
-0.0582283
-0.0555169
-0.057472
0.0458231
0.0140675
0.0785009
0.031035
0.0395221
0.0400606
0.0518715
0.0514835
-0.0334578
-0.0736427
-0.0368636
-0.084132
-0.053308
-0.0550137
-0.0600006
-0.0617517
-0.0241056
0.0174223
-0.013407
-0.0524202
-0.022722
-0.000590975
-0.0390917
-0.0151118
-0.0244348
-0.0528459
-0.0231132
0.0165512
-0.0253142
-0.038072
-0.0118291
-0.0216918
0.0257833
-0.00991323
-0.0607542
-0.00202521
0.00655967
-0.0113456
-0.00447068
-0.0359685
0.0261162
-0.00407173
-0.0624954
-0.0217877
0.0101347
-0.00749265
-0.0185693
-0.0371986
-0.0151348
-0.0343016
-0.0260621
-0.0387129
-0.0249593
-0.0287152
-0.0268338
-0.0306325
-0.0490872
-0.0535698
-0.0466153
-0.0598329
-0.053025
-0.0495515
-0.0537617
-0.0509033
-0.0312386
-0.0412084
-0.0355201
-0.044529
-0.0395409
-0.0378285
-0.0406469
-0.0397694
-0.061903
-0.0678838
-0.0565019
-0.0780617
-0.0709336
-0.0659211
-0.0694404
-0.0667217
-0.0438503
-0.0358016
-0.0480797
-0.060813
-0.044706
-0.0397402
-0.0543001
-0.0478542
-0.0438837
-0.0566882
-0.0437346
-0.0349985
-0.0450808
-0.0501771
-0.0402149
-0.0456271
-0.0366056
-0.0476842
-0.0611053
-0.0523607
-0.0409655
-0.0489367
-0.0521307
-0.0564504
-0.036077
-0.0514938
-0.057417
-0.0450457
-0.0429381
-0.0491251
-0.047604
-0.0515287
-0.215076
-0.0943151
-0.0433483
-0.0877378
-0.137113
-0.113481
-0.108516
-0.0869951
-0.0663357
-0.0690801
-0.0548135
-0.0656666
-0.0759255
-0.0678273
-0.0679262
-0.0625382
0.0200988
-0.0200122
0.0452026
-0.0073354
0.00307332
0.0110831
0.0134732
0.021249
-0.0806732
-0.0721672
-0.0502303
-0.0779462
-0.0842733
-0.0782316
-0.0768419
-0.0704008
-0.0985359
-0.048001
-0.100223
-0.0800787
-0.0906571
-0.0793245
-0.0760489
-0.0887106
-0.0849378
-0.0722634
-0.0392397
-0.0310985
-0.0729987
-0.0632039
-0.048666
-0.0504119
-0.0300786
-0.0899655
-0.0745578
-0.0417556
-0.0502213
-0.0770381
-0.0509672
-0.0721095
-0.0131741
-0.0305099
-0.0657416
-0.0316264
-0.0301968
-0.039951
-0.0389932
-0.0513059
-0.0147178
-0.0422207
-0.0187992
-0.0443777
-0.0268069
-0.0278683
-0.0337775
-0.0346363
-0.0639755
-0.0650724
-0.0675461
-0.0724293
-0.0687251
-0.0694937
-0.0757221
-0.0768854
-0.0185999
-0.0534582
-0.0239872
-0.0618571
-0.0432897
-0.043817
-0.0480334
-0.0486273
-0.0637664
-0.0774316
-0.083682
-0.0812996
-0.0743316
-0.077117
-0.0811179
-0.0829743
-0.054111
-0.0361599
-0.0523451
-0.0722122
-0.05913
-0.0483536
-0.0614146
-0.0548285
-0.0551741
-0.0741501
-0.06696
-0.0367313
-0.061298
-0.0717637
-0.0466053
-0.0653335
-0.0374098
-0.0581598
-0.0794697
-0.0771864
-0.0538921
-0.0600596
-0.0665492
-0.0716278
-0.0378951
-0.0782859
-0.0808334
-0.0733199
-0.0571502
-0.0700757
-0.0715069
-0.0742172
-0.00434689
-0.00377631
-0.0130523
-0.0126142
-0.00583108
-0.00587016
-0.00883342
-0.00943541
-0.00428064
-0.00422223
-0.0153587
-0.0124188
-0.00709687
-0.00672102
-0.0111554
-0.0131646
-0.0214067
-0.0232656
-0.0300222
-0.0275382
-0.0235788
-0.0243066
-0.0266296
-0.0274259
-0.0202881
-0.0211231
-0.0273326
-0.0291915
-0.0230414
-0.0222729
-0.0261889
-0.026656
-0.00609356
-0.0147794
-0.0135512
-0.0151596
-0.00969171
-0.0119863
-0.0121156
-0.0141353
-0.0060938
-0.0135779
-0.0160692
-0.0152724
-0.0116633
-0.0136088
-0.013628
-0.0158745
-0.0179918
-0.0172926
-0.0184723
-0.0255938
-0.0205291
-0.0175249
-0.0221547
-0.0204691
-0.0182932
-0.025744
-0.019683
-0.021348
-0.0212119
-0.0228102
-0.0199726
-0.0212962
-0.0150651
-0.0271725
-0.00680088
-0.0221345
-0.0190803
-0.0193127
-0.0155038
-0.0148973
-0.0428963
-0.0519981
-0.0451848
-0.059432
-0.0486484
-0.0490603
-0.0514851
-0.0529888
0.00806342
-0.0163483
0.0285746
-0.00836671
0.00255256
0.00295707
0.0075978
0.00772928
-0.0439293
-0.0680465
-0.0462244
-0.070955
-0.0538745
-0.0554166
-0.0565681
-0.0579381
-0.034374
-0.00966525
-0.02903
-0.0505772
-0.0338321
-0.0213826
-0.0439491
-0.0303369
-0.0349849
-0.0510619
-0.0345958
-0.00952691
-0.0350237
-0.0426597
-0.0241591
-0.0339035
-0.00555321
-0.0277409
-0.0600473
-0.0301599
-0.0162285
-0.0285938
-0.0273542
-0.0456188
-0.00458517
-0.0309512
-0.0614268
-0.0359476
-0.0165704
-0.0290993
-0.0339992
-0.0462593
0.0096432
0.0258843
0.0238041
0.01768
0.0174163
0.0214436
0.0192591
0.0238775
0.0536673
0.0946241
0.0906455
0.0796626
0.0776098
0.0821133
0.0759928
0.0798002
0.0185484
0.0347951
-0.0907338
0.0263998
0.0414468
0.023226
0.0084191
-0.0161156
0.0321566
0.0663676
0.0637608
0.058874
0.048338
0.0556033
0.0542795
0.0587364
0.0401059
0.0394419
0.029459
0.0601199
0.0420754
0.0343471
0.0414139
0.0348035
0.0445295
0.0658752
0.0746452
0.0423093
0.0463447
0.0600789
0.0447218
0.0767279
0.0346912
0.0334496
0.0622058
0.0580081
0.0379239
0.0383198
0.0642033
0.0490268
0.039651
0.0532108
0.0688494
0.0589655
0.0396485
0.060176
0.0689019
0.0807409
-0.333758
-0.342355
-0.166169
-0.204194
-0.277888
-0.294224
-0.231885
-0.206796
-0.340329
-0.36237
-0.159582
-0.199446
-0.267554
-0.291342
-0.21249
-0.202112
-0.08086
-0.0676551
-0.0289546
-0.084774
-0.0792694
-0.0604086
-0.0740673
-0.0604862
-0.155817
-0.143965
-0.116642
-0.128055
-0.138041
-0.137229
-0.13337
-0.121999
-0.270784
-0.159806
-0.178943
-0.178877
-0.22769
-0.20348
-0.197215
-0.18673
-0.296566
-0.181935
-0.129611
-0.129263
-0.204671
-0.198551
-0.163832
-0.15698
-0.130838
-0.165378
-0.16319
-0.118193
-0.141107
-0.158782
-0.128017
-0.14981
-0.112448
-0.105993
-0.156622
-0.121077
-0.115188
-0.126137
-0.129145
-0.133285
-0.24741
-0.262437
-0.0370513
-0.146816
-0.206071
-0.128153
-0.114521
-0.0884053
-0.321944
-0.335137
-0.0387287
-0.159953
-0.268391
-0.179774
-0.139876
-0.0896982
0.0513942
0.0609259
0.0767422
-0.00838168
0.0471109
0.0821177
0.0427184
0.0761255
-0.115632
-0.120143
-0.0836156
-0.10325
-0.111994
-0.105572
-0.102888
-0.100688
-0.251118
-0.0491146
-0.126928
-0.133496
-0.141031
-0.105762
-0.138016
-0.122489
-0.160837
-0.129623
0.0219412
0.0125745
-0.0910453
-0.106658
-0.0297736
-0.0527715
-0.0127639
-0.117277
-0.118726
-0.0494843
-0.0753096
-0.107966
-0.0786572
-0.106579
0.0310813
-0.0250297
-0.119058
0.0263829
0.012575
-0.0417943
-0.00248054
-0.0945807
-0.0155512
-0.0116244
-0.0417938
-0.0451353
-0.0236717
-0.0238256
-0.0380836
-0.0380465
-0.0115267
-0.011617
-0.0381939
-0.0369569
-0.0181735
-0.018204
-0.0312969
-0.0313
-0.0630514
-0.0597287
-0.0644584
-0.0702384
-0.0664962
-0.0645332
-0.0689522
-0.0675245
-0.0629974
-0.0613293
-0.0754981
-0.0787853
-0.0670441
-0.0642007
-0.0774844
-0.0758233
-0.0194832
-0.0479836
-0.0494377
-0.0456386
-0.0354392
-0.0411688
-0.0400662
-0.0480997
-0.0198711
-0.0440955
-0.0449462
-0.0466258