/*--------------------------------*- C++ -*----------------------------------*\
| =========                 |                                                 |
| \\      /  F ield         | OpenFOAM: The Open Source CFD Toolbox           |
|  \\    /   O peration     | Version:  2506                                  |
|   \\  /    A nd           | Website:  www.openfoam.com                      |
|    \\/     M anipulation  |                                                 |
\*---------------------------------------------------------------------------*/
FoamFile
{
    version     2.0;
    format      ascii;
    arch        "LSB;label=32;scalar=64";
    class       volVectorField;
    location    "1900";
    object      U;
}
// * * * * * * * * * * * * * * * * * * * * * * * * * * * * * * * * * * * * * //

dimensions      [0 1 -1 0 0 0 0];

internalField   nonuniform List<vector> 
50112
(
(0.00277398 -0.00309431 1.00624)
(0.0124515 -0.00298778 1.02971)
(0.00168548 -0.00362745 1.03965)
(0.00804737 -0.0121329 1.02463)
(0.00942265 -0.00731099 1.01244)
(0.0109228 -0.00339295 1.03393)
(0.00889802 -0.0110249 1.02871)
(0.00725035 -0.00610502 1.03501)
(0.0148323 -0.00319152 1.07709)
(0.00948268 -0.00233182 1.20407)
(-0.00564805 0.0197408 1.11544)
(0.0125227 -0.00209751 1.18774)
(0.0273892 -0.012941 1.11345)
(0.0082367 -0.00250149 1.14431)
(0.0184701 -0.00455672 1.12895)
(-0.00313565 0.0115973 1.13997)
(-0.00666281 0.00847527 1.05168)
(-0.0215311 0.0188015 1.05736)
(-0.0195716 0.0120024 1.02615)
(-0.0149376 0.0237036 1.04295)
(-0.0120666 0.0156324 1.05471)
(-0.0212135 0.0253439 1.04294)
(-0.0155112 0.0212483 1.04874)
(-0.0224269 0.0233785 1.04183)
(0.00160201 -0.0173841 1.07276)
(0.00302375 -0.00141148 1.17684)
(-0.0106234 0.0156683 1.12203)
(0.01589 -0.0153968 1.19792)
(0.00948102 -0.0114398 1.09673)
(0.00305 -0.00515324 1.12106)
(0.00913315 -0.0151279 1.1232)
(-0.0101246 0.00564706 1.11472)
(0.0203588 -0.00713903 1.05022)
(0.00363014 0.000137632 1.0457)
(0.0166055 -0.0176533 1.04093)
(0.014669 -0.0103313 1.09185)
(0.0131575 -0.00617397 1.06643)
(0.0051684 0.00127747 1.04998)
(0.00972814 -0.00441604 1.07368)
(0.0131787 -0.00542114 1.0685)
(0.01464 -0.00071071 1.07993)
(0.00296651 0.00527391 1.12896)
(-0.0130441 0.0215232 1.08856)
(-0.00120866 0.0063819 1.05207)
(0.0130535 -0.00136989 1.07941)
(0.00108281 0.00900015 1.09047)
(0.00516262 0.00271352 1.07821)
(0.00452893 0.00526058 1.08631)
(0.000567268 0.00171087 1.05012)
(0.0118807 -0.0119374 1.06145)
(0.00839528 -0.00226117 1.11806)
(-0.00273327 0.0127077 1.08375)
(0.00311237 0.00100348 1.07116)
(0.0081633 -0.00599189 1.06795)
(-0.00212493 0.00105812 1.07723)
(-0.000238851 0.00105237 1.08863)
(-0.00126767 0.00673398 1.05353)
(-0.0198672 0.0364526 1.0664)
(0.000127363 0.00751672 1.11822)
(-0.0163206 0.0183098 1.08704)
(-0.0134743 0.0181012 1.05333)
(-0.0103522 0.00931078 1.07977)
(-0.00561737 0.0129513 1.08692)
(-0.0123917 0.0186198 1.11854)
(0.00920919 -0.00643269 1.19278)
(0.0218449 0.0309437 1.11068)
(0.00364854 -0.0150914 1.08957)
(0.0213259 0.00487265 1.18839)
(0.0163147 -0.00323878 1.1927)
(0.0161094 0.0325816 1.12217)
(-0.00370123 -0.0238162 1.17005)
(0.0093634 -0.00564286 1.10011)
(0.0184573 0.0303018 1.02979)
(0.0305107 0.0270347 0.998174)
(0.0227038 0.0250045 1.035)
(0.0287624 0.029058 1.03567)
(0.0288764 0.0298744 1.03276)
(0.0296528 0.0301715 1.02248)
(0.0287708 0.0311667 1.04599)
(0.0266938 0.0217961 1.02735)
(0.00301661 -0.00502388 1.02686)
(0.00305918 0.0050235 1.02856)
(-0.00022459 -0.00291923 1.00637)
(-0.0134657 -0.00647742 1.02201)
(-0.0102212 -0.00222394 1.03781)
(-0.00286089 0.00289584 1.01994)
(-0.00918795 -0.00503372 1.02845)
(-0.00255446 -0.00477726 1.00864)
(-0.00111876 0.00610024 1.19008)
(0.00661408 0.0160425 1.08008)
(-0.012784 -0.00216969 1.06783)
(-0.023895 0.0195882 1.22668)
(-0.00196914 0.00298425 1.15806)
(0.00167345 0.0355417 1.0959)
(-0.0396138 -0.012919 1.13908)
(-0.0217006 -0.0125039 1.07026)
(0.02783 0.0306902 1.0966)
(-0.0020653 -0.00679464 1.09185)
(0.0159323 0.00908408 1.15748)
(0.0255672 0.019392 1.08403)
(0.0254753 0.0212382 1.10465)
(0.00816238 0.0146209 1.10392)
(0.0304954 0.0287695 1.09073)
(0.0202877 0.0301641 1.10244)
(0.0308301 0.038178 1.06207)
(0.0213669 0.0373329 1.05347)
(0.017059 0.0152164 1.03294)
(0.0027454 0.0070361 1.05296)
(0.0130744 0.0277457 1.05836)
(0.0214323 0.0357159 1.05703)
(0.0135451 0.00818349 1.06215)
(0.0116145 0.0133659 1.05783)
(0.0060027 -0.00942051 1.08531)
(-0.00214159 -0.00573603 1.13758)
(0.0196399 -0.000258699 1.09143)
(-0.0224031 -0.0182941 1.05945)
(0.00416202 -0.000524648 1.07747)
(0.00194636 0.00198689 1.07946)
(-0.00793194 -0.00917997 1.0786)
(-0.000982261 0.00537836 1.08233)
(0.00243537 8.51593e-05 1.04378)
(-0.0122428 -0.00815233 1.02704)
(0.0077253 0.00172155 1.05224)
(0.00661485 0.00521105 1.03136)
(-0.00551415 0.00822922 1.04705)
(-0.00629592 0.00298655 1.04494)
(0.00241481 0.00588481 1.05455)
(0.00422602 0.013023 1.05308)
(-0.0233189 -0.0339626 1.04858)
(0.0531619 0.0103026 1.09856)
(0.00315872 -0.00540358 1.06367)
(-0.0180993 -0.0625112 1.0732)
(0.00506141 -0.0190618 0.965472)
(-0.00482399 -0.0223827 1.14597)
(-0.0288515 -0.0473413 1.09565)
(-0.0302305 -0.0530199 1.18107)
(0.0151564 -0.0138993 1.05811)
(-0.0178523 -0.0454522 1.06155)
(-0.00990156 -0.024565 1.05274)
(-0.0173425 0.0213246 1.12687)
(-0.00296704 -0.0105943 1.0725)
(-0.00860179 -0.0361494 1.06841)
(-0.0063352 0.00359125 1.07113)
(-0.031359 -0.00377943 1.0562)
(-0.00207139 -0.0185927 1.01285)
(0.000971193 -0.0159816 1.01605)
(-0.00150651 -0.0028902 1.00213)
(0.000339744 -0.0130621 1.01378)
(0.00433954 -0.0196159 1.01883)
(0.00182507 -0.0147929 1.00765)
(-0.000505517 -0.0173898 1.01239)
(0.0023774 -0.0115033 1.00157)
(0.0501129 -0.0680521 1.02767)
(-0.0975422 0.305672 0.701607)
(-0.0129133 0.00996787 1.0647)
(0.00365553 -0.0279954 0.970219)
(0.163252 -0.0988003 0.933476)
(0.0370855 -0.00337463 1.11479)
(-0.01664 -0.0105119 1.00919)
(-0.0220546 0.16827 1.02734)
(0.0153284 0.00856037 1.07057)
(-0.00344574 -0.0192628 1.05981)
(0.0318189 -0.0235251 0.960033)
(-0.00552414 0.0393935 1.09341)
(0.00181597 0.0185614 1.05987)
(-0.0148928 -0.101761 1.16312)
(0.104935 0.154435 1.03717)
(0.0231964 -0.0228149 1.1304)
(-0.00691365 -0.0127905 1.07396)
(-0.0131385 0.0185824 1.10524)
(-0.00392309 -0.0258185 1.03852)
(-0.00467357 -0.0293266 1.02468)
(-0.0317395 0.00272247 1.07138)
(-0.0243155 -0.00501549 1.02116)
(-0.0100306 -0.0182616 1.04204)
(-0.00538375 -0.0199979 1.03751)
(-0.00752388 -0.0213517 1.03202)
(-0.00258013 -0.0622591 1.09309)
(0.0410606 0.0837975 1.0687)
(-0.018773 -0.0127701 1.05603)
(-0.00488653 -0.000700027 1.04811)
(0.0108623 -0.0406563 1.19089)
(-0.00642824 -0.0141841 1.10365)
(0.0454984 -0.140373 1.25702)
(-0.00896701 -0.0180962 1.0178)
(-0.0121548 -0.000667049 1.00783)
(-0.101598 0.0136749 0.984369)
(-0.0108322 -0.0183069 1.04117)
(-0.013515 -0.0186693 1.04637)
(-0.0169538 -0.0125291 1.03862)
(-0.00863402 -0.018338 1.03986)
(-0.00512859 -0.00348696 1.04538)
(0.0536174 -0.093057 1.23531)
(0.0291365 -0.0474566 1.06628)
(0.0289726 -0.123911 1.09578)
(0.0273043 -0.0885684 1.14745)
(0.0483881 -0.0315697 1.18596)
(0.0563666 -0.0587721 1.2451)
(0.0796022 -0.138298 1.10906)
(0.0218153 -0.0565966 1.15588)
(0.0124599 -0.0122793 1.00778)
(0.00250553 -0.00438394 1.00131)
(-0.00105305 -0.0130295 1.00136)
(-0.000412854 -0.0192961 1.01037)
(0.00577021 -0.00520901 1.00609)
(0.0133122 -0.00364597 1.00845)
(0.000404003 -0.0191382 1.00685)
(0.000883853 -0.00970121 1.00289)
(0.00609175 -0.0809721 1.0496)
(-0.000298037 -0.0119017 1.03716)
(-0.00780088 -0.0996274 1.01429)
(0.017494 -0.0747276 1.01868)
(0.0066078 -0.0638728 1.10246)
(0.0105651 -0.0415453 1.12629)
(0.01596 -0.0862892 1.02253)
(0.00122565 -0.0546224 1.07164)
(-0.000783609 -0.0919199 1.11492)
(0.00290992 -0.034993 1.04709)
(0.0244659 -0.0796145 1.07633)
(0.00960873 -0.108789 1.13554)
(-0.0169978 -0.0618373 1.12442)
(-0.0116889 -0.0667279 1.14053)
(0.0434462 -0.0585388 1.08694)
(-0.0127825 -0.0559006 1.13687)
(0.0129944 -0.01833 1.05577)
(0.0259435 -0.0706125 1.15322)
(0.0113538 -0.0334665 1.13361)
(0.000935779 -0.0242145 1.03765)
(0.00247785 -0.0376357 1.02802)
(0.0194492 -0.0784389 1.15102)
(0.000791028 -0.0374105 1.03046)
(0.0169317 -0.0519164 1.17063)
(0.0345126 -0.0304256 1.07923)
(0.00312965 -0.0229541 1.03337)
(0.00316843 -0.0250631 1.03027)
(0.0375367 -0.0508043 1.16867)
(-0.000247166 -0.0296118 1.02509)
(-0.00131179 -0.0243064 1.03209)
(-0.000539811 -0.0353088 1.0328)
(0.000171029 -0.0252375 1.03276)
(0.020757 -0.0951057 1.05395)
(0.0533715 -0.0956416 1.06217)
(0.00418826 -0.0414533 1.04161)
(0.0278149 -0.054397 1.03521)
(0.0290557 -0.102077 1.06139)
(0.00292766 -0.0511278 1.10774)
(-9.02899e-06 -0.0673215 1.10924)
(0.00198359 -0.0646702 1.10226)
(0.023707 -0.071457 1.11205)
(0.00503252 -0.0502031 1.09781)
(-0.00152906 -0.0317967 1.035)
(-0.0035752 -0.0238572 1.02733)
(0.00847333 -0.0719561 1.1169)
(0.00111484 -0.0646597 1.12183)
(-0.00554624 -0.0234998 1.03129)
(-9.94144e-05 -0.0288911 1.03689)
(-0.084452 0.00564065 1.11399)
(-0.0929299 0.00476315 1.15112)
(-0.0927265 0.0068393 1.0892)
(-0.0414155 0.00168902 1.04374)
(-0.0466828 -0.0071904 1.12209)
(-0.115038 0.0396053 1.10856)
(-0.038196 -0.00883465 1.13176)
(-0.0630517 -0.0054776 1.14291)
(-0.0989705 -0.0317706 1.17961)
(-0.121976 -0.0758427 1.21897)
(-0.0754663 0.0108707 1.13771)
(-0.0396376 -0.0331647 1.04929)
(-0.0608362 -0.0502325 1.19143)
(-0.0680079 -0.00736062 1.14701)
(-0.0728045 -0.0595407 1.20748)
(-0.0677823 -0.069146 1.19677)
(-0.083384 -0.000382311 1.07032)
(-0.0715117 0.00717483 1.09678)
(-0.0778256 -0.00702481 1.03067)
(-0.0164288 -0.0115699 1.0364)
(-0.0653696 -0.0146144 1.12591)
(-0.0698495 0.00217435 1.05368)
(-0.0586285 -0.0149896 1.13045)
(-0.0496979 -0.00912136 1.12157)
(-0.0111799 0.000604151 1.00863)
(-0.0144719 -0.00924087 1.00353)
(-0.00788075 0.00302629 1.00395)
(-0.000125147 -0.00125371 1.00076)
(-0.0129592 -0.00194073 1.00546)
(-0.0136902 -0.0027633 1.00254)
(-0.0111223 -0.00230403 1.00701)
(-0.012535 -0.00146419 1.00376)
(-0.0509873 -0.0154185 1.1517)
(-0.0656624 -0.0015909 1.13513)
(-0.0342341 -0.00855277 1.03628)
(-0.0280141 -0.0156521 1.04425)
(-0.0531436 -0.0161694 1.16869)
(-0.0739861 -0.00254015 1.12898)
(-0.0284663 -0.00585454 1.03034)
(-0.0297631 -0.00668566 1.03164)
(-0.117815 0.0172974 1.11346)
(-0.0270087 -0.0209492 1.0428)
(-0.0676731 -0.00815953 1.11417)
(-0.105595 0.008592 1.10019)
(-0.0615378 -0.0236657 1.16607)
(-0.0837076 -0.0269016 1.1579)
(-0.0954842 0.00323716 1.10064)
(-0.0667422 -0.0317436 1.158)
(-0.033875 0.000349572 1.11697)
(-0.034585 -0.00122245 1.03203)
(-0.0346072 -0.0127235 1.04148)
(-0.0288355 -0.00281698 1.02679)
(-0.0306486 -0.0068143 1.03067)
(-0.028163 -0.00702953 1.0309)
(-0.0296282 -0.0102706 1.03271)
(-0.0218854 -0.00365921 1.03414)
(-0.0751297 0.00107618 1.12712)
(-0.0268526 -0.00947089 1.03211)
(-0.0288603 -0.0192302 1.03754)
(-0.0512573 -0.0225462 1.15875)
(-0.0714699 -0.0220192 1.1262)
(-0.0220565 -0.0108876 1.0323)
(-0.0625541 -0.0216563 1.16246)
(-0.0147541 -0.00380476 1.04347)
(0.0970603 -0.086634 1.25524)
(0.0647839 -0.0374152 1.0667)
(0.0982657 -0.040213 1.1614)
(0.104547 -0.0565574 1.11739)
(0.0483737 -0.0718455 1.18437)
(0.0258056 -0.0682232 1.13694)
(0.0948444 -0.0533095 1.0851)
(0.0919789 -0.0463845 1.14918)
(0.0195057 -0.0116604 1.01659)
(0.00415864 -0.00103914 1.0019)
(0.0134949 0.00100756 1.01261)
(0.00936486 -0.00192562 1.00178)
(0.0131049 -0.00462551 1.00863)
(0.00899645 -0.00544633 1.00724)
(0.0133255 -4.17981e-05 1.01037)
(0.0122468 -0.00168936 1.00911)
(0.0944642 -0.0177513 1.13858)
(0.0376871 0.00669783 1.05262)
(0.090811 -0.00608948 1.13355)
(0.0874858 0.00221464 1.08863)
(0.0671307 0.0235627 1.12181)
(0.0287033 0.024654 1.09482)
(0.0825474 -0.00133446 1.06134)
(0.0582704 0.00308716 1.1136)
(0.12269 -0.0354291 1.10374)
(0.0255943 -0.00138773 1.02117)
(0.105056 0.0120877 1.08071)
(0.104238 -0.0100571 1.14063)
(0.13023 -0.00513078 1.1182)
(0.0853645 -0.0074498 1.11329)
(0.0691551 -0.0180949 0.967632)
(0.105167 -0.00173892 1.10613)
(0.048937 -0.0133209 1.04872)
(0.0907483 -0.00770391 1.15377)
(0.0891105 -0.0488187 1.11201)
(0.0310856 -0.00977777 1.02582)
(0.0430702 -0.0121923 1.0422)
(0.109046 -0.0331927 1.13971)
(0.0393282 -0.0152866 1.02998)
(0.0792439 -0.0264383 1.12694)
(0.0287052 -0.0182949 1.04403)
(0.0297696 -0.00789371 1.03589)
(0.03022 -0.00373343 1.03235)
(0.0664541 -0.0161217 1.12934)
(0.0370575 -0.0154288 1.04608)
(0.0418703 -0.0088208 1.03323)
(0.0395398 -0.00881287 1.04523)
(0.0399443 0.00127216 1.04211)
(0.112654 -0.0142564 1.10399)
(0.117533 -0.0390176 1.07014)
(0.0338269 0.00469997 1.0416)
(0.10727 0.0164277 1.04106)
(0.109028 -0.0118514 1.12801)
(0.106889 -0.0171139 1.13126)
(0.0775043 -0.00117895 1.11983)
(0.0767825 -0.00631509 1.13354)
(0.0692779 -0.016642 1.14363)
(0.0730828 0.0201831 1.10003)
(0.0394383 -0.00330228 1.03135)
(0.0420205 -0.00364422 1.03614)
(0.0789337 0.0126824 1.12228)
(0.0607948 0.00215156 1.1154)
(0.0383234 -5.26759e-05 1.03726)
(0.0375129 0.0010882 1.0336)
(-0.0316803 -0.103184 1.26174)
(-0.0360707 -0.0468343 1.08322)
(-0.036732 -0.0950686 1.15856)
(-0.0227332 -0.096626 1.13628)
(-0.0294594 -0.0447996 1.22134)
(-0.0433205 -0.0169302 1.16423)
(-0.0243723 -0.0929227 1.10677)
(-0.0323237 -0.0830186 1.1364)
(-0.0116238 -0.00904882 1.01909)
(-0.000403035 -0.000939943 1.00146)
(0.00594223 -0.00963621 1.0047)
(-0.00224433 -0.00534361 1.00276)
(-0.00113991 -0.00658544 1.01213)
(-0.00111297 -0.00518309 1.00753)
(0.00180577 -0.00727145 1.00866)
(-0.00104807 -0.00869948 1.00331)
(-0.0142863 -0.0910059 1.11609)
(0.00704271 -0.0249932 1.03369)
(-0.0153578 -0.0923796 1.14019)
(0.0030112 -0.0795489 1.09046)
(0.0207471 -0.0647773 1.10983)
(0.00682049 -0.0343751 1.10561)
(0.0122414 -0.0744931 1.08154)
(-0.0151865 -0.0562691 1.11608)
(-0.0199554 -0.119229 1.09879)
(0.00629356 -0.00730824 1.01428)
(0.00536775 -0.0906118 1.06738)
(-0.00755936 -0.104475 1.12485)
(0.00641481 -0.133217 1.1012)
(-0.00621087 -0.0909269 1.08128)
(-0.00705226 -0.108162 0.945108)
(-0.0148219 -0.0903753 1.05811)
(-0.010077 -0.032297 1.05757)
(-0.00755235 -0.0771775 1.15076)
(-0.0244401 -0.0841343 1.13547)
(-0.00192511 -0.0184575 1.01719)
(-0.0105971 -0.0313282 1.04201)
(-0.028158 -0.0923635 1.1362)
(-0.00931256 -0.0261831 1.02222)
(-0.0197314 -0.0771315 1.12372)
(-0.013599 -0.0153678 1.05031)
(0.00849536 -0.0225421 1.03184)
(0.0130625 -0.0206954 1.04725)
(-0.0140318 -0.0520692 1.11703)
(-0.00450549 -0.0222012 1.03667)
(0.00262945 -0.0285211 1.03097)
(0.00023555 -0.0318823 1.04267)
(0.0118363 -0.0311902 1.0437)
(-0.0119359 -0.103811 1.08453)
(-0.0267923 -0.117195 1.07052)
(0.012983 -0.019835 1.03734)
(0.0148962 -0.0891593 1.05089)
(-0.0107597 -0.10157 1.10568)
(-0.0163758 -0.100011 1.09162)
(-0.00303858 -0.0777961 1.10985)
(-0.00718089 -0.0798081 1.09759)
(-0.0122262 -0.0682051 1.11518)
(0.00605952 -0.0588547 1.07539)
(0.0104622 -0.0281577 1.035)
(0.00551704 -0.0293003 1.03621)
(0.0021511 -0.0747958 1.10367)
(0.00245713 -0.0576647 1.09569)
(0.01205 -0.0281018 1.0417)
(0.00623426 -0.027872 1.03161)
(-0.073466 0.0407907 1.17364)
(-0.0507947 0.0513819 1.14005)
(-0.0247215 0.0556174 1.15578)
(-0.0384944 0.0526643 1.1028)
(-0.0646691 0.0511217 1.16698)
(-0.0133472 0.0486056 1.16646)
(-0.042518 0.0387622 1.13336)
(-0.0183097 0.0508272 1.12117)
(-0.0349405 0.0439195 1.04276)
(-0.0217198 0.0286742 1.01296)
(-0.0218581 0.036902 1.03316)
(-0.0259629 0.0325642 1.03177)
(-0.0284013 0.0348603 1.03654)
(-0.027614 0.026815 1.03123)
(-0.0262028 0.0317054 1.03287)
(-0.0243834 0.029401 1.02689)
(-0.00215544 0.0598503 1.10649)
(-0.00571393 0.0315992 1.10221)
(0.0255185 0.027508 1.04688)
(0.022224 0.0254808 1.03833)
(-0.0118781 0.060095 1.10479)
(0.00528499 0.0218623 1.10352)
(0.0102981 0.0171095 1.05607)
(0.0159207 0.011261 1.04206)
(-0.0197057 0.0562364 1.08842)
(-0.0286038 0.0424627 1.08794)
(0.0123422 0.0437294 1.04812)
(-0.0106706 0.0440909 1.06383)
(-0.0322546 0.081654 1.09777)
(-0.0243724 0.0663691 1.08521)
(-0.0151122 0.0456371 1.05798)
(-0.00514427 0.0441971 1.06163)
(-0.0345547 0.0534061 1.12661)
(-0.023742 0.0620416 1.14395)
(-0.0314761 0.0589869 1.14805)
(-0.0404175 0.0323157 1.10933)
(-0.0376955 0.0344131 1.11971)
(-0.0189336 0.0581579 1.12707)
(-0.033229 0.0402317 1.11735)
(-0.0230852 0.0590696 1.13079)
(-0.0446586 0.0316803 1.10647)
(-0.0284274 0.0324198 1.10156)
(-0.0179661 0.0335892 1.10455)
(0.00891495 0.038989 1.14284)
(-0.0403904 0.0314445 1.11933)
(-0.035121 0.0332091 1.11397)
(-0.0265657 0.0239329 1.11638)
(-0.017382 0.0255039 1.10652)
(-0.00839883 0.0375961 1.10357)
(-0.0264359 0.0496529 1.09019)
(-0.0253848 0.039299 1.0955)
(0.000664319 0.03187 1.06284)
(-0.00972992 0.06499 1.07883)
(-0.0124132 0.0610103 1.07856)
(-0.0228956 0.0742759 1.09451)
(-0.0209469 0.0661048 1.08633)
(0.00279012 0.0494745 1.08556)
(0.0112284 0.0307754 1.05426)
(-0.0246093 0.0437206 1.10115)
(-0.0143098 0.0388967 1.10561)
(-0.0130596 0.053874 1.08596)
(-0.00456098 0.0496503 1.10388)
(-0.0186077 0.0321122 1.10175)
(-0.0175525 0.0326221 1.09538)
(0.0568607 -0.0391416 1.13039)
(0.0314238 -0.0432192 1.1253)
(0.0166183 -0.0501983 1.14148)
(0.0292229 -0.0456726 1.07423)
(0.0484046 -0.0456688 1.12261)
(0.00259181 -0.0380861 1.13532)
(0.028949 -0.0361036 1.11058)
(0.0082792 -0.0476463 1.10514)
(0.0253169 -0.029814 1.06397)
(0.0189353 -0.0157838 1.02057)
(0.0143142 -0.0201766 1.05622)
(0.0171976 -0.0198138 1.05485)
(0.0205773 -0.0265497 1.06352)
(0.0186801 -0.016907 1.05937)
(0.0195544 -0.022858 1.0575)
(0.0156565 -0.0119895 1.05101)
(-0.00789692 -0.0437971 1.16974)
(0.0146283 -0.0327415 1.08998)
(-0.00706074 -0.0491481 1.12124)
(-0.00612948 -0.0359954 1.0885)
(0.00681735 -0.0343985 1.1446)
(0.00646191 -0.0154339 1.13647)
(-0.0186924 -0.0260411 1.11912)
(-0.00432413 -0.0526264 1.10776)
(0.00988488 -0.0529089 1.08119)
(0.0222909 -0.0349373 1.087)
(0.00139018 -0.0479764 1.09204)
(0.00853838 -0.04215 1.08103)
(0.0214522 -0.0700332 1.09232)
(0.0119482 -0.0563716 1.09656)
(0.0111286 -0.0423664 1.0749)
(0.00382127 -0.049245 1.10506)
(0.0234821 -0.0414582 1.12578)
(0.0207505 -0.0543626 1.13298)
(0.0131955 -0.0645417 1.12431)
(0.0298797 -0.0283781 1.10329)
(0.0227761 -0.02836 1.11263)
(0.0106405 -0.0570084 1.11005)
(0.0241004 -0.0343454 1.10805)
(0.0161836 -0.0573108 1.11382)
(0.0235084 -0.0246856 1.10831)
(0.019466 -0.0292343 1.10064)
(0.0153904 -0.0240676 1.10888)
(-0.00337647 -0.0372784 1.1451)
(0.0248588 -0.0270728 1.1085)
(0.0232139 -0.0301693 1.10898)
(0.0151437 -0.0277496 1.10812)
(0.0125126 -0.0284613 1.10938)
(0.00736956 -0.0328592 1.13113)
(0.0187032 -0.0420559 1.08549)
(0.0179778 -0.0338826 1.0915)
(-0.0076905 -0.0331683 1.10833)
(0.0091154 -0.0533595 1.09205)
(0.00981333 -0.0513218 1.08139)
(0.0113957 -0.0622632 1.12102)
(0.0125274 -0.0622196 1.10289)
(-0.00896383 -0.0407451 1.13293)
(0.00114314 -0.0484332 1.12004)
(0.0162849 -0.0335881 1.10078)
(0.0157904 -0.0289348 1.09548)
(-0.000807846 -0.0408389 1.13836)
(-0.00215285 -0.0475888 1.13816)
(0.0175308 -0.0318007 1.09901)
(0.0134059 -0.0321158 1.09833)
(0.037267 0.0281349 0.999332)
(0.0360829 0.0327147 1.04925)
(0.0403875 0.025556 1.02162)
(0.0425528 0.021044 1.02006)
(0.0390925 0.0272881 1.02048)
(0.0336895 0.0285982 1.04186)
(0.0418456 0.022626 1.00835)
(0.0375507 0.0258522 1.02394)
(0.0473602 0.0406121 1.15184)
(0.0171473 0.0360472 1.28086)
(0.0666007 0.0288355 1.17251)
(0.0515046 0.0273288 1.21853)
(0.0957602 0.0211284 1.18036)
(0.0579225 0.0389936 1.24874)
(0.0637413 0.019279 1.1644)
(0.0493595 0.038211 1.19461)
(0.0481967 0.0259681 1.06936)
(0.061828 0.013712 1.15184)
(0.0421075 0.00357021 1.12231)
(0.0419489 -0.0060165 1.10649)
(0.0659561 0.0256801 1.14431)
(0.0826903 0.0317094 1.1621)
(0.0417353 0.00865088 1.11406)
(0.0434664 0.0103552 1.11517)
(0.0387305 0.00368009 1.06685)
(0.0513102 0.0257774 1.17966)
(0.0266448 -0.0157484 1.0998)
(0.0157616 -0.0131124 1.12158)
(0.0290758 -0.0155186 1.17446)
(0.0558955 0.0228726 1.17222)
(0.0145274 -0.0139408 1.11156)
(0.018482 -0.00398655 1.12471)
(0.044806 0.0349753 1.09456)
(0.0371719 0.025247 1.07972)
(0.0386944 0.0172819 1.06386)
(0.0339846 -0.00592774 1.18521)
(0.0340904 0.0384769 1.09678)
(0.0384228 0.0311142 1.09065)
(0.0272998 0.0263868 1.09736)
(0.0324084 0.0128841 1.08192)
(0.0521129 0.033455 1.1307)
(0.0567871 0.0284606 1.19602)
(0.0762086 0.0305196 1.22579)
(0.0405453 0.0368384 1.09062)
(0.040865 0.0355994 1.10685)
(0.066768 0.021286 1.1797)
(0.0448541 0.0304032 1.10761)
(0.0707435 0.0157795 1.17539)
(0.0486315 0.0212938 1.07082)
(0.0437458 0.0145635 1.05987)
(0.0451275 0.0122769 1.1456)
(0.0290478 -0.010137 1.12039)
(0.039364 0.0174542 1.06786)
(0.0334632 0.0147747 1.06557)
(0.052309 0.014883 1.16438)
(0.0487648 0.0229118 1.15192)
(0.0450224 0.0253435 1.0764)
(0.0359698 0.0119477 1.12391)
(0.0337885 0.0226402 1.16275)
(0.0557382 0.0226171 1.15034)
(0.0649334 0.0284768 1.14086)
(0.0741973 0.0313338 1.15647)
(0.0544336 0.0163297 1.12392)
(0.0585353 0.0211005 1.1313)
(-0.0522609 0.106449 1.16285)
(-0.0377759 0.0607909 1.15883)
(-0.0785136 0.0262342 1.12455)
(-0.0215151 0.00948074 1.1909)
(-0.097204 0.0717083 1.18467)
(-0.160354 0.108641 1.13513)
(0.00647647 -0.0163918 1.12339)
(-0.0813462 0.0144265 1.11541)
(-0.0331007 0.0292256 1.05707)
(-0.0314628 0.0268209 1.00765)
(-0.0467705 0.028077 1.04342)
(-0.0373378 0.0205039 1.03533)
(-0.0281515 0.0270514 1.0501)
(-0.0241784 0.0281776 1.03821)
(-0.0518292 0.0270031 1.05107)
(-0.0349645 0.023835 1.03778)
(-0.065095 0.0468016 1.09128)
(-0.051504 0.0270166 1.09491)
(-0.0465296 0.0497835 1.12575)
(-0.0515384 0.0381882 1.08897)
(-0.0723296 0.0388082 1.11571)
(-0.0746897 0.0399639 1.13946)
(-0.0685517 0.0408931 1.08409)
(-0.0773982 0.0373673 1.08695)
(-0.0313611 0.0108314 1.20926)
(-0.0270844 0.0173638 1.08388)
(-0.0448254 0.0206647 1.09314)
(-0.00399957 -0.00949633 1.14507)
(-0.0654873 0.0384765 1.16464)
(-0.0808392 0.0535244 1.13607)
(-0.0367768 0.00029977 1.0817)
(-0.0622453 0.00359019 1.09539)
(-0.041947 0.0512259 1.14649)
(-0.0729071 0.0333389 1.13048)
(-0.0596894 0.0382988 1.167)
(-0.0323681 0.0337079 1.10371)
(-0.0308658 0.0380412 1.11568)
(-0.0526017 0.0569469 1.14605)
(-0.0161602 0.0341572 1.10834)
(-0.0581585 0.0558585 1.13917)
(-0.0613111 0.0520517 1.13998)
(-0.0465845 0.0339922 1.09516)
(-0.0645833 0.0493705 1.1051)
(-0.067261 0.0432254 1.1484)
(-0.0360532 0.0410473 1.1175)
(-0.0423581 0.0438868 1.09055)
(-0.0552015 0.0367091 1.13427)
(-0.0393179 0.0418343 1.11183)
(-0.0714916 0.0313738 1.08421)
(-0.0429258 0.00578129 1.12416)
(-0.0282608 0.0269947 1.09892)
(-0.0639034 0.0264444 1.07107)
(-0.0580193 0.0312497 1.09326)
(-0.0552989 0.0150176 1.13147)
(-0.0664115 0.031194 1.13826)
(-0.0451969 0.0525928 1.17803)
(-0.0752637 0.034873 1.0966)
(-0.0721934 0.0255595 1.10038)
(-0.0388448 0.0262104 1.08679)
(-0.0455287 0.0350702 1.09198)
(-0.0648412 0.0389458 1.14928)
(-0.0585848 0.0374409 1.15927)
(-0.032086 0.0231165 1.09094)
(-0.0448562 0.0300804 1.09665)
(0.0429307 -0.0919142 1.09234)
(0.0266614 -0.0435209 1.14993)
(0.0707551 -0.0440403 1.05572)
(0.0344549 -0.0376187 1.11114)
(0.0702713 -0.066972 1.10688)
(0.100988 -0.0841269 1.0652)
(0.022112 -0.0204295 1.05644)
(0.0730733 -0.0357138 1.04896)
(0.0250691 -0.0256394 1.06872)
(0.0236403 -0.01522 1.0149)
(0.029532 -0.0156049 1.05199)
(0.0282765 -0.0170856 1.04791)
(0.0241394 -0.023542 1.06166)
(0.0234331 -0.023433 1.06023)
(0.0319552 -0.0139565 1.04964)
(0.0289203 -0.0217327 1.05008)
(0.0590313 -0.0637277 1.00938)
(0.0429932 -0.016289 1.06793)
(0.0521565 -0.0451295 1.0028)
(0.0426256 -0.0515646 1.02061)
(0.0727104 -0.052754 1.02448)
(0.0560334 -0.0362497 1.05028)
(0.0628443 -0.0548045 0.991446)
(0.0704904 -0.0569662 1.01748)
(0.0369457 -0.0225531 1.11756)
(0.0367162 -0.0175126 1.05546)
(0.0368624 -0.0390733 1.02422)
(0.0136894 -0.00910182 1.07409)
(0.0652975 -0.0441872 1.06196)
(0.0665138 -0.0528613 1.04042)
(0.0417915 -0.0212586 1.02124)
(0.0560063 -0.023096 1.02837)
(0.0327933 -0.0326931 1.14356)
(0.0669338 -0.0532939 1.05462)
(0.0633232 -0.0561138 1.08148)
(0.0329206 -0.0160294 1.0836)
(0.0243711 -0.0249932 1.09252)
(0.0454166 -0.076006 1.06029)
(0.0179085 -0.0182485 1.09232)
(0.0597099 -0.0757391 1.05478)
(0.0472113 -0.0298004 1.14231)
(0.0404221 -0.0169186 1.08612)
(0.0410411 -0.0204227 1.10278)
(0.0480289 -0.0644611 1.06347)
(0.0351984 -0.0230792 1.10582)
(0.0345744 -0.0161988 1.08567)
(0.0448719 -0.0269434 1.10939)
(0.0364416 -0.0253012 1.0964)
(0.0690854 -0.0475672 1.01465)
(0.0469006 -0.0207391 1.04577)
(0.0390634 -0.0203262 1.05625)
(0.0562006 -0.0402971 1.00213)
(0.0574692 -0.0444023 1.02867)
(0.0568285 -0.0323262 1.05003)
(0.0637532 -0.0407379 1.04754)
(0.0522266 -0.0519919 1.06173)
(0.0680414 -0.0548412 1.02873)
(0.0654042 -0.0359701 1.02288)
(0.0393887 -0.0162585 1.06257)
(0.0398353 -0.0190859 1.07156)
(0.0519679 -0.0420219 1.05923)
(0.0631911 -0.0377739 1.05663)
(0.0382672 -0.0171983 1.05583)
(0.0451855 -0.0177663 1.0641)
(0.0310997 0.0350045 0.99916)
(0.0228734 0.0395383 1.04691)
(0.0254705 0.0307977 1.02075)
(0.0349336 0.0358262 1.03071)
(0.0254675 0.0180759 1.03809)
(0.0234958 0.033772 1.02812)
(0.0259263 0.0332022 1.02594)
(0.0278195 0.0490808 1.02551)
(0.0653606 0.0273139 1.1551)
(0.0656734 0.00697454 1.18738)
(0.0239036 0.0415633 1.25773)
(0.0408329 0.0818718 1.16328)
(0.0928266 0.115366 1.11062)
(0.0692908 0.0592486 1.20082)
(0.0247225 0.0851944 1.14959)
(0.0166471 0.00755685 1.19323)
(0.021742 0.0188282 1.11203)
(0.0193842 0.0328939 1.17945)
(0.0218589 -0.0156299 1.06405)
(0.0368239 0.0358738 1.08717)
(0.0701463 0.106777 1.11414)
(0.0512769 0.062613 1.13607)
(0.0303039 0.0445431 1.03757)
(0.021206 -0.0195963 1.04327)
(0.0230875 0.0573184 1.09036)
(0.0574089 0.0713481 1.0884)
(0.0499672 0.0516285 1.13309)
(0.0490953 0.0566394 1.11414)
(0.0442781 0.0774506 1.12408)
(0.0395921 0.0822892 1.11267)
(0.0465008 0.0800653 1.11924)
(0.0457276 0.0720521 1.10418)
(0.0419399 0.0320204 1.12868)
(0.0208192 0.0514293 1.09474)
(0.030272 0.0534719 1.08446)
(0.0656482 0.0599807 1.17604)
(0.0425305 0.0163071 1.11533)
(0.0343312 0.0330919 1.08095)
(0.0355994 0.0459993 1.13721)
(0.0367542 0.0282667 1.11208)
(0.0460354 0.0279952 1.13389)
(0.0497018 0.079652 1.1562)
(0.0451722 0.0730487 1.17419)
(0.0181605 0.031857 1.09741)
(0.0294509 0.0343595 1.12909)
(0.070776 0.056143 1.16031)
(0.0304197 0.0163035 1.11345)
(0.0674872 0.0777709 1.15414)
(0.0195077 0.0354414 1.0945)
(0.0377717 0.0472159 1.09618)
(0.0439689 0.0803717 1.1088)
(0.0373646 0.0710521 1.09152)
(0.0302437 0.0565395 1.11289)
(0.0242839 0.0350845 1.10193)
(0.0380956 0.0834918 1.15078)
(0.0414601 0.0749747 1.14461)
(0.030374 0.0192844 1.12183)
(0.0346649 0.0608665 1.07929)
(0.036494 0.0788763 1.08556)
(0.00388521 0.0442982 1.10327)
(0.0605111 0.075592 1.15405)
(0.0430437 0.0826867 1.11886)
(0.0144694 0.062762 1.11775)
(0.0302878 0.0657073 1.08954)
(3.84133e-05 0.00998565 1.01147)
(-0.00870475 0.00339626 1.0478)
(-0.0167222 -0.00192773 1.05011)
(-0.0254967 0.00673234 1.06691)
(0.0210931 -0.000239493 1.06128)
(-0.0127329 -0.000132039 1.02441)
(-0.0302454 -0.025549 1.14848)
(-0.0424063 -0.0215977 1.14)
(-0.0392995 0.00105262 1.06773)
(-0.0821739 -0.0229411 1.08614)
(-0.0265414 -0.0172558 1.09547)
(-0.0244088 0.00731238 1.03878)
(-0.0392502 -0.0151703 1.07248)
(-0.0792337 -0.0058248 1.05779)
(-0.0201366 -0.0235804 1.12865)
(-0.0731698 -0.00670033 1.12924)
(-0.0132273 -0.00720951 1.08689)
(-0.023346 -0.0158128 1.10888)
(-0.0205756 0.00354536 1.09847)
(-0.0256833 -0.00282832 1.04529)
(-0.00643082 -0.00745302 1.11061)
(-0.019909 -0.0117761 1.08362)
(-0.0249163 -0.00651576 1.12758)
(-0.0275497 -0.010624 1.1176)
(-0.0115042 0.00373293 1.01429)
(-0.00388588 0.00346101 1.00475)
(-0.0137107 -0.00149596 1.01038)
(-0.00193532 0.00143443 1.00081)
(-0.00586288 0.00268607 1.01045)
(-0.00967579 0.00395271 1.01168)
(-0.00592237 -0.000561773 1.00258)
(-0.00617792 -0.000661564 1.00205)
(-0.00364989 0.00496302 1.05381)
(-0.00129508 -0.0126795 1.09072)
(-0.0154712 0.00929498 1.05967)
(-0.0218659 0.00565569 1.05463)
(-0.0405208 -0.0293511 1.13806)
(-0.0469476 -0.0260016 1.14851)
(-0.0158319 0.00737692 1.05332)
(-0.0230531 0.00377701 1.06606)
(-0.0334269 0.00575504 1.05287)
(-0.024968 0.00601419 1.04987)
(-0.0206793 -0.01558 1.05761)
(-0.0281849 -0.0106879 1.03429)
(-0.0572976 -0.0247199 1.14347)
(-0.0670865 -0.0379067 1.15808)
(-0.0255867 -0.00899256 1.06987)
(-0.0153914 0.00281345 1.08385)
(-0.00530181 7.40982e-05 1.13568)
(-0.0213784 -0.00276736 1.04993)
(-0.0184157 -0.00392118 1.03303)
(-0.0138106 0.00129094 1.04532)
(-0.0221691 0.00488075 1.06156)
(-0.0248383 -0.00379677 1.04654)
(-0.0200364 0.00428145 1.05104)
(-0.0277758 -0.00344789 1.04474)
(-0.00804898 0.000608118 1.12554)
(-0.0173705 0.00321515 1.03949)
(-0.0296724 0.000697416 1.03483)
(-0.0225073 -0.00281104 1.12831)
(-0.00990858 0.00181098 1.12878)
(-0.0271532 0.00153965 1.05874)
(-0.0259334 0.00990975 1.13312)
(-0.028241 0.00225788 1.04851)
(0.00214711 0.000565895 1.00191)
(0.0139385 -0.0045219 1.00894)
(0.0187436 0.000952814 1.01122)
(0.0134413 0.000867118 1.01283)
(0.00863998 0.00425844 1.00286)
(0.0139963 0.000138932 1.00533)
(0.0173309 0.000772006 1.01024)
(0.0216615 -0.00859499 1.01918)
(0.0283026 0.000925669 1.03438)
(0.0541306 -0.0281953 1.0686)
(0.0308978 -0.00704052 1.05079)
(0.000447126 0.0156487 1.10748)
(0.0226172 0.0156105 1.10037)
(0.0345188 -0.00522583 1.10903)
(0.0130034 -0.00791331 1.10507)
(0.032071 -0.0165706 1.09387)
(0.00538258 -0.00621659 1.06829)
(0.00979394 -0.0362653 1.12847)
(0.0609127 0.0344056 1.03994)
(0.0898839 0.0053112 1.05988)
(0.0743016 -0.00808722 1.25327)
(0.0139287 -0.00730334 1.19576)
(0.0620589 0.00179098 1.15835)
(0.0170588 0.0358563 0.939624)
(0.013371 0.00816965 1.06268)
(-0.375164 0.0774031 0.706913)
(0.0831276 -0.0844357 1.0491)
(0.0562751 -0.0198521 0.973375)
(-0.12807 -0.0113048 0.958126)
(0.0589178 -0.108107 1.11968)
(0.035652 -0.0365762 0.99701)
(0.0915719 -0.151867 0.995032)
(0.0201346 0.0104726 1.03452)
(0.0134945 0.0130702 1.01545)
(0.00353467 0.0145868 1.01931)
(0.0116166 0.0484368 1.0341)
(0.0239016 0.0021517 1.04089)