/*--------------------------------*- C++ -*----------------------------------*\
| =========                 |                                                 |
| \\      /  F ield         | OpenFOAM: The Open Source CFD Toolbox           |
|  \\    /   O peration     | Version:  2506                                  |
|   \\  /    A nd           | Website:  www.openfoam.com                      |
|    \\/     M anipulation  |                                                 |
\*---------------------------------------------------------------------------*/
FoamFile
{
    version     2.0;
    format      ascii;
    arch        "LSB;label=32;scalar=64";
    class       volScalarField;
    location    "1900";
    object      p;
}
// * * * * * * * * * * * * * * * * * * * * * * * * * * * * * * * * * * * * * //

dimensions      [0 2 -2 0 0 0 0];

internalField   nonuniform List<scalar> 
71680
(
-0.0488682
-0.0453045
-0.0628042
-0.0465681
-0.047274
-0.050579
-0.0525727
-0.0556625
-0.0409091
-0.0379642
-0.0567094
-0.0457631
-0.0349637
-0.0432834
-0.0479978
-0.0448928
-0.0845027
-0.0855875
-0.121069
-0.0921307
-0.0839576
-0.0987435
-0.0995534
-0.0992602
-0.0499926
-0.0535035
-0.0737424
-0.0504039
-0.0525861
-0.0585234
-0.0585589
-0.0657289
-0.0416482
-0.0653078
-0.0477172
-0.0476841
-0.0515683
-0.0548778
-0.045724
-0.0537579
-0.0462613
-0.0547272
-0.0702585
-0.0683923
-0.0523918
-0.0538189
-0.0631518
-0.0583544
-0.0769261
-0.0539874
-0.0567986
-0.0801099
-0.0686956
-0.0590201
-0.0641332
-0.0608344
-0.077329
-0.0892468
-0.06174
-0.0734105
-0.0779034
-0.0758323
-0.0716194
-0.0653678
0.00195442
-0.00303924
-0.00480028
-0.00384354
-0.001213
-0.00231618
-0.00337675
-0.00458737
-0.00775112
-0.0113689
-0.0147227
-0.0130037
-0.0106014
-0.0114689
-0.0123709
-0.0141363
-0.0145173
-0.0181704
-0.0233848
-0.019333
-0.0175084
-0.0183704
-0.0190178
-0.0217365
-0.00885804
-0.0132385
-0.016474
-0.0138503
-0.0118222
-0.0128681
-0.012751
-0.0155996
-0.00621472
-0.00892688
-0.00683786
-0.0118733
-0.00821874
-0.00713755
-0.00880969
-0.00828352
-0.00747743
-0.0126818
-0.0147825
-0.0100756
-0.00971279
-0.0119572
-0.0104105
-0.0141134
-0.0108441
-0.00818656
-0.0125514
-0.0155057
-0.0110621
-0.010479
-0.0145996
-0.012014
-0.0133918
-0.0181407
-0.0147195
-0.0175297
-0.0143104
-0.0152987
-0.0149872
-0.0153577
-0.113271
-0.118911
-0.0895929
-0.108578
-0.106992
-0.108735
-0.107291
-0.105114
-0.129568
-0.127295
-0.0883991
-0.106472
-0.132655
-0.124399
-0.105597
-0.11146
-0.0607618
-0.0607494
-0.039824
-0.0512317
-0.0551337
-0.0509043
-0.047633
-0.0451409
-0.0748424
-0.0757214
-0.0574723
-0.0554824
-0.073479
-0.0754354
-0.0647972
-0.0659698
-0.114833
-0.0864682
-0.101407
-0.0966649
-0.108686
-0.100322
-0.108829
-0.0967653
-0.116265
-0.0969369
-0.083833
-0.0836868
-0.104008
-0.102016
-0.0926566
-0.091305
-0.0771489
-0.0829354
-0.0826947
-0.0598436
-0.0714157
-0.0845091
-0.0694691
-0.0774623
-0.075804
-0.0620286
-0.0837521
-0.0768171
-0.0700394
-0.0682645
-0.0779548
-0.0731796
-0.00486197
-0.00548346
-0.0034592
-0.00623099
-0.00517763
-0.00490531
-0.00522222
-0.00486642
-0.00767205
-0.0105684
-0.00671269
-0.0119889
-0.00881086
-0.00859539
-0.00905077
-0.00855936
-0.00138053
-0.00245433
0.00165823
-0.00307359
-0.00174032
-0.00126689
-0.00159137
-0.000972177
-0.00844687
-0.0122248
-0.00763067
-0.0126606
-0.00992682
-0.0097218
-0.010084
-0.00987297
-0.00622422
-0.00379956
-0.00705081
-0.00970986
-0.00636431
-0.005498
-0.00842383
-0.00686278
-0.00608237
-0.00957736
-0.00490909
-0.00339323
-0.00596932
-0.00764353
-0.00425548
-0.00512469
-0.00378343
-0.00713174
-0.00980679
-0.00585554
-0.00459348
-0.00685883
-0.00599949
-0.00846617
-0.00332524
-0.00561829
-0.00977281
-0.00475194
-0.00414154
-0.0056944
-0.00522625
-0.0073648
-0.00578091
-0.00770729
-0.00640905
-0.00722212
-0.00626101
-0.00674096
-0.00643502
-0.00708872
-0.0102083
-0.0128807
-0.0121314
-0.0133584
-0.0115041
-0.0118195
-0.0118647
-0.0128137
-0.00824241
-0.0116532
-0.0110603
-0.012366
-0.0101753
-0.0109952
-0.0110027
-0.0122778
-0.00978836
-0.0138335
-0.0128373
-0.0138866
-0.011472
-0.0119705
-0.0117771
-0.0133995
-0.00879749
-0.00784118
-0.0083544
-0.011547
-0.0091443
-0.00834567
-0.0102956
-0.00904519
-0.0091559
-0.0121594
-0.011397
-0.00854769
-0.0099552
-0.0112784
-0.00935388
-0.0109272
-0.00852011
-0.00854559
-0.0120112
-0.0115732
-0.00894337
-0.00981244
-0.0109211
-0.0114302
-0.00911191
-0.0128939
-0.0132991
-0.0124007
-0.0109798
-0.0116269
-0.0115844
-0.0126617
-0.112827
-0.0883277
-0.087678
-0.0834739
-0.10248
-0.0935463
-0.0952239
-0.0867436
-0.0699837
-0.0473531
-0.0490444
-0.0504376
-0.0633845
-0.0530107
-0.0591415
-0.0505965
-0.0732206
-0.0494399
-0.0505766
-0.0523076
-0.0606517
-0.0555988
-0.0591604
-0.0498107
-0.0573191
-0.0392089
-0.0463399
-0.0337667
-0.0471557
-0.0464069
-0.0413535
-0.0400327
-0.0817117
-0.0819082
-0.0737151
-0.056273
-0.0729487
-0.0804598
-0.0587509
-0.0677238
-0.0741695
-0.0538075
-0.0540484
-0.0761457
-0.0680948
-0.0624237
-0.0683873
-0.059956
-0.0794143
-0.0656901
-0.0513936
-0.0558276
-0.0649447
-0.0615897
-0.0571397
-0.0548959
-0.0661238
-0.0486711
-0.0498755
-0.0505229
-0.0608651
-0.0547297
-0.0563503
-0.0507459
-0.130131
-0.141916
-0.0935601
-0.105369
-0.112604
-0.0985774
-0.0997965
-0.0936786
-0.182963
-0.180254
-0.10511
-0.0983629
-0.169405
-0.160055
-0.127182
-0.120041
-0.0686143
-0.0698196
-0.0539476
-0.0515274
-0.0632024
-0.0633921
-0.0548243
-0.0527518
-0.0759237
-0.0690856
-0.0552468
-0.0535174
-0.0688356
-0.0699935
-0.0576945
-0.0536251
-0.13613
-0.0889807
-0.0946402
-0.108639
-0.109625
-0.0990591
-0.109597
-0.0938809
-0.108395
-0.112451
-0.088863
-0.0873064
-0.104653
-0.117732
-0.1097
-0.0918019
-0.0779997
-0.0808372
-0.0872316
-0.0566826
-0.0785468
-0.0728468
-0.063924
-0.0686076
-0.0745111
-0.0531102
-0.0746881
-0.0735624
-0.0682055
-0.0639769
-0.080369
-0.0693195
-0.00452954
-0.00290437
-0.00411505
-0.00533795
-0.00457435
-0.00397936
-0.00529357
-0.00439363
-0.00068583
0.00174658
-0.000649785
-0.00223233
-0.000598939
0.000226989
-0.00153672
-0.000282731
-0.0034111
-0.0019728
-0.00246191
-0.0037659
-0.0027261
-0.00245191
-0.00294854
-0.00226186
-0.007087
-0.00598074
-0.00688716
-0.0104275
-0.00770257
-0.0064404
-0.00897721
-0.00751198
-0.00292059
-0.00402968
-0.00567983
-0.00437723
-0.00386763
-0.00415609
-0.00371851
-0.0046826
-0.00221995
-0.00313955
-0.00161213
-0.00360011
-0.0027118
-0.00221437
-0.00246664
-0.00203557
-0.00429031
-0.00651131
-0.00506391
-0.00480944
-0.00475311
-0.00526951
-0.00466452
-0.00525841
-0.00361456
-0.00401972
-0.00384123
-0.0016495
-0.00285159
-0.00404659
-0.00238833
-0.00354137
-0.109606
-0.0915075
-0.143216
-0.0995075
-0.11399
-0.103312
-0.126267
-0.11022
-0.0683923
-0.0530678
-0.0771701
-0.0596626
-0.0569311
-0.0510324
-0.0652389
-0.060201
-0.176825
-0.115084
-0.191877
-0.10992
-0.126818
-0.112547
-0.149554
-0.130384
-0.0710648
-0.0650264
-0.0804643
-0.0567459
-0.0773473
-0.0743509
-0.0794559
-0.0741409
-0.0840671
-0.130957
-0.103589
-0.0649294
-0.090535
-0.0996586
-0.0733814
-0.0980764
-0.0790306
-0.0581217
-0.0721529
-0.117911
-0.0861031
-0.0657189
-0.11136
-0.0841854
-0.139752
-0.104745
-0.0722727
-0.0958837
-0.114865
-0.0908149
-0.0936694
-0.0832549
-0.122225
-0.088632
-0.064896
-0.0868196
-0.0936694
-0.0876562
-0.100328
-0.0831747
-0.0126272
-0.0130384
-0.0154181
-0.0136844
-0.0136499
-0.0137532
-0.0145035
-0.0146711
-0.0132137
-0.0139803
-0.0158279
-0.0143513
-0.0136714
-0.0141396
-0.0144218
-0.0150386
-0.0164387
-0.0169097
-0.0169397
-0.0176923
-0.0167742
-0.0167353
-0.0172775
-0.017045
-0.0144377
-0.0151374
-0.0175323
-0.0154839
-0.015652
-0.0157426
-0.0162022
-0.0170508
-0.0132369
-0.0156366
-0.0143232
-0.0144474
-0.0138555
-0.0145831
-0.0141221
-0.0142554
-0.0136072
-0.0148675
-0.0156308
-0.0155347
-0.014574
-0.014695
-0.0152467
-0.0152603
-0.0163816
-0.0149064
-0.0151458
-0.0175694
-0.0159242
-0.0153772
-0.0166376
-0.0159923
-0.0160837
-0.0175333
-0.0158637
-0.0164024
-0.0164245
-0.016519
-0.016007
-0.016666
-0.129057
-0.0576941
-0.0774599
-0.0709538
-0.0875041
-0.0809286
-0.0844436
-0.0772639
-0.0265262
-0.00775447
-0.0239501
-0.0204306
-0.0225989
-0.0220459
-0.0248663
-0.0212767
-0.0548058
-0.0354708
-0.0397938
-0.0382671
-0.0452115
-0.04188
-0.0428185
-0.0383705
-0.0546594
-0.0329566
-0.0397688
-0.0411844
-0.0443898
-0.0455734
-0.044184
-0.0361985
-0.0449308
-0.0661774
-0.0605081
-0.0355978
-0.0465309
-0.0545224
-0.0420808
-0.0567776
-0.0394557
-0.0360459
-0.0362494
-0.0588875
-0.0385816
-0.0312244
-0.0447598
-0.0363961
-0.0612265
-0.0599059
-0.0370439
-0.0465891
-0.0534919
-0.0506737
-0.0477914
-0.0388776
-0.0558906
-0.0382228
-0.0316739
-0.0339402
-0.0391316
-0.0434575
-0.0376101
-0.0321941
-0.100142
-0.085763
-0.0774955
-0.074656
-0.101906
-0.0936647
-0.0873871
-0.0860786
-0.069487
-0.0511791
-0.0523387
-0.05101
-0.0634111
-0.0586351
-0.059676
-0.0529731
-0.0530092
-0.0451945
-0.032154
-0.029934
-0.0443746
-0.043676
-0.0357527
-0.0370538
-0.0476062
-0.0423878
-0.0296637
-0.0276496
-0.0401875
-0.0429078
-0.0374002
-0.0352014
-0.0778277
-0.0699331
-0.0713013
-0.0559652
-0.0715975
-0.0704873
-0.0611813
-0.0654631
-0.0756557
-0.0549863
-0.0554347
-0.0679694
-0.0666924
-0.0582907
-0.0630498
-0.0571432
-0.0619753
-0.0627153
-0.0519844
-0.0351343
-0.0514893
-0.0599968
-0.0440618
-0.0469775
-0.0588505
-0.0360104
-0.0472689
-0.0485739
-0.047738
-0.0432655
-0.0505996
-0.0445134
-0.0242849
-0.0200049
-0.0206192
-0.021814
-0.0214666
-0.0207664
-0.0210499
-0.0204535
-0.0168164
-0.0139493
-0.0161174
-0.0147126
-0.0148714
-0.0152899
-0.014968
-0.0151444
-0.0184193
-0.0168787
-0.0169977
-0.0181997
-0.0173842
-0.0173546
-0.0175388
-0.0170488
-0.0197186
-0.015508
-0.0184513
-0.0171767
-0.0171143
-0.0167905
-0.0176967
-0.0171336
-0.0175187
-0.0190355
-0.0191136
-0.0156471
-0.0175698
-0.019484
-0.0177114
-0.0185195
-0.0172338
-0.0153977
-0.0167156
-0.0188983
-0.017108
-0.0166526
-0.0181377
-0.0165664
-0.0191163
-0.0192025
-0.0160329
-0.0182449
-0.0193858
-0.0186226
-0.0178353
-0.0178605
-0.0186289
-0.0176685
-0.0156138
-0.0163791
-0.0181566
-0.0175857
-0.0169102
-0.0168612
-0.178527
-0.122353
-0.129286
-0.118105
-0.0856813
-0.14147
-0.0947076
-0.109062
-0.13551
-0.118241
-0.100619
-0.118891
-0.143269
-0.138511
-0.10556
-0.132045
-0.147555
-0.0853997
-0.128428
-0.131559
-0.16804
-0.136213
-0.145964
-0.166556
-0.0724208
-0.0859321
-0.0771162
-0.057594
-0.0810938
-0.0852916
-0.0721829
-0.0786373
-0.134748
-0.115627
-0.114906
-0.11169
-0.110427
-0.111585
-0.121222
-0.113787
-0.135283
-0.123786
-0.123719
-0.161204
-0.121746
-0.123691
-0.122748
-0.139924
-0.11356
-0.103608
-0.103886
-0.0829598
-0.13379
-0.122467
-0.121155
-0.113616
-0.140894
-0.104044
-0.102825
-0.168551
-0.141183
-0.144311
-0.129432
-0.140599
-0.0987375
-0.0979117
-0.0886738
-0.0755517
-0.0911606
-0.109419
-0.0796713
-0.0813841
-0.1002
-0.127056
-0.113865
-0.079609
-0.0977138
-0.131713
-0.0849467
-0.0976419
-0.0944088
-0.0999647
-0.0992275
-0.0782405
-0.0956374
-0.109493
-0.0885672
-0.0835042
-0.0616685
-0.0535547
-0.0563744
-0.0394042
-0.0539459
-0.0543752
-0.0373757
-0.0466562
-0.0923627
-0.0864489
-0.0652793
-0.0531422
-0.0811894
-0.0906182
-0.0807732
-0.0848683
-0.117258
-0.0720033
-0.122975
-0.113997
-0.0823506
-0.0915103
-0.0942972
-0.0898121
-0.0802894
-0.0494801
-0.0425763
-0.0510758
-0.0786007
-0.0528427
-0.054769
-0.0450586
-0.0823659
-0.0582209
-0.0540182
-0.0791343
-0.0975959
-0.0763437
-0.0825529
-0.0779639
0.0090665
3.56453e-05
-0.00289281
0.00550977
0.00671873
0.0024257
0.00507266
-0.000864224
-0.00747837
-0.0143853
-0.0170542
-0.0146693
-0.0112429
-0.0131231
-0.0140457
-0.0157565
-0.0151215
-0.0198714
-0.0235613
-0.0239418
-0.0195814
-0.0207059
-0.0230014
-0.0229118
-0.00203778
-0.0149089
-0.0217231
-0.0163156
-0.0097117
-0.0135204
-0.0155674
-0.0191263
-0.00347458
-0.00737404
0.000998159
-0.0104543
-0.00620363
-0.00424327
-0.00604479
-0.00399881
-0.00609899
-0.0129411
-0.0163459
-0.0100481
-0.00935094
-0.0123308
-0.0112547
-0.0153156
-0.00986075
-0.0022855
-0.0138414
-0.0206462
-0.0105042
-0.0077663
-0.0158649
-0.0123651
-0.0136265
-0.0219447
-0.01654
-0.0186839
-0.0166096
-0.017968
-0.0176216
-0.018187
-0.0485684
-0.0454172
-0.061691
-0.051794
-0.053227
-0.0535824
-0.0535222
-0.057786
-0.0452432
-0.0446833
-0.0544429
-0.0480444
-0.0522165
-0.0590177
-0.0506434
-0.0522812
-0.0862018
-0.083604
-0.143994
-0.0906471
-0.10511
-0.0989151
-0.1123
-0.118885
-0.0560852
-0.0516855
-0.064559
-0.0578375
-0.0563518
-0.0574415
-0.056433
-0.0583527
-0.0518208
-0.076483
-0.054872
-0.0538382
-0.0493599
-0.0533754
-0.0501797
-0.052011
-0.0566907
-0.0555996
-0.0825284
-0.0756467
-0.0611039
-0.0533256
-0.060163
-0.0740196
-0.0724742
-0.0550837
-0.0572189
-0.0799769
-0.0628603
-0.0642664
-0.0747821
-0.0574455
-0.0900933
-0.096961
-0.0509336
-0.0813446
-0.0791767
-0.0772224
-0.0735698
-0.0645453
-0.121509
-0.0841102
-0.0860682
-0.0839346
-0.0937695
-0.092353
-0.0932388
-0.0911452
-0.0473997
-0.0257446
-0.0392241
-0.0236246
-0.0302118
-0.0336946
-0.0332126
-0.0305853
-0.0624761
-0.0449545
-0.0489441
-0.0486664
-0.0547836
-0.0464923
-0.0513875
-0.045559
-0.0535749
-0.0270887
-0.0432092
-0.0295111
-0.0325551
-0.0340637
-0.0350432
-0.0326992
-0.0577953
-0.0686842
-0.0592524
-0.0378631
-0.0598698
-0.0769525
-0.0535876
-0.0583997
-0.0593199
-0.0343169
-0.039411
-0.0596553
-0.0562033
-0.0454322
-0.0576865
-0.044182
-0.0651573
-0.0626612
-0.0365621
-0.046101
-0.0635733
-0.058648
-0.0483191
-0.0504529
-0.0597656
-0.041456
-0.0315264
-0.0386846
-0.0524839
-0.0413512
-0.0415589
-0.0384025
0.00343178
-0.00328535
0.00468573
-0.00249051
0.000923397
0.00121979
0.000831386
0.00126277
-0.0131818
-0.0227044
-0.0133001
-0.018834
-0.0166603
-0.0179303
-0.0165813
-0.0178288
0.00680395
-0.00153609
0.00885225
0.000737056
0.00396183
0.0044988
0.00449994
0.00486455
-0.00769662
-0.0158372
-0.00642068
-0.0130122
-0.0101049
-0.010731
-0.00954323
-0.0101634
-0.00668953
0.0021051
-0.00480426
-0.0130228
-0.00642637
-0.00223042
-0.0103394
-0.00519601
-0.00733661
-0.0137278
-0.00718658
0.00240461
-0.00704921
-0.0118047
-0.00249396
-0.00641848
0.00216033
-0.00423605
-0.0126972
-0.00327791
-0.00108285
-0.0045621
-0.00398694
-0.00809768
0.00258567
-0.00357584
-0.0135108
-0.00694573
-0.00161748
-0.00433847
-0.00614865
-0.00972251
-0.0791989
-0.036198
-0.0747801
-0.0621029
-0.048055
-0.070729
-0.0259451
-0.0375861
-0.0263314
-0.0320025
-0.0448769
-0.0352661
-0.0413716
-0.0400381
-0.0487035
-0.0444928
-0.0873032
-0.0709544
-0.0977882
-0.0858998
-0.06921
-0.0666305
-0.071105
-0.0675082
-0.047678
-0.0247346
-0.050764
-0.0320887
-0.0354684
-0.0375148
-0.0382826
-0.038202
-0.0468923
-0.0655003
-0.0511057
-0.0307629
-0.0470646
-0.0666289
-0.0330391
-0.0608086
-0.0437303
-0.0393829
-0.0328287
-0.0663741
-0.0407049
-0.0536998
-0.043864
-0.0487202
-0.059344
-0.047605
-0.0304707
-0.0534839
-0.0794231
-0.0548365
-0.0532874
-0.0318968
-0.0619786
-0.055143
-0.0398124
-0.0426764
-0.0714538
-0.055431
-0.052474
-0.0515834
-0.0136594
-0.0155595
-0.016355
-0.0164181
-0.0148953
-0.0155466
-0.0158221
-0.016191
-0.0155769
-0.0229016
-0.0230282
-0.0218617
-0.0192865
-0.0226067
-0.0202773
-0.0247738
-0.0189208
-0.0236312
-0.0235589
-0.0218549
-0.020343
-0.0214134
-0.0213461
-0.0224592
-0.0183551
-0.0206469
-0.0215346
-0.0202737
-0.0196449
-0.0191363
-0.0197319
-0.0199305
-0.0148576
-0.0179521
-0.0177981
-0.0184766
-0.0161045
-0.0170917
-0.0169474
-0.0166656
-0.0175769
-0.019418
-0.0212483
-0.0182546
-0.0185242
-0.0197748
-0.0181126
-0.0201707
-0.0183721
-0.0174766
-0.0193268
-0.0205828
-0.0188226
-0.017196
-0.0202649
-0.0197647
-0.0186728
-0.0209376
-0.0210261
-0.0229843
-0.0199997
-0.0199165
-0.0212065
-0.0221825
-0.133168
-0.116116
-0.148554
-0.121082
-0.123483
-0.124699
-0.131992
-0.132496
-0.0877957
-0.0746962
-0.097513
-0.0806649
-0.0923699
-0.0879885
-0.0897603
-0.0932731
-0.17568
-0.109435
-0.164576
-0.128243
-0.162682
-0.172038
-0.161908
-0.167611
-0.0792308
-0.0624226
-0.0793434
-0.0291712
-0.0619072
-0.0830805
-0.0474018
-0.0636645
-0.119317
-0.145215
-0.103833
-0.08483
-0.111767
-0.125086
-0.0893655
-0.111671
-0.111632
-0.0851787
-0.0985613
-0.152208
-0.107269
-0.102739
-0.108874
-0.10729
-0.146646
-0.104529
-0.0828515
-0.0984839
-0.121954
-0.107549
-0.108455
-0.0936074
-0.155431
-0.114043
-0.0820347
-0.102317
-0.143659
-0.122425
-0.11461
-0.0896224
-0.0727932
-0.130111
-0.0380225
-0.0658403
-0.072758
-0.124007
-0.0971563
-0.0760899
-0.142592
-0.105189
-0.0657295
-0.0871788
-0.108604
-0.0877906
-0.0969683
-0.0805124
-0.0337648
-0.0455661
-0.0341455
-0.034939
-0.0305058
-0.0400203
-0.0361677
-0.0374827
-0.0347468
-0.0520333
-0.0298072
-0.0247874
-0.0355172
-0.0429436
-0.0278706
-0.0318956
-0.0894867
-0.0366862
-0.0519637
-0.0595233
-0.094678
-0.0656791
-0.0725781
-0.0722043
-0.0806811
-0.0778598
-0.0595432
-0.0523192
-0.0812966
-0.0767285
-0.0537652
-0.0496728
-0.0472901
-0.044764
-0.060311
-0.0389915
-0.0280968
-0.0458902
-0.0340379
-0.0415845
-0.0492418
-0.040381
-0.0564119
-0.055336
-0.0504448
-0.0419807
-0.0564264
-0.0455746
-0.0342153
-0.0543004
-0.0551594
-0.0580871
-0.0503553
-0.0551066
-0.0560365
-0.058495
-0.0592056
-0.0564636
-0.074493
-0.060592
-0.0609577
-0.0646334
-0.0652799
-0.068322
-0.09032
-0.10455
-0.130189
-0.114961
-0.104458
-0.11084
-0.116308
-0.117306
-0.0745037
-0.0656966
-0.0914021
-0.0738882
-0.0749342
-0.0757855
-0.0803134
-0.0825365
-0.0623422
-0.0809899
-0.0720688
-0.0656881
-0.0684633
-0.0681716
-0.0668435
-0.0750299
-0.0658696
-0.0667224
-0.0851757
-0.0847993
-0.0701001
-0.0673964
-0.0744536
-0.0821228
-0.0875643
-0.0776514
-0.0687493
-0.098723
-0.0797848
-0.0801422
-0.0902311
-0.0745129
-0.0892287
-0.101669
-0.0699928
-0.0880672
-0.0916766
-0.0932678
-0.0891301
-0.0826368
-0.113238
-0.0994202
-0.090051
-0.0909249
-0.11306
-0.106384
-0.0979441
-0.0935022
-0.0741013
-0.0551212
-0.057449
-0.0533515
-0.0661903
-0.0622598
-0.0611004
-0.0559003
-0.0523761
-0.0492775
-0.0281216
-0.0277645
-0.0509599
-0.0498069
-0.0332126
-0.0335764
-0.0526146
-0.0440956
-0.0261121
-0.0274047
-0.0474848
-0.0450523
-0.034933
-0.0336433
-0.0876183
-0.0871823
-0.0865384
-0.0623053
-0.0784343
-0.0867926
-0.0684028
-0.077697
-0.081229
-0.0589987
-0.0621403
-0.0811695
-0.0707362
-0.065909
-0.0718692
-0.0640606
-0.0650061
-0.0601194
-0.0531666
-0.0350021
-0.0490144
-0.0548532
-0.0492919
-0.0481239
-0.0618429
-0.0339832
-0.0498534
-0.0528286
-0.0518922
-0.0465166
-0.0552555
-0.0453491
-0.0137487
-0.0385914
-0.0372201
-0.0311333
-0.0287045
-0.034992
-0.031772
-0.0383271
-0.083027
-0.150079
-0.0845956
-0.0823301
-0.108285
-0.0937712
-0.0837389
-0.0836222
-0.0492303
-0.0608766
-0.0485798
-0.0490571
-0.058148
-0.0571321
-0.0521031
-0.0525425
-0.0427837
-0.0641911
-0.0488171
-0.0483399
-0.0516527
-0.0559946
-0.049871
-0.0532048
-0.0522204
-0.0503596
-0.0418195
-0.0737589
-0.0514288
-0.0456614
-0.0553817
-0.0457452
-0.0634863
-0.0769612
-0.0737493
-0.0474457
-0.0699273
-0.0790618
-0.0645006
-0.0791853
-0.045487
-0.041499
-0.0665198
-0.0506256
-0.0471461
-0.0511792
-0.0540098
-0.0561229
-0.0538417
-0.0526532
-0.0708107
-0.0702268
-0.059403
-0.0572671
-0.0681244
-0.0649774
-0.0140808
-0.0406873
-0.0412088
-0.0299733
-0.0213797
-0.034148
-0.0275729
-0.0389709
-0.0521602
-0.0530347
-0.0654355
-0.0546966
-0.0482568
-0.0517707
-0.0559087
-0.0526745
-0.0877987
-0.0904681
-0.130727
-0.0982427
-0.0805059
-0.0924634
-0.0991397
-0.102906
-0.0474325
-0.0589801
-0.0763188
-0.0624402
-0.0507506
-0.058952
-0.0602004
-0.0631868
-0.0427198
-0.048233
-0.0373716
-0.0524848
-0.0519569
-0.0500993
-0.049829
-0.0503463
-0.0529706
-0.0563715
-0.0664405
-0.0636564
-0.0582574
-0.0592398
-0.0738502
-0.0646475
-0.0565328
-0.045284
-0.0599752
-0.0766813
-0.0615743
-0.0566415
-0.0621841
-0.0600804
-0.0714972
-0.0761298
-0.0582353
-0.0703501
-0.0690745
-0.0691148
-0.0720304
-0.069113
0.0113995
-0.000517466
0.00834012
0.0099601
0.00835095
0.00493757
0.0095935
0.00636048
-0.0134034
-0.0230574
-0.0127318
-0.021925
-0.0181134
-0.0181188
-0.0170108
-0.0173729
0.00638462
-0.00265479
0.00417861
0.00513513
0.00410264
0.00178784
0.00513458
0.00291295
0.00188858
-0.0193046
0.000530752
-0.0122871
-0.00743446
-0.00873681
-0.00529134
-0.00724361
-0.00527622
0.00585175
0.00332818
-0.0145415
-0.00366797
0.00329895
-0.00775233
0.000243104
-0.00699639
-0.0145659
-0.0071437
0.00300277
-0.00574928
-0.0102153
-0.00150361
-0.00549297
0.00684453
0.00535642
-0.0130032
0.003908
0.00723061
0.00186302
0.00200825
-0.00374593
0.00438204
0.000700774
-0.0135757
-0.00605488
0.00176524
-0.000733027
-0.00414047
-0.00770047
-0.087523
-0.0727407
-0.0649481
-0.0774433
-0.0798722
-0.0764914
-0.0791584
-0.0722893
-0.058502
-0.0518222
-0.041263
-0.0448138
-0.0607904
-0.0573234
-0.0502527
-0.0475689
-0.0445937
-0.0341837
-0.0290183
-0.0341653
-0.0361267
-0.0338845
-0.0343931
-0.0317442
-0.0588039
-0.0449589
-0.0396282
-0.0427972
-0.0600143
-0.0492109
-0.0489296
-0.0443674
-0.0791664
-0.0613368
-0.0783161
-0.0580592
-0.0618349
-0.0689283
-0.0598886
-0.0640098
-0.0644079
-0.0482348
-0.0422306
-0.0554728
-0.058728
-0.0497818
-0.0489702
-0.0440949
-0.0559841
-0.060821
-0.0469901
-0.0408187
-0.0497611
-0.0596428
-0.0451662
-0.0498161
-0.0505278
-0.0377126
-0.0423795
-0.0384583
-0.0415975
-0.0419433
-0.0411107
-0.0393065
-0.0280571
-0.0293918
-0.0413666
-0.0333947
-0.028844
-0.032989
-0.0333596
-0.035424
-0.0306233
-0.0374609
-0.055277
-0.040607
-0.0303059
-0.036834
-0.0414514
-0.0424394
-0.0647325
-0.0756026
-0.0939654
-0.0795
-0.0669578
-0.0802247
-0.0821307
-0.0857859
-0.038784
-0.0458687
-0.0593995
-0.0432911
-0.0416091
-0.0484855
-0.0487744
-0.0570329
-0.0305189
-0.0426031
-0.0352346
-0.0395732
-0.0367525
-0.0381139
-0.0379568
-0.0404212
-0.0349675
-0.044822
-0.0581718
-0.0504079
-0.0405809
-0.0429785
-0.0467754
-0.0488949
-0.0531129
-0.0405422
-0.0469387
-0.0654024
-0.047875
-0.0461034
-0.0522816
-0.0479621
-0.0598927
-0.0735705
-0.0519018
-0.0621793
-0.0617496
-0.0594745
-0.0591195
-0.0549221
-0.125332
-0.121166
-0.10944
-0.0785435
-0.0972852
-0.0955055
-0.10236
-0.0869987
-0.13219
-0.15212
-0.123963
-0.0830854
-0.108219
-0.119493
-0.100459
-0.100712
-0.111435
-0.111238
-0.111649
-0.0725801
-0.0899147
-0.0899757
-0.086721
-0.0838704
-0.0584314
-0.0633649
-0.060934
-0.0429374
-0.053064
-0.0672462
-0.0387152
-0.0511552
-0.104745
-0.0898355
-0.0596912
-0.058322
-0.0984412
-0.0865822
-0.0822549
-0.0791148
-0.104968
-0.080401
-0.0973048
-0.0904911
-0.097274
-0.0880888
-0.114191
-0.0946587
-0.092945
-0.0527793
-0.0575568
-0.0528626
-0.0798434
-0.0594387
-0.0562275
-0.0559114
-0.0866402
-0.0555545
-0.0554998
-0.092067
-0.0835126
-0.0777444
-0.0944102
-0.080727
-0.103294
-0.065464
-0.0702471
-0.0639301
-0.0926534
-0.0668323
-0.0869581
-0.0854038
-0.0455026
-0.0341961
-0.0332125
-0.0353844
-0.0446829
-0.0272698
-0.0427528
-0.0384977
-0.0528724
-0.0336638
-0.0322671
-0.0369416
-0.0428437
-0.0253714
-0.0366436
-0.0374935
-0.0463969
-0.0347387
-0.0416605
-0.0383079
-0.0491664
-0.0438792
-0.0459948
-0.0449485
-0.0598172
-0.0710081
-0.0629055
-0.0452692
-0.0550223
-0.0594535
-0.0453057
-0.0621252
-0.0383698
-0.0404759
-0.0261339
-0.0412076
-0.0547992
-0.0366986
-0.0468182
-0.043238
-0.0553901
-0.0552784
-0.0378231
-0.0424153
-0.0428149
-0.0580052
-0.0524761
-0.0438517
-0.0705866
-0.0441854
-0.0389369
-0.0389662
-0.0413085
-0.0429341
-0.0405964
-0.0374278
-0.0464185
-0.0457344
-0.0388139
-0.0463613
-0.0467669
-0.0440776
-0.044766
-0.0424493
-0.0447745
-0.0468813
-0.0395089
-0.0474984
-0.0455818
-0.0431518
-0.0444059
-0.0421074
-0.0330863
-0.0333382
-0.0282441
-0.0293269
-0.0340975
-0.0318014
-0.0307209
-0.0309057
-0.0406551
-0.0391478
-0.029794
-0.0287292
-0.0357392
-0.0354722
-0.0326433
-0.0303227
-0.0455099
-0.0397654
-0.0460853
-0.0466738
-0.0438162
-0.041861
-0.0479572
-0.0444489
-0.0428736
-0.0437606
-0.0368908
-0.0372374
-0.0405915
-0.0425737
-0.0376166
-0.0391818
-0.0385026
-0.0423703
-0.0424513
-0.033178
-0.0383436
-0.0408859
-0.0373753
-0.0404639
-0.0369711
-0.0316344
-0.0384831
-0.0363901
-0.0355544
-0.0362199
-0.0373886
-0.0371413
-0.134035
-0.0790495
-0.0725821
-0.0852707
-0.0917294
-0.0854024
-0.088699
-0.0749247
-0.0566954
-0.0432777
-0.0376546
-0.0412161
-0.0484037
-0.0477476
-0.0445349
-0.0394036
-0.037623
-0.0265076
-0.013666
-0.0274037
-0.0285244
-0.0264878
-0.0252608
-0.0192344
-0.0533499
-0.0383482
-0.037266
-0.0355214
-0.0424952
-0.0417889
-0.0382538
-0.0344117
-0.0679741
-0.0573485
-0.0641836
-0.0444493
-0.0633619
-0.0705922
-0.0603055
-0.0601054
-0.0630332
-0.0429288
-0.0414738
-0.0551542
-0.0505586
-0.0491753
-0.0551137
-0.0397981
-0.0516854
-0.0576493
-0.0432643
-0.0369817
-0.0494925
-0.0486292
-0.0376585
-0.0485046
-0.0397106
-0.0308716
-0.0381821
-0.031974
-0.0428636
-0.0366371
-0.0388529
-0.0355718
-0.0943873
-0.0726248
-0.0600191
-0.0697105
-0.083191
-0.0795537
-0.0792034
-0.0688666
-0.0478615
-0.0286239
-0.0254446
-0.0289423
-0.0195102
-0.0260888
-0.0287523
-0.0218203
-0.0357046
-0.0259919
-0.0255311
-0.0257751
-0.0323484
-0.0288618
-0.0300757
-0.0254892
-0.0421261
-0.0318684
-0.0249686
-0.0241773
-0.0190431
-0.0259077
-0.027653
-0.0211964
-0.0457763
-0.04791
-0.0418607
-0.0213206
-0.0477619
-0.0609146
-0.0441217
-0.0493149
-0.0491641
-0.0272246
-0.0287901
-0.042127
-0.036004
-0.0412902
-0.0374699
-0.0333852
-0.0439654
-0.0461146
-0.0325525
-0.0302492
-0.0400557
-0.0391057
-0.0322201
-0.0407867
-0.0328011
-0.0238093
-0.0226502
-0.0241929
-0.0388429
-0.0280699
-0.0297139
-0.0247801
-0.0270246
-0.0329811
-0.0421516
-0.0288802
-0.0275043
-0.0332693
-0.0327623
-0.0361814
-0.0406628
-0.0485221
-0.0599233
-0.0464285
-0.042433
-0.0528144
-0.0483053
-0.0552829
-0.065985
-0.0781178
-0.0938153
-0.0751015
-0.0686334
-0.0803902
-0.0807816
-0.0877415
-0.0309104
-0.0394269
-0.0502657
-0.0364038
-0.0290698
-0.0388002
-0.0345816
-0.0343181
-0.0357568
-0.0412153
-0.027869
-0.0367742
-0.0397035
-0.039191
-0.0359942
-0.0363272
-0.041309
-0.0465685
-0.0661608
-0.0528367
-0.0431819
-0.0487458
-0.0492519
-0.0496521
-0.0486287
-0.0358919
-0.0434645
-0.0521319
-0.0515736
-0.0397576
-0.0510391
-0.0442801
-0.0584763
-0.0575266
-0.0477981
-0.0808078
-0.064224
-0.0578378
-0.0594149
-0.0544748
-0.134477
-0.152112
-0.121953
-0.120251
-0.147576
-0.141151
-0.132498
-0.135327
-0.149166
-0.147938
-0.114409
-0.11954
-0.136844
-0.157632
-0.127519
-0.130267
-0.0811897
-0.0837305
-0.0425107
-0.0752975
-0.0801689
-0.0718024
-0.06524
-0.0612245
-0.102372
-0.107288
-0.0832466
-0.0771734
-0.0939095
-0.0961072
-0.0828718
-0.0869238
-0.140211
-0.118702
-0.113647
-0.111932
-0.123541
-0.125372
-0.115854
-0.110988
-0.141347
-0.109853
-0.106846
-0.112416
-0.125591
-0.121199
-0.12336
-0.115629
-0.0991475
-0.100082
-0.0986666
-0.0830919
-0.0981657
-0.100152
-0.0962815
-0.0993322
-0.0953454
-0.0836777
-0.102902
-0.0940671
-0.0910373
-0.0897329
-0.0954748
-0.106261
-0.1051
-0.10036
-0.0903784
-0.0976991
-0.114843
-0.103814
-0.0970736
-0.0966921
-0.109541
-0.120094
-0.0888282
-0.104252
-0.12123
-0.11538
-0.103246
-0.105619
-0.0627377
-0.0584272
-0.0381275
-0.0511599
-0.0589331
-0.0523193
-0.0482761
-0.0467475
-0.0778096
-0.0774002
-0.05859
-0.0562973
-0.0675163
-0.0707734
-0.0627723
-0.06486
-0.109869
-0.0807029
-0.0912646
-0.0964322
-0.0972699
-0.0920554
-0.10179
-0.0920891
-0.101565
-0.0914862
-0.0844477
-0.07888
-0.096927
-0.0972003
-0.0894025
-0.0889572
-0.0756078
-0.0810033
-0.0823902
-0.0583885
-0.070259
-0.080174
-0.0658944
-0.0752202
-0.0739693
-0.0601665
-0.0840169
-0.0778341
-0.0691317
-0.0645518
-0.0771041
-0.0709617
-0.0131867
-0.0245947
-0.0371004
-0.0254427
-0.0183782
-0.0225734
-0.0301944
-0.0289856
-0.034052
-0.0424862
-0.0626109
-0.06126
-0.044649
-0.048914
-0.0648828
-0.0484598
-0.0726814
-0.0922841
-0.127144
-0.0905518
-0.0921938
-0.0978659
-0.102245
-0.0739116
-0.0374196
-0.0444023
-0.0542279
-0.0358896
-0.0384319
-0.0427213
-0.0426385
-0.0468799
-0.029848
-0.0437504
-0.0315607
-0.0505668
-0.0451513
-0.0421631
-0.0360191
-0.036507
-0.0337359
-0.0580627
-0.073511
-0.0512938
-0.0407833
-0.0616465
-0.052387
-0.0671203
-0.0559771
-0.042209
-0.0598459
-0.0631552
-0.0498608
-0.0434958
-0.0585949
-0.051517
-0.0585483
-0.0769759
-0.0650622
-0.0579515
-0.0802536
-0.0634689
-0.086216
-0.0662074
0.0925267
0.0643392
0.0801416
0.0430748
0.0729146
0.0766324
0.0649594
0.0621136
0.0343873
-0.00259515
-0.0241567
0.00533237
0.00850142
-0.00119899
0.000408422
-0.0113922
0.02691
-0.0387402
-0.0766071
-0.0031878
-0.0292225
-0.0295264
-0.0422279
-0.0355794
0.0186507
0.0024217
-0.000122038
0.00143044
0.00591338
0.00566973
0.0015506
0.00250195
0.0355408
0.035281
0.0276301
0.00628224
0.0281761
0.025892
0.0203847
0.0296396
0.0364055
0.0078443
-0.0244242
0.0240514
0.0233269
0.00777276
0.0331706
-0.00301803
0.0192237
0.0227227
0.00289302
-0.00204411
0.0248169
0.025033
0.00284747
0.000315473
0.00881914
-0.00106338
0.00532462
-0.0371157
-0.0122442
0.00226056
-0.0148176
-0.00333054
-0.00400226
-0.00878622
-0.00909539
-0.00875188
-0.00630235
-0.0081077
-0.00783664
-0.00905759
-0.014192
-0.019224
-0.0173021
-0.0176279
-0.0163586
-0.0176407
-0.0167886
-0.0177843
-0.0131305
-0.0162703
-0.015861
-0.0156278
-0.0146636
-0.0155358
-0.0149413
-0.0157184
-0.0140555
-0.0176941
-0.0164778
-0.0186802
-0.0162528
-0.0162297
-0.0165547
-0.017119
-0.0113628
-0.0114377
-0.0114615
-0.0158027
-0.012575
-0.0111931
-0.0135066
-0.0121899
-0.012943
-0.0161203
-0.0164302
-0.0123618
-0.0137445
-0.0152886
-0.0132792
-0.015267
-0.0123149
-0.0126119
-0.0162316
-0.0154498
-0.0128997
-0.0134654
-0.0151388
-0.0150705
-0.0131817
-0.0159853
-0.0167716
-0.0162736
-0.014867
-0.015556
-0.0155851
-0.0162169
-0.035852
-0.030434
-0.0329663
-0.0363252
-0.0377639
-0.0347812
-0.0400226
-0.0354996
-0.0256056
-0.0206769
-0.0223809
-0.0231294
-0.0242292
-0.0234856
-0.0235661
-0.0231365
-0.0297613
-0.0239018
-0.024587
-0.0290794
-0.0291289
-0.0252697
-0.0291095
-0.0261748
-0.0343365
-0.0279802
-0.033152
-0.0343725
-0.0348578
-0.0320583
-0.0349087
-0.0336285
-0.0303098
-0.0331401
-0.0380066
-0.0282108
-0.0300074
-0.0321078
-0.0291587
-0.033013
-0.0288652
-0.0261672
-0.0246973
-0.0301032
-0.02866
-0.0251074
-0.026826
-0.0262397
-0.034827
-0.0391417
-0.0288036
-0.0331437
-0.0323713