/*--------------------------------*- C++ -*----------------------------------*\
| =========                 |                                                 |
| \\      /  F ield         | OpenFOAM: The Open Source CFD Toolbox           |
|  \\    /   O peration     | Version:  2506                                  |
|   \\  /    A nd           | Website:  www.openfoam.com                      |
|    \\/     M anipulation  |                                                 |
\*---------------------------------------------------------------------------*/
FoamFile
{
    version     2.0;
    format      ascii;
    arch        "LSB;label=32;scalar=64";
    class       volVectorField;
    location    "800";
    object      U;
}
// * * * * * * * * * * * * * * * * * * * * * * * * * * * * * * * * * * * * * //

dimensions      [0 1 -1 0 0 0 0];

internalField   nonuniform List<vector> 
57600
(
(-0.0933471 -0.00453743 1.05853)
(-0.116899 0.00729803 1.17109)
(-0.050254 -0.0223099 1.0926)
(-0.0872785 -0.00289263 1.09581)
(-0.10373 -0.00584391 1.0781)
(-0.117492 -0.0168332 1.10586)
(-0.0704285 0.00619334 1.06248)
(-0.0934161 -0.012816 1.08191)
(-0.0770364 -0.00599077 1.34628)
(0.121081 -0.030622 1.56083)
(-0.100512 0.0273127 1.19383)
(-0.0368104 0.0240762 1.3652)
(-0.109691 0.010711 1.38917)
(-0.181952 -0.0755679 1.4729)
(-0.0155923 0.0552872 1.33755)
(-0.00741228 0.0654992 1.34599)
(-0.0182679 -0.0149152 1.11325)
(-0.0145694 0.00297907 1.06197)
(-0.0258013 -0.0166668 1.06244)
(-0.00177221 0.00204727 1.07128)
(-0.0259323 -0.00831087 1.11463)
(-0.0227127 -0.00894402 1.11989)
(-0.0161177 -0.00916048 1.09763)
(-0.00688394 0.00184026 1.10893)
(-0.0578853 -0.00332188 1.12299)
(-0.0336967 0.0140856 1.18109)
(-0.0267113 0.00131283 1.09128)
(-0.0186927 0.0251424 1.11726)
(-0.0585629 -0.00328825 1.12911)
(-0.0617174 -0.0104752 1.13019)
(-0.0254048 0.0166955 1.11701)
(-0.0403894 0.00249789 1.11725)
(-0.11553 0.0150952 1.18933)
(-0.0562454 -0.0160166 1.09716)
(-0.0874447 -0.00371218 1.1098)
(-0.082447 -0.00404378 1.24631)
(-0.100961 0.0246466 1.18878)
(-0.11368 0.00205616 1.10606)
(-0.0884793 -0.000424857 1.24084)
(-0.0932689 -0.00757114 1.11284)
(-0.112302 0.00462076 1.21535)
(-0.0875499 -0.00970551 1.26933)
(-0.0366712 0.0216497 1.23394)
(-0.0479255 -0.00417184 1.11093)
(-0.0865992 0.0298476 1.19334)
(-0.113328 0.0270108 1.23192)
(-0.0348004 0.0133487 1.16565)
(-0.0490975 0.0379352 1.2016)
(-0.0706752 -0.0107251 1.09417)
(-0.0525182 0.0153191 1.11335)
(-0.0235487 0.0137476 1.21725)
(-0.0426614 0.0040537 1.10775)
(-0.0494406 -0.00384823 1.09698)
(-0.07328 0.000641135 1.12647)
(-0.0475717 0.00498427 1.10799)
(-0.0759668 0.000695981 1.12887)
(-0.0421058 -0.00326921 1.09742)
(-0.0239032 -0.00746356 1.10471)
(-0.0343176 0.0125877 1.23553)
(-0.0152756 0.0116588 1.22383)
(-0.0499731 0.00126487 1.09532)
(-0.0403035 -0.0108108 1.10482)
(-0.0411097 -0.00245757 1.17915)
(-0.0505473 0.00584339 1.10881)
(0.0155164 0.00369315 1.00938)
(0.0241285 0.00284284 1.02917)
(0.0558688 0.00670345 1.04189)
(0.0237975 0.00323053 1.03355)
(0.0118071 0.00396645 1.01057)
(0.0251114 0.00312559 1.02052)
(0.0280035 0.000875341 1.01835)
(0.0323328 -0.00132597 1.02904)
(0.0146948 -0.00112878 1.05183)
(-0.00525545 -0.0172779 1.05328)
(0.00439481 -0.0104106 1.06496)
(0.00424732 0.0124444 1.0608)
(0.00778052 -0.000190116 1.04681)
(0.000187388 -0.0131654 1.07336)
(0.00752377 0.00704284 1.0711)
(-0.00848975 -0.000814826 1.08207)
(0.120497 0.00946438 1.15185)
(0.14156 -0.0300942 1.04766)
(0.428449 0.0866403 1.39188)
(0.0889716 -0.0672192 1.20172)
(0.097729 -0.0072057 1.13892)
(0.126464 -0.00990938 1.2221)
(0.178162 0.01913 1.32095)
(0.0433154 0.0270874 1.17635)
(0.0160233 0.00417971 1.06516)
(0.000333676 -0.0161454 1.06283)
(0.0331688 0.00680641 1.13933)
(-0.0137889 0.0245728 1.11824)
(0.0103303 0.00337077 1.05674)
(0.00226234 0.00125603 1.08806)
(0.00788949 0.0278455 1.10321)
(-0.0121865 0.0234843 1.11015)
(0.0175039 0.00349389 1.03029)
(0.0447844 0.00605693 1.04551)
(0.0159419 0.00569838 1.03485)
(0.00470357 0.00261794 1.06031)
(0.0336911 0.00116824 1.04656)
(0.0403359 -0.00149127 1.04333)
(0.0191354 0.0043034 1.05955)
(0.0185667 0.00189986 1.04708)
(0.0187533 -0.000773273 1.04495)
(0.0155427 0.00243793 1.0681)
(0.0287545 -0.0130026 1.11238)
(0.0535625 0.00236996 1.07165)
(0.0279358 -0.00191771 1.0569)
(0.0237816 -0.00430428 1.07246)
(0.052521 0.00574285 1.08797)
(0.0393253 0.00134383 1.08321)
(0.0821717 0.0109454 1.07867)
(0.0317157 0.0100892 1.05596)
(0.0156149 -0.0002948 1.07929)
(0.0227952 0.0318288 1.15978)
(0.0502563 -0.0017057 1.10299)
(0.0234657 0.0067786 1.06061)
(0.0394354 5.45667e-05 1.09134)
(0.0125691 0.00818155 1.07592)
(0.0740221 0.000941261 1.10439)
(0.0126218 0.0307986 1.15867)
(-0.00998661 -0.00441387 1.0662)
(0.00826513 -0.0141935 1.0983)
(0.0801863 0.00227381 1.12788)
(0.0396196 -0.0083733 1.14077)
(0.0749609 -0.00814309 1.14887)
(0.0775137 -0.0230514 1.08067)
(-0.100512 -0.0101631 1.05582)
(-0.121662 0.000416726 1.09094)
(-0.123145 0.00862804 1.16658)
(-0.0954979 -0.00827569 1.08852)
(-0.102952 -0.0133603 1.04518)
(-0.121718 -0.000682109 1.09594)
(-0.101095 -0.00761134 1.07999)
(-0.125287 0.00194188 1.13035)
(-0.165029 0.00293422 1.12027)
(-0.232918 0.0164161 1.13078)
(-0.256796 0.0257215 1.15771)
(-0.171458 0.0224763 1.14167)
(-0.172678 -0.000879995 1.1518)
(-0.214614 -0.00550351 1.11826)
(-0.18333 -0.00706985 1.17612)
(-0.24556 -0.0159673 1.14817)
(-0.106442 0.00113942 1.33241)
(-0.279534 0.0477732 1.31489)
(-0.209299 -0.041716 1.34718)
(-0.127466 0.0229042 1.36755)
(-0.147683 -0.00806867 1.37479)
(-0.179444 0.0291979 1.30696)
(-0.11824 -0.00413774 1.3837)
(-0.21154 0.0534634 1.3015)
(-0.0715522 -6.65968e-05 1.12133)
(-0.103391 0.0265543 1.15854)
(-0.0871689 0.00937074 1.19862)
(-0.0458137 0.0256656 1.12518)
(-0.072977 -0.00145794 1.11157)
(-0.0829879 0.013446 1.15273)
(-0.0506351 0.00717724 1.12576)
(-0.0823405 0.0105558 1.16776)
(-0.119263 -0.0177945 1.09002)
(-0.116619 -0.00616871 1.157)
(-0.0917089 -0.010295 1.0707)
(-0.120488 -0.013088 1.13343)
(-0.128528 -0.0149085 1.13314)
(-0.126971 -0.00619967 1.14607)
(-0.122337 -9.95032e-05 1.12301)
(-0.113014 0.00174429 1.13835)
(-0.152803 0.00272477 1.1297)
(-0.166555 0.0116594 1.15516)
(-0.240327 0.00733119 1.21136)
(-0.130958 0.00554662 1.21496)
(-0.17055 0.0149469 1.17454)
(-0.193471 -0.00731414 1.21291)
(-0.165497 -0.00387227 1.2124)
(-0.173281 -0.0139022 1.25016)
(-0.108983 -0.0117767 1.1999)
(-0.0845239 -0.00272951 1.1108)
(-0.118531 -0.00203766 1.1669)
(-0.0717231 0.00817228 1.20496)
(-0.116472 -0.00571501 1.22854)
(-0.116117 -0.00283417 1.172)
(-0.134131 -0.0156417 1.1948)
(-0.12516 -0.00736857 1.16915)
(-0.14922 0.00491732 1.27184)
(-0.118447 0.0177449 1.29455)
(-0.17412 0.0167967 1.19678)
(-0.26043 0.0171936 1.21376)
(-0.162392 -0.00684441 1.31872)
(-0.117468 0.0155319 1.26696)
(-0.176491 -0.0230084 1.27859)
(-0.183952 0.0164455 1.24755)
(-0.0246649 0.0462286 1.59156)
(0.074762 -0.00166097 1.2514)
(0.118529 -0.00304503 1.41656)
(0.030688 -0.0137117 1.34217)
(0.122381 0.0200236 1.55058)
(0.0938988 -0.0102267 1.41653)
(0.0874287 0.0311087 1.51707)
(0.120325 -0.0011937 1.4469)
(0.0271724 -0.00110941 1.08522)
(0.0182969 0.0271052 1.07815)
(0.0176957 0.024939 1.10886)
(0.0178579 -0.00519414 1.05543)
(-0.0115378 0.00687242 1.10803)
(0.00701734 0.0140122 1.09932)
(0.00198668 0.0223468 1.09638)
(0.0114229 0.0222691 1.10153)
(0.106752 0.0141979 1.16049)
(0.0521711 0.0196097 1.08852)
(0.0805516 0.0123442 1.04524)
(0.0795175 0.0169835 1.09453)
(0.0829339 0.0172209 1.09956)
(0.0650852 0.0204667 1.0751)
(0.0951397 0.0171611 1.07471)
(0.083221 0.0122559 1.06947)
(0.0246647 -0.00366028 1.17941)
(0.0350102 0.0233519 1.08299)
(0.0540286 0.0139514 1.14067)
(0.0105834 -0.0118584 1.12688)
(0.0560798 -0.000567233 1.15953)
(0.0539592 0.00506455 1.12805)
(0.0431842 0.00974282 1.16497)
(0.0516226 0.00981527 1.14474)
(-0.0138985 -0.0116026 1.30514)
(0.115786 -0.00571973 1.2393)
(0.048616 -0.0193517 1.32087)
(0.0122988 0.019735 1.13692)
(0.0254252 0.0181627 1.24042)
(0.0731048 -0.00487695 1.23286)
(0.0408244 0.0278596 1.12048)
(0.0558131 -0.0177445 1.24993)
(0.0142456 -0.0107584 1.22301)
(0.0247864 0.00237841 1.10203)
(0.0273931 0.0215097 1.09892)
(0.0656236 0.0099588 1.21205)
(0.0354636 0.00705467 1.22617)
(0.033623 0.0258933 1.1042)
(0.0457858 0.0129903 1.22054)
(0.0448907 0.0215199 1.10837)
(0.112503 0.00507744 1.20286)
(0.0472283 0.0244428 1.28064)
(0.0268911 0.0262421 1.12382)
(0.0714318 0.0175787 1.11607)
(0.0808903 0.00554035 1.24314)
(0.0703235 0.0118887 1.25698)
(0.0716458 0.0166605 1.13102)
(0.0587345 0.0145804 1.12581)
(0.113155 0.0147843 1.17695)
(0.0796557 0.0178749 1.10095)
(0.0338949 0.0109766 1.10617)
(0.0528242 0.0156671 1.09069)
(0.0713711 0.0227054 1.10167)
(0.0644765 0.0110742 1.11354)
(0.0536814 0.0227496 1.10276)
(0.0312686 0.0151733 1.10141)
(-0.077641 0.000455311 1.00814)
(-0.0552896 0.00330295 1.02273)
(-0.0694084 -0.00645156 1.00232)
(-0.0733506 -0.00549578 1.03762)
(-0.0755287 0.00359571 1.00839)
(-0.0643501 -0.00227818 1.02064)
(-0.0762923 -0.000337632 1.02267)
(-0.0714999 -0.00390062 1.02354)
(-0.0279771 -0.00760949 1.05223)
(-0.0216946 -0.000522015 1.04963)
(-0.040087 2.2228e-05 1.03713)
(-0.0196598 -0.00704523 1.05715)
(-0.0302713 -0.00673768 1.04255)
(-0.0265611 -0.00149571 1.04304)
(-0.0311753 -0.00657067 1.03926)
(-0.033316 -0.00476054 1.03368)
(-0.0563431 -0.000902921 1.00534)
(-0.0476543 -0.00176684 1.02188)
(-0.0480017 -0.00198954 1.01368)
(-0.0488906 -0.00186826 1.03266)
(-0.0519259 -0.00176432 1.01012)
(-0.0499667 -0.00316287 1.0154)
(-0.048748 0.000468072 1.01736)
(-0.046544 -0.00349739 1.01128)
(-0.0602134 0.00169322 1.07489)
(-0.0240545 0.00442406 1.06471)
(-0.0500512 0.000470356 1.06357)
(-0.0267077 0.0103022 1.09484)
(-0.0414854 0.0103994 1.06887)
(-0.0416018 -0.000101838 1.06366)
(-0.037237 0.00890476 1.06711)
(-0.0379399 0.00760513 1.05631)
(-0.0564151 -0.00264365 1.03419)
(-0.0624923 -0.00557808 1.00744)
(-0.0694907 0.00154552 1.04738)
(-0.044494 -0.000508616 1.05489)
(-0.0632129 0.00034673 1.0344)
(-0.0661777 -0.00364361 1.0355)
(-0.0504982 -0.00152408 1.05977)
(-0.060786 -0.00493934 1.04841)
(-0.0392876 -0.0097497 1.04172)
(-0.035092 -0.00645276 1.04741)
(-0.0464068 -0.00268247 1.02896)
(-0.0627843 -0.00461565 1.01039)
(-0.0520433 -0.0122966 1.03356)
(-0.0429385 -0.0150847 1.04422)
(-0.0602094 -0.00251396 1.02084)
(-0.0453525 -0.00350835 1.024)
(-0.0615388 -0.00264881 1.02069)
(-0.0588264 -0.00155857 1.04858)
(-0.0427659 0.0054265 1.05269)
(-0.049915 0.00186923 1.04506)
(-0.0674407 -0.00280671 1.03209)
(-0.0582595 0.00265955 1.04501)
(-0.0513731 -0.00284034 1.03948)
(-0.0441556 0.00100412 1.05702)
(-0.0538613 -0.00149339 1.0181)
(-0.0481906 0.000417637 1.0314)
(-0.0381535 -0.00318763 1.0396)
(-0.044151 -0.00247109 1.02185)
(-0.0551355 -0.00103511 1.0268)
(-0.0527249 -0.00421095 1.03724)
(-0.0477764 0.00103777 1.02561)
(-0.0474554 -0.000192868 1.04613)
(0.150447 -0.0270222 1.33202)
(0.0888481 -0.0364221 1.26443)
(0.0948981 -0.0255685 1.23768)
(0.102225 -0.0172417 1.19476)
(0.117784 -0.0200548 1.33259)
(0.0996166 -0.035953 1.26727)
(0.111818 -0.0151421 1.27685)
(0.101841 -0.0281352 1.25002)
(0.0473318 -0.0320395 1.16892)
(0.00726356 6.95611e-05 1.11027)
(0.0341112 -0.0140253 1.12449)
(0.00900685 -0.00630168 1.13777)
(0.0231792 -0.00132176 1.17387)
(0.0316367 -0.00855139 1.13473)
(0.0213648 0.00444849 1.17869)
(0.035711 -0.00191885 1.13268)
(0.10965 -0.00861953 1.12679)
(0.0590643 -0.00163917 1.108)
(0.0755814 0.00121229 1.0709)
(0.0584044 0.0158391 1.10686)
(0.0636595 0.022839 1.13042)
(0.0720216 0.00272302 1.11383)
(0.0700622 0.016076 1.11359)
(0.0762435 0.0039311 1.09593)
(0.0524196 0.0221591 1.16412)
(0.0187513 0.0148737 1.11828)
(0.0451765 0.0132934 1.11803)
(0.0221095 -0.0104812 1.1326)
(0.0324405 0.0206296 1.19824)
(0.0326098 0.018852 1.13131)
(0.0362331 0.0141068 1.18952)
(0.0343952 0.0212694 1.14144)
(0.070008 -0.00881049 1.2742)
(0.0794881 0.00387913 1.2066)
(0.0652089 0.00550995 1.24531)
(0.0287595 0.018819 1.16821)
(0.0709477 0.0101828 1.24428)
(0.0781325 0.00486748 1.20386)
(0.0360717 0.00790761 1.13726)
(0.0472087 0.00287374 1.13888)
(0.0722188 -0.0347536 1.19587)
(0.0193697 -0.00259382 1.15728)
(0.0560681 -0.00348973 1.13823)
(0.116228 -0.0154152 1.17064)
(0.0732489 -0.017209 1.20007)
(0.0245677 0.00688579 1.1771)
(0.11697 -0.00949114 1.1606)
(0.0387279 0.0131849 1.16277)
(0.0656509 -0.000650902 1.16522)
(0.0684477 0.0167941 1.22401)
(0.041341 0.0223004 1.15012)
(0.0559876 0.0240985 1.12391)
(0.0655191 0.00133672 1.13482)
(0.065704 0.0240668 1.1622)
(0.054131 0.0301416 1.14769)
(0.0437165 0.0222276 1.14103)
(0.103213 -0.0181711 1.16096)
(0.0573861 0.0237346 1.11829)
(0.0396016 0.00630736 1.13856)
(0.0627078 0.000152977 1.11869)
(0.0546382 0.0195512 1.14718)
(0.0472924 0.0146908 1.14067)
(0.051688 0.0118795 1.15111)
(0.0352793 0.0106024 1.13099)
(-0.02342 0.00286085 1.03885)
(-0.0275276 -0.00265896 1.03854)
(-0.0155951 0.00135948 1.04123)
(-0.022374 0.00143503 1.02983)
(-0.0190515 -0.0038746 1.03907)
(-0.0245086 -0.00165016 1.04095)
(-0.0125929 0.000712728 1.03796)
(-0.0263616 0.000156116 1.03974)
(-0.0380887 -0.000810636 1.0272)
(-0.0426904 -0.00191498 1.02218)
(-0.0435137 0.000283481 1.03993)
(-0.0339246 -0.000203246 1.02812)
(-0.0413626 -2.71542e-06 1.01932)
(-0.0436777 -0.00409441 1.02198)
(-0.0371793 -4.0427e-06 1.0285)
(-0.0418961 -0.00372145 1.02381)
(-0.0280765 0.011141 1.05546)
(-0.0269808 0.0106757 1.06826)
(-0.0137353 0.014565 1.077)
(-0.0201681 0.00899455 1.05398)
(-0.0234698 0.00375718 1.05575)
(-0.0250927 0.01056 1.06691)
(-0.0162223 0.0101614 1.05431)
(-0.0270261 0.0114322 1.06806)
(-0.0175295 0.00320561 1.02381)
(-0.0232293 0.00368453 1.03131)
(-0.015843 0.00653466 1.03368)
(-0.0153545 0.00711124 1.02104)
(-0.0188952 0.00129757 1.02103)
(-0.0178722 0.00338976 1.02875)
(-0.0106705 0.00624411 1.02074)
(-0.0150449 0.00571225 1.03052)
(-0.0410172 -0.00221291 1.02613)
(-0.018982 -0.00408221 1.04939)
(-0.0175753 -0.00212733 1.0281)
(-0.0321206 -0.00080881 1.02359)
(-0.0291132 2.28294e-05 1.02772)
(-0.0279049 -0.00329184 1.02913)
(-0.0287577 0.000308538 1.02888)
(-0.0220558 0.000225987 1.02922)
(-0.0388747 -0.00116055 1.02984)
(-0.0304107 0.0018536 1.02887)
(-0.0436251 0.00321588 1.0414)
(-0.0271567 -0.00213918 1.05242)
(-0.0330411 -0.000799307 1.02872)
(-0.0364802 0.00096312 1.02765)
(-0.0298639 -0.00100552 1.04918)
(-0.0416061 0.00346986 1.03459)
(-0.0119304 0.0003536 1.04468)
(-0.0124055 0.00181052 1.02673)
(-0.0258887 0.00409988 1.02564)
(-0.0129696 0.00681098 1.03314)
(-0.0222741 0.00402184 1.03757)
(-0.0209692 0.00196105 1.03149)
(-0.0181018 -0.000452518 1.03569)
(-0.0236652 0.0013774 1.02436)
(-0.0281683 0.00466596 1.04656)
(-0.0189764 0.0071022 1.04629)
(-0.0290476 0.00334534 1.0308)
(-0.0427435 0.000893413 1.04233)
(-0.0288614 0.000992909 1.04098)
(-0.0221396 0.00522291 1.04325)
(-0.0343229 0.00645716 1.04041)
(-0.0302114 0.00413883 1.04556)
(-0.368717 0.0118361 1.55082)
(-0.118763 0.0432361 1.17751)
(-0.156771 -0.00452124 1.17717)
(-0.0768822 -0.087227 1.20816)
(-0.152132 -0.0446354 1.35814)
(-0.167194 0.0387084 1.21723)
(-0.110819 0.00944031 1.26636)
(-0.114499 0.0581729 1.29651)
(-0.0589256 0.000284157 1.0573)
(-0.0126117 -0.00199825 1.00759)
(-0.0193026 -0.00117073 1.03099)
(-0.0250126 -0.00673889 1.03633)
(-0.0330067 -0.0042728 1.02413)
(-0.0212262 -0.00413836 1.01181)
(-0.0329202 -0.00444555 1.02628)
(-0.0199117 -0.00600354 1.01803)
(-0.0298648 0.0169125 1.05686)
(-0.0153505 0.00910306 1.05685)
(0.00804151 0.0248146 1.05396)
(0.00957269 0.00071011 1.06868)
(-0.023164 0.0117585 1.06966)
(-0.00895686 0.0109517 1.05865)
(0.0141916 0.00624017 1.09193)
(-0.00703153 0.0195944 1.06899)
(-0.0112065 -0.00509623 1.12105)
(-0.0210933 -0.0139524 1.08007)
(0.023363 0.015841 1.07481)
(-0.00127901 -0.012023 1.1132)
(-0.0118663 -0.0184827 1.11971)
(-0.00896387 -0.0046689 1.07899)
(-0.00375513 -0.000142994 1.11489)
(0.00348873 -0.00137183 1.10205)
(-0.0808218 -0.00427323 1.10491)
(-0.0852572 0.00135211 1.1817)
(-0.0506001 -0.0394596 1.1829)
(-0.0307204 -0.0118841 1.07226)
(-0.0819068 -0.00196438 1.11493)
(-0.0511469 0.019028 1.13874)
(-0.0584485 -0.00966077 1.11094)
(-0.0558485 0.0111029 1.11723)
(-0.071222 0.00804684 1.0667)
(-0.0337996 -0.00192669 1.03735)
(-0.0247614 -0.000331654 1.03629)
(-0.0519923 -0.00212738 1.10184)
(-0.0599229 0.0135043 1.08033)
(-0.0386512 0.00159428 1.03798)
(-0.0609856 -0.00371721 1.09601)
(-0.0296417 -0.00601067 1.05727)
(0.00550637 0.00384746 1.17233)
(0.0069216 0.000112504 1.16648)
(-0.0331119 -0.00732727 1.07398)
(-0.00846029 0.0195622 1.07549)
(-0.0164787 0.00883307 1.1274)
(-0.0375089 0.0408017 1.14687)
(-0.00685305 -0.00282503 1.09806)
(-0.0147064 3.38341e-05 1.08451)
(-0.0341848 0.0268937 1.12915)
(-0.0046679 0.0237537 1.07305)
(-0.027599 0.00791967 1.0403)
(-0.0157325 0.00621446 1.04407)
(-0.0109907 0.0103314 1.07262)
(-0.0170741 0.00759857 1.06427)
(-0.0279755 0.000296447 1.0646)
(-0.0186384 0.00202567 1.06529)
(0.0154267 0.000623222 1.03873)
(0.00826914 -0.00222982 1.01718)
(0.010951 0.00587736 1.02157)
(0.0122058 -0.00382427 1.0256)
(0.0140517 0.000693829 1.02856)
(0.0110034 0.00194417 1.01722)
(0.0116645 0.00240864 1.03168)
(0.0107772 0.00585147 1.02036)
(0.00312673 0.00039017 1.00794)
(-0.00158454 0.00325448 1.00632)
(-0.000949452 0.0024414 1.00506)
(-0.00331392 0.000444284 1.00791)
(0.000121234 0.0020618 1.00725)
(-6.5734e-05 0.00374755 1.00602)
(-0.00168095 0.00220048 1.00709)
(-0.00189129 0.00435184 1.00588)
(0.00887115 0.00687311 1.00636)
(0.000245735 0.00341668 1.00073)
(0.00185247 0.00669806 0.99518)
(-0.001845 0.00119021 1.00362)
(0.00393197 0.00672712 1.00286)
(0.00198669 0.00565217 0.99697)
(0.00151098 0.00638287 1.00265)
(0.000313346 0.00747361 0.997019)
(0.00441621 -0.00464623 1.01816)
(-0.00428139 -0.00332522 1.0104)
(-0.00322223 -0.00266443 1.01047)
(-0.00467511 -0.00835446 1.01602)
(0.000231077 -0.0032725 1.01658)
(-0.00172578 -0.00201932 1.01059)
(-0.00376677 -0.00478688 1.01586)
(-0.00415397 -0.00171922 1.01154)
(0.00586811 -0.000791944 1.01396)
(0.0086898 0.00540774 1.0148)
(0.00785289 -0.00148646 1.02104)
(-0.000976826 -0.000957161 1.00991)
(0.00382888 0.00145936 1.0144)
(0.00629234 0.00293582 1.01354)
(0.00236587 -0.0024206 1.01175)
(0.00593009 0.000244976 1.0133)
(0.00466841 0.00153816 1.00824)
(-0.00140037 0.000302397 1.00851)
(0.00124108 0.00390428 1.00293)
(0.00686053 0.00489681 1.00777)
(0.00348691 0.00299396 1.00968)
(-0.000248419 0.00296592 1.00618)
(0.00500324 0.00257709 1.00909)
(0.00140198 0.00330908 1.00672)
(0.00723636 0.00569034 1.01464)
(0.00491639 -0.00120742 1.02096)
(-0.00261143 -0.000660973 1.01046)
(-0.00163513 0.00113542 1.00897)
(0.00567831 0.00193461 1.01356)
(0.00466867 0.00180134 1.01472)
(0.00138777 0.00244868 1.00916)
(-0.001079 -0.000877375 1.01005)
(0.00602432 0.00622147 1.00879)
(-0.00250198 0.00226868 1.00475)
(-0.00330356 0.000173029 1.00828)
(-0.00085534 0.00468291 1.00254)
(0.000185566 0.00383693 1.00374)
(-0.000752801 0.00115852 1.00467)
(-0.000410621 0.00447368 1.00484)
(-0.00364559 -0.00101956 1.00782)
(0.230364 -0.000155922 1.87657)
(0.103197 0.0959801 1.93445)
(0.173743 0.174589 1.93921)
(0.163524 0.0939643 1.40652)
(0.145094 -0.0642667 1.76622)
(0.196924 0.159076 2.03473)
(0.150465 0.134619 1.69248)
(0.14257 0.186877 1.79696)
(0.0419168 0.115103 1.94792)
(0.00280408 0.102651 1.96012)
(0.0686611 0.154422 2.15553)
(0.0179743 0.0866099 1.61943)
(0.0283994 0.145038 1.93227)
(0.0283365 0.155589 2.05745)
(0.0192367 0.220052 2.02791)
(0.0238738 0.167347 2.03256)
(0.221033 0.190728 2.02374)
(0.126061 0.156118 2.1555)
(0.0970245 0.0737177 2.17161)
(0.0114522 0.123098 1.67919)
(0.157467 0.218406 2.06513)
(0.0930056 0.189566 2.0543)
(-0.0201171 0.340465 1.95616)
(0.0124865 0.268004 2.06813)
(-0.0430914 0.030036 1.32453)
(-0.0161658 0.0374799 1.36465)
(0.0210768 0.0671949 1.36841)
(-0.0367892 0.0387839 1.19996)
(-0.041057 0.030268 1.33382)
(-0.0243624 0.0170283 1.31986)
(-0.0303589 0.0594295 1.30601)
(-0.00710991 0.0465191 1.30771)
(0.0744154 0.11269 1.87833)
(0.153383 0.146908 1.95608)
(0.0918945 0.0880192 1.39053)
(0.0503264 0.066264 1.51031)
(0.0774691 0.209687 1.86896)
(0.0947524 0.201428 1.8092)
(0.0560542 0.0802603 1.49487)
(0.0718849 0.0650854 1.40814)
(0.0848971 0.174919 2.02366)
(0.0210889 0.0514143 1.50783)
(0.130166 0.152765 2.08822)
(0.146615 0.148879 1.9434)
(0.064233 0.152918 1.89134)
(0.0464856 0.189226 1.92704)
(0.118512 0.172092 2.05996)
(0.0894911 0.198536 2.10022)
(0.0619182 0.227942 1.84304)
(-0.0141005 0.0777721 1.37298)
(0.00640441 0.0910765 1.5153)
(0.0249368 0.0720521 1.49488)
(0.0807368 0.0891111 1.56768)
(0.00994122 0.0749635 1.43432)
(0.0543654 0.0715149 1.58482)
(0.0164896 0.0660133 1.49211)
(0.12129 0.246934 1.89898)
(0.0162114 0.0786059 1.51002)
(-0.0190048 0.0948033 1.55263)
(0.125564 0.246797 2.04024)
(0.0970397 0.250755 1.9342)
(0.0255969 0.0333482 1.54403)
(0.120589 0.296311 2.02514)
(0.0518421 0.12531 1.64611)
(-0.164866 -0.0555426 1.96819)
(-0.119476 -0.0835928 1.89169)
(-0.194789 -0.146671 1.856)
(-0.157357 -0.0653839 1.47332)
(-0.14672 1.72463e-05 1.80354)
(-0.210708 -0.136201 1.97363)
(-0.226353 -0.126856 1.71595)
(-0.208215 -0.160973 1.73779)
(-0.0943504 -0.0857476 1.8655)
(-0.0567888 -0.0890182 1.85867)
(-0.110627 -0.106685 2.03028)
(-0.0556835 -0.0844362 1.61831)
(-0.0881005 -0.114272 1.84698)
(-0.0953341 -0.103003 1.90759)
(-0.07733 -0.221693 1.92319)
(-0.117064 -0.13623 2.0032)
(-0.252268 -0.164281 1.9404)
(-0.130546 -0.0777787 2.02854)
(-0.22844 -0.048918 2.1459)
(-0.0654778 -0.035886 1.72947)
(-0.156031 -0.156235 1.95728)
(-0.161367 -0.126367 1.97379)
(0.0630741 -0.161148 1.86283)
(-0.0850873 -0.115033 1.9954)
(-0.0422107 -0.0319167 1.28938)
(-0.0243628 -0.0231306 1.34008)
(-0.0203589 -0.00971699 1.37764)
(0.010555 -0.0149002 1.21668)
(-0.0313533 -0.0128296 1.27879)
(-0.0307877 -0.0133835 1.29098)
(-0.00784757 -0.0344687 1.27778)
(-0.00875246 -0.0232858 1.31321)
(-0.11434 -0.0822852 1.81187)
(-0.158734 -0.129919 1.88047)
(-0.09284 -0.0571445 1.44337)
(-0.074357 -0.074798 1.5118)
(-0.148196 -0.168828 1.83141)
(-0.157595 -0.183863 1.75096)
(-0.0874349 -0.0673726 1.53745)
(-0.0854052 -0.0521599 1.42425)
(-0.148261 -0.135698 1.97335)
(-0.0590592 -0.0486691 1.53444)
(-0.0988039 -0.144709 1.95036)
(-0.157506 -0.127969 1.86364)
(-0.124826 -0.139186 1.83852)
(-0.098168 -0.133716 1.87168)
(-0.127663 -0.13958 1.95791)
(-0.102168 -0.156877 1.97909)
(-0.0595009 -0.184853 1.76263)
(-0.0221031 -0.0859095 1.39962)
(-0.0480167 -0.1222 1.51569)
(-0.016164 -0.121842 1.50481)
(-0.117914 -0.0841234 1.56111)
(-0.0553849 -0.0894132 1.44658)
(-0.102035 -0.0842296 1.57097)
(-0.060784 -0.0845816 1.49747)
(-0.140895 -0.210401 1.82827)
(-0.0326374 -0.0944221 1.60001)
(-0.0632425 -0.123882 1.59522)
(-0.118705 -0.181871 1.91945)
(-0.110119 -0.207025 1.85091)
(-0.0856916 -0.0849246 1.5826)
(-0.129076 -0.210172 1.9035)
(-0.0682217 -0.0729754 1.6609)
(-0.012403 0.00762004 0.996415)
(-0.0109468 0.00757004 1.00193)
(-0.0179044 0.00848089 1.00905)
(-0.0168164 0.00712094 1.00761)
(-0.0119904 0.0075322 0.998261)
(-0.0128568 0.00714791 1.0005)
(-0.0173419 0.0081096 1.00588)
(-0.0177293 0.00790028 1.00809)
(-0.00941981 0.00760554 1.00554)
(-0.00748147 0.00639165 1.00657)
(-0.0121661 0.0101221 1.01142)
(-0.00909405 0.00681694 1.00872)
(-0.00855477 0.00729054 1.00565)
(-0.00871013 0.00647664 1.00602)
(-0.0103079 0.00839973 1.00955)
(-0.0103187 0.0084003 1.00943)
(-0.020339 0.0119415 1.0238)
(-0.0171548 0.0135916 1.02131)
(-0.0154669 0.0218417 1.0441)
(-0.0152031 0.0185432 1.03188)
(-0.0195511 0.011583 1.0238)
(-0.0184704 0.0123609 1.02195)
(-0.0197838 0.0163873 1.03304)
(-0.0173471 0.017672 1.03346)
(-0.0162438 0.00777627 1.01313)
(-0.0109517 0.00743396 1.01131)
(-0.0139118 0.0149046 1.02222)
(-0.0121957 0.00973175 1.01604)
(-0.0144552 0.0074795 1.01218)
(-0.0134842 0.00737707 1.0119)
(-0.0147454 0.0101569 1.0178)
(-0.0132707 0.00972136 1.01734)
(-0.010729 0.00745437 1.00279)
(-0.016866 0.00783892 1.00947)
(-0.0160263 0.00787849 1.00836)
(-0.0120238 0.00720319 1.00872)
(-0.0139343 0.0087071 1.00985)
(-0.0177154 0.00823975 1.00791)
(-0.0121334 0.00769033 1.00906)
(-0.014861 0.00701427 1.00831)
(-0.0112132 0.0066886 1.00424)
(-0.0112336 0.00688657 1.00873)
(-0.013554 0.00973336 1.01068)
(-0.0173914 0.00897952 1.01093)
(-0.0143784 0.0087388 1.01014)
(-0.0127242 0.00876603 1.00891)
(-0.0155467 0.00942648 1.01174)
(-0.0135227 0.00922142 1.01135)
(-0.0203459 0.00952806 1.02016)
(-0.0180559 0.00888019 1.01491)
(-0.0123519 0.00913013 1.0123)
(-0.0174581 0.0135412 1.02343)
(-0.01999 0.0102466 1.02041)
(-0.0167138 0.0076761 1.01553)
(-0.017097 0.0100392 1.019)
(-0.0151924 0.00805753 1.01318)
(-0.0202145 0.0105921 1.02115)
(-0.0159317 0.0135769 1.02287)
(-0.0120919 0.00873457 1.01314)
(-0.0152004 0.0117191 1.01737)
(-0.019028 0.0108176 1.01888)
(-0.0156336 0.0101525 1.01716)
(-0.0148857 0.0111839 1.01731)
(-0.0125212 0.0106799 1.01622)
(0.0541311 0.00276912 1.01401)
(0.0357638 0.00677216 1.00068)
(0.141942 0.0086812 1.10202)
(0.0755905 0.0130689 1.08875)
(0.0509807 0.00811593 1.02149)
(0.0430414 0.000685929 1.02082)
(0.101118 0.0183762 1.05202)
(0.0858782 0.000105155 1.03446)
(0.0208438 0.00542629 1.00175)
(0.0136607 0.00412498 1.00071)
(0.04592 0.00592313 1.02129)
(0.0221804 -0.000909274 1.02391)
(0.0213086 0.00521707 1.00471)
(0.0205635 0.00244727 1.0061)
(0.028735 0.00401876 1.01427)
(0.0291428 0.0012798 1.01253)
(0.282288 -0.0439918 1.25141)
(0.111485 -0.00469987 1.13373)
(0.191923 -0.0854138 1.7608)
(0.121002 0.0717912 1.29309)
(0.224656 0.0027225 1.26438)
(0.238722 -0.00101359 1.33321)
(0.184279 0.0382371 1.28671)
(0.20628 0.0437931 1.31536)
(0.0287724 0.0262662 1.13115)
(0.0150098 -0.00410457 1.05328)
(0.0304415 0.0252774 1.17106)
(-0.00155724 0.0306181 1.11148)
(0.0285355 0.0238849 1.11861)
(0.03047 0.0242089 1.111)
(0.0111366 0.0280573 1.1295)
(0.0133968 0.0254819 1.12233)
(0.0373916 0.00570143 1.00546)
(0.146556 0.0048092 1.09913)
(0.0755952 0.011467 1.08843)
(0.0409345 0.00577555 1.04335)
(0.04483 0.00676115 1.01837)
(0.0725079 0.0210918 1.04935)
(0.041844 -0.00518153 1.03396)
(0.0740802 0.0141307 1.07462)
(0.0352468 0.000417766 1.01369)
(0.0464135 -4.93577e-05 1.04438)
(0.0957138 -0.00429698 1.05891)
(0.140365 0.00204283 1.12007)
(0.0488225 0.00770815 1.01765)
(0.0434297 0.00474849 1.02825)
(0.082601 0.00793435 1.04336)
(0.0861374 0.0107143 1.0517)
(0.153219 0.0264849 1.14628)
(0.0730964 0.0304601 1.12009)
(0.0346611 0.0106367 1.04623)
(0.0754565 0.0320351 1.16185)
(0.140969 -0.00163726 1.16642)
(0.0756135 0.0092473 1.09329)
(0.0923313 0.017408 1.16045)
(0.0334777 0.0487272 1.11043)
(0.172428 -0.0102653 1.1221)
(0.0641936 0.0403479 1.18698)
(0.0410896 0.0129539 1.05223)
(0.0907968 0.0167458 1.07198)
(0.103967 0.0670092 1.16837)
(0.0756495 0.0367889 1.19694)
(0.0695171 0.0198582 1.06559)
(0.041252 -0.0120511 1.09054)
(-0.174419 0.00608354 1.29798)
(-0.125556 0.0423543 1.25852)
(-0.1503 0.0106288 1.20628)
(-0.137118 0.0131415 1.19701)
(-0.167748 0.0119262 1.31306)
(-0.140475 0.038282 1.26213)
(-0.163195 0.00741972 1.25466)
(-0.148517 0.0279065 1.23735)
(-0.0688276 0.0339158 1.17105)
(-0.0152783 0.0330909 1.0906)
(-0.0500068 0.040149 1.11903)
(-0.0419023 0.0408663 1.12364)
(-0.0445028 0.0182931 1.18541)
(-0.0498829 0.0349399 1.11995)
(-0.0516113 0.0190779 1.18416)
(-0.0577317 0.0238224 1.12952)
(-0.133167 0.017297 1.11847)
(-0.0812729 0.0257355 1.10394)
(-0.0989198 0.017281 1.06241)
(-0.087863 0.0112346 1.0934)
(-0.100381 -0.00545078 1.12109)
(-0.0962426 0.0212694 1.10182)
(-0.108998 0.00613183 1.10234)
(-0.108286 0.0176774 1.09724)
(-0.0795691 0.00433061 1.16024)
(-0.0399423 0.00575709 1.1223)
(-0.0643469 0.00929797 1.10673)
(-0.0390787 0.0299674 1.14147)
(-0.0778411 0.00255397 1.19883)
(-0.0567217 0.00868037 1.09956)
(-0.0742148 0.0057724 1.18736)
(-0.0617297 -0.000920981 1.15232)
(-0.0941 0.0145083 1.26394)
(-0.113046 -0.0065552 1.19475)
(-0.115421 -0.00381911 1.23527)
(-0.0571825 -0.00397612 1.16437)
(-0.0965144 -0.000864011 1.23703)
(-0.099992 -0.00168047 1.20132)
(-0.0639425 0.00512815 1.13705)
(-0.0745327 0.00589243 1.1394)
(-0.09529 0.037698 1.19331)
(-0.0492319 0.0229244 1.1467)
(-0.0756282 0.0267067 1.13421)
(-0.140744 0.0184856 1.16587)
(-0.0987164 0.0216751 1.19874)
(-0.0523329 0.00154668 1.17799)
(-0.134102 0.0175274 1.15397)
(-0.065316 -0.00341374 1.1723)
(-0.107021 0.0108123 1.15088)
(-0.117437 -0.00734687 1.21004)
(-0.0693922 -0.0105422 1.14304)
(-0.0908276 0.000729643 1.11144)
(-0.102534 0.00752602 1.12823)
(-0.103397 -0.0116667 1.15403)
(-0.0886106 -0.0109074 1.12832)
(-0.0707021 -0.00383921 1.12642)
(-0.135658 0.0242497 1.146)
(-0.0867218 -0.00987009 1.11552)
(-0.0741352 0.0260855 1.12881)
(-0.0907212 0.0261179 1.11973)
(-0.087989 -0.00125895 1.13368)
(-0.0815479 0.00741759 1.11606)
(-0.0887942 0.00419386 1.14365)
(-0.0605108 0.00380185 1.12368)
(-0.0371918 -0.00201301 1.0029)
(-0.029126 0.00165897 0.999179)
(-0.0321681 0.00165038 1.01744)
(-0.030932 0.00376841 1.01299)
(-0.0333525 0.000540154 1.00318)
(-0.0319714 0.00251351 1.00546)
(-0.0337745 -0.000114155 1.01172)
(-0.0299631 0.00171361 1.01213)
(-0.0222516 0.00350969 0.997506)
(-0.0157631 0.00676824 0.995501)
(-0.0208966 0.00627032 1.00673)
(-0.018351 0.00646827 1.00559)
(-0.0194588 0.00534596 0.999947)
(-0.0182344 0.00698098 1.0002)
(-0.0207145 0.00394407 1.00347)
(-0.0187802 0.00564654 1.00394)
(-0.0239326 0.00627881 1.03576)
(-0.0215832 0.00892707 1.02422)
(-0.019092 0.0173756 1.04597)
(-0.0222714 0.0168672 1.03258)
(-0.0237955 0.010536 1.03289)
(-0.0211093 0.0113337 1.03584)
(-0.0226967 0.00959472 1.03685)
(-0.0223705 0.0124952 1.03844)
(-0.0221689 0.00691971 1.01835)
(-0.0181273 0.0070849 1.01301)
(-0.0192086 0.0130339 1.02402)
(-0.0149044 0.00890912 1.01779)
(-0.0194101 0.00825468 1.01802)
(-0.0200953 0.00931644 1.01774)
(-0.0180399 0.00714859 1.01755)
(-0.0180849 0.00914842 1.01767)
(-0.0260342 0.00316411 1.00297)
(-0.0280766 0.00448215 1.02148)
(-0.0272755 0.00489806 1.01681)
(-0.0222529 0.00612432 1.01107)
(-0.0261202 0.00269673 1.0066)
(-0.0286545 0.00474318 1.01288)