/*--------------------------------*- C++ -*----------------------------------*\
| =========                 |                                                 |
| \\      /  F ield         | OpenFOAM: The Open Source CFD Toolbox           |
|  \\    /   O peration     | Version:  2506                                  |
|   \\  /    A nd           | Website:  www.openfoam.com                      |
|    \\/     M anipulation  |                                                 |
\*---------------------------------------------------------------------------*/
FoamFile
{
    version     2.0;
    format      ascii;
    arch        "LSB;label=32;scalar=64";
    class       surfaceScalarField;
    location    "1400";
    object      phi;
}
// * * * * * * * * * * * * * * * * * * * * * * * * * * * * * * * * * * * * * //

dimensions      [0 3 -1 0 0 0 0];

oriented        oriented;

internalField   nonuniform List<scalar> 
110816
(
6.59816e-07
-1.9126e-06
1.20886e-06
4.39269e-08
4.30468e-08
6.58933e-07
-1.91525e-06
1.21327e-06
-1.91352e-06
6.54982e-07
1.21472e-06
4.38175e-08
1.21073e-06
6.57806e-07
-1.91299e-06
4.44552e-08
1.8697e-06
7.0294e-07
-1.91283e-06
7.01799e-07
1.21095e-06
1.8688e-06
4.4873e-08
6.57082e-07
6.5902e-07
4.09357e-08
-1.91897e-06
1.21901e-06
3.65268e-08
-1.91956e-06
1.22139e-06
6.61642e-07
-1.91047e-06
3.53411e-08
1.21845e-06
6.56679e-07
1.21489e-06
3.76754e-08
-1.91054e-06
6.57977e-07
1.87656e-06
6.972e-07
-1.91474e-06
6.92043e-07
1.22104e-06
1.87587e-06
3.62251e-08
6.57436e-07
6.48972e-07
-1.90969e-06
1.21757e-06
4.31511e-08
3.84484e-08
-1.9014e-06
1.2111e-06
6.51852e-07
-1.89586e-06
1.20568e-06
6.47252e-07
4.29378e-08
1.20838e-06
-1.90231e-06
6.50205e-07
4.37251e-08
1.85871e-06
6.8973e-07
-1.89947e-06
6.89448e-07
1.20771e-06
1.85536e-06
4.27519e-08
6.48945e-07
6.56604e-07
1.21027e-06
-1.91141e-06
4.45381e-08
4.16358e-08
1.20949e-06
-1.90768e-06
6.56557e-07
-1.90607e-06
1.20803e-06
6.53807e-07
4.42348e-08
1.20839e-06
-1.90937e-06
6.56151e-07
4.48323e-08
1.86681e-06
6.99239e-07
-1.90945e-06
6.98276e-07
1.21017e-06
1.86228e-06
4.53439e-08
6.5449e-07
7.00556e-07
1.87203e-06
-1.91366e-06
-1.91015e-06
1.86896e-06
6.96164e-07
1.86879e-06
7.00646e-07
-1.91163e-06
-6.57317e-07
1.86951e-06
6.97216e-07
-1.90941e-06
4.17121e-08
-1.21327e-06
1.87211e-06
-1.21135e-06
4.16657e-08
-1.91225e-06
6.99101e-07
6.97416e-07
1.21555e-06
1.21201e-06
6.95173e-07
-1.86805e-06
6.90316e-07
1.21308e-06
-4.04868e-08
6.95605e-07
1.21385e-06
6.56641e-07
1.91289e-06
1.90488e-06
6.54559e-07
1.21784e-06
6.91387e-07
-1.21308e-06
1.86593e-06
4.33156e-08
1.86627e-06
4.46455e-08
4.06499e-08
1.86606e-06
-6.96642e-07
1.85975e-06
4.49233e-08
-1.91022e-06
6.53453e-07
4.36808e-08
6.55157e-07
-1.90598e-06
1.86279e-06
6.51847e-07
-6.93995e-07
6.51429e-07
1.90539e-06
6.55838e-07
-1.86384e-06
6.52752e-07
-1.20921e-06
-3.8412e-08
-4.0418e-08
-1.21087e-06
6.54108e-07
1.69889e-07
-1.28338e-06
-7.9911e-07
1.91237e-06
1.69886e-07
-1.28348e-06
-7.98773e-07
-1.28515e-06
1.68432e-07
-7.98529e-07
-7.97324e-07
1.68058e-07
-1.28373e-06
-6.28661e-07
2.08218e-06
-1.28363e-06
2.0821e-06
-7.98388e-07
-6.27967e-07
1.68978e-07
1.70283e-07
1.91197e-06
-1.28347e-06
-7.98787e-07
1.91185e-06
-1.28325e-06
1.70183e-07
-7.98786e-07
-1.28507e-06
1.91303e-06
1.69418e-07
-7.97384e-07
-7.96919e-07
1.91136e-06
-1.28408e-06
1.69645e-07
-6.27907e-07
2.08191e-06
-1.28372e-06
2.08228e-06
-7.98329e-07
-6.27495e-07
1.91248e-06
1.69715e-07
1.68249e-07
-1.28827e-06
-7.98948e-07
1.91496e-06
-1.28756e-06
1.69061e-07
-7.96462e-07
-1.29406e-06
1.713e-07
-7.96803e-07
-7.91821e-07
-1.28731e-06
1.68585e-07
-6.26237e-07
2.0816e-06
-1.28711e-06
2.08684e-06
-7.9812e-07
-6.24963e-07
1.67825e-07
1.67302e-07
-7.95341e-07
-1.28338e-06
1.91049e-06
-7.95588e-07
-1.28374e-06
1.6884e-07
-1.28371e-06
-7.92131e-07
1.68156e-07
-7.94232e-07
-1.28223e-06
1.67088e-07
-6.27186e-07
2.07763e-06
-1.28314e-06
2.07788e-06
-7.94578e-07
-6.26048e-07
1.68126e-07
2.08176e-06
-6.28117e-07
-1.28376e-06
-1.28504e-06
-6.2859e-07
2.08206e-06
-6.28242e-07
2.07994e-06
-1.28364e-06
-1.68894e-07
-6.27153e-07
2.08001e-06
-1.28396e-06
1.91238e-06
7.97035e-07
-6.27648e-07
7.96318e-07
1.91243e-06
-1.28428e-06
2.0805e-06
2.08207e-06
-7.98212e-07
-7.96751e-07
2.08095e-06
6.27334e-07
2.08325e-06
-7.9755e-07
-1.9132e-06
2.08304e-06
-7.98422e-07
1.69714e-07
1.28471e-06
1.28545e-06
1.68685e-07
-7.97181e-07
2.08147e-06
7.94873e-07
-6.2647e-07
-6.27024e-07
1.91087e-06
-6.26452e-07
-2.07805e-06
-6.23493e-07
-1.28539e-06
1.6801e-07
1.68092e-07
-1.28439e-06
-6.25651e-07
1.68299e-07
-2.07927e-06
1.68466e-07
1.28511e-06
1.69388e-07
6.2622e-07
1.69468e-07
7.93729e-07
-1.91254e-06
-1.91119e-06
7.95145e-07
1.6907e-07
-5.66489e-07
1.79514e-06
-1.1519e-06
-7.67497e-08
-8.43011e-08
-5.63867e-07
1.81776e-06
-1.16959e-06
1.82223e-06
-5.66865e-07
-1.17752e-06
-7.78522e-08
-1.17156e-06
-5.65666e-07
1.81208e-06
-7.48632e-08
-1.73554e-06
-6.46442e-07
1.81549e-06
-6.47939e-07
-1.1719e-06
-1.74078e-06
-7.72161e-08
-5.66486e-07
-5.63003e-07
-8.9596e-08
1.83336e-06
-1.18076e-06
-9.0127e-08
1.8494e-06
-1.19378e-06
-5.65489e-07
1.84222e-06
-8.2028e-08
-1.19785e-06
-5.62348e-07
-1.1909e-06
-8.33723e-08
1.83686e-06
-5.62588e-07
-1.75477e-06
-6.49175e-07
1.84094e-06
-6.49034e-07
-1.19587e-06
-1.75613e-06
-8.39423e-08
-5.62943e-07
-5.64808e-07
1.836e-06
-1.19364e-06
-7.75586e-08
-7.85162e-08
1.84173e-06
-1.20065e-06
-5.62556e-07
1.84405e-06
-1.20484e-06
-5.61749e-07
-7.7462e-08
-1.20064e-06
1.84047e-06
-5.62554e-07
-7.72793e-08
-1.76324e-06
-6.41331e-07
1.83976e-06
-6.41171e-07
-1.20058e-06
-1.76491e-06
-7.70584e-08
-5.62031e-07
-5.64107e-07
-1.18285e-06
1.82237e-06
-7.54105e-08
-7.91601e-08
-1.19166e-06
1.833e-06
-5.62181e-07
1.83667e-06
-1.19656e-06
-5.62938e-07
-7.7168e-08
-1.19322e-06
1.83215e-06
-5.62905e-07
-7.60194e-08
-1.75381e-06
-6.41092e-07
1.83079e-06
-6.41172e-07
-1.1918e-06
-1.75798e-06
-7.63391e-08
-5.62479e-07
-6.48823e-07
-1.74394e-06
1.82889e-06
1.83072e-06
-1.75351e-06
-6.44075e-07
-1.74621e-06
-6.42296e-07
1.82284e-06
5.63218e-07
-1.75102e-06
-6.44207e-07
1.83201e-06
-8.12089e-08
1.18188e-06
-1.7495e-06
1.18302e-06
-7.97261e-08
1.82483e-06
-6.42917e-07
-6.49116e-07
-1.18442e-06
-1.19036e-06
-6.44033e-07
1.75851e-06
-6.43537e-07
-1.197e-06
8.14412e-08
-6.44587e-07
-1.19036e-06
-5.6388e-07
-1.83473e-06
-1.83818e-06
-5.64245e-07
-1.18905e-06
-6.43918e-07
1.18711e-06
-1.75605e-06
-7.51384e-08
-1.74979e-06
-7.53599e-08
-7.95639e-08
-1.7563e-06
6.41506e-07
-1.76156e-06
-7.65044e-08
1.82845e-06
-5.64595e-07
-7.67451e-08
-5.64255e-07
1.83561e-06
-1.7587e-06
-5.64633e-07
6.41535e-07
-5.62624e-07
-1.8377e-06
-5.62637e-07
1.76102e-06
-5.62826e-07
1.19608e-06
7.9046e-08
7.89136e-08
1.19614e-06
-5.6264e-07
-1.80972e-06
1.27208e-06
-2.10837e-07
7.48476e-07
1.27673e-06
-1.82159e-06
-2.11362e-07
7.56226e-07
-2.11398e-07
-1.8085e-06
1.2723e-06
7.47597e-07
7.46215e-07
-1.81963e-06
1.28488e-06
-2.11459e-07
-1.0627e-06
-5.36137e-07
-2.10884e-07
-5.3906e-07
7.53088e-07
-1.06891e-06
1.27898e-06
-1.81936e-06
-1.83568e-06
1.28587e-06
-2.13065e-07
7.62879e-07
1.29626e-06
-2.15767e-07
7.68904e-07
-2.12373e-07
1.28408e-06
7.61658e-07
7.5439e-07
1.29452e-06
-2.12052e-07
-1.07804e-06
-5.45449e-07
-2.12191e-07
-5.48167e-07
7.66392e-07
-1.08041e-06
1.28935e-06
-1.8046e-06
-2.15782e-07
1.27293e-06
7.47448e-07
1.27697e-06
-2.14834e-07
7.55616e-07
-2.20672e-07
1.26837e-06
7.4744e-07
7.46809e-07
-2.18215e-07
1.28349e-06
-1.05872e-06
-5.2965e-07
-2.16226e-07
-5.3301e-07
7.51262e-07
-1.06181e-06
1.27897e-06
-1.82668e-06
7.45906e-07
1.2933e-06
-2.12526e-07
1.29624e-06
7.48994e-07
-2.1224e-07
-2.15973e-07
7.46305e-07
1.29204e-06
7.46422e-07
1.29906e-06
-2.13331e-07
-1.08124e-06
-5.32539e-07
-2.12899e-07
-5.33319e-07
7.48323e-07
-1.0815e-06
1.29538e-06
-5.40485e-07
-1.06984e-06
-2.11268e-07
-2.13135e-07
-1.06168e-06
-5.33686e-07
-1.07453e-06
-5.33111e-07
-2.11994e-07
1.82766e-06
-1.07902e-06
-5.36342e-07
-2.12295e-07
1.28257e-06
-7.50705e-07
-1.07235e-06
-7.49925e-07
1.28878e-06
-2.11828e-07
-5.35673e-07
-5.45192e-07
7.61219e-07
7.54025e-07
-5.38525e-07
1.06728e-06
-5.41936e-07
7.58728e-07
-1.2774e-06
-5.35993e-07
7.51707e-07
-1.8299e-06
2.12355e-07
2.13472e-07
-1.82035e-06
7.55307e-07
-5.39593e-07
-7.46572e-07
-1.06508e-06
1.27796e-06
-1.07556e-06
1.28836e-06
1.29196e-06
-1.0793e-06
5.31328e-07
-1.07337e-06
1.28835e-06
-2.142e-07
-1.81588e-06
1.28351e-06
-1.82544e-06
-2.14842e-07
-1.06971e-06
-1.81685e-06
5.31257e-07
2.14181e-07
1.07212e-06
-7.49137e-07
-1.28394e-06
-1.2876e-06
-7.51411e-07
1.05896e-06
-1.27054e-06
-7.93982e-07
1.00556e-06
1.00529e-06
1.05928e-06
-1.27055e-06
-7.94015e-07
-1.2718e-06
1.05897e-06
-7.92626e-07
1.00546e-06
-7.92661e-07
1.05865e-06
-1.27112e-06
1.00512e-06
2.65646e-07
2.0642e-06
-1.27089e-06
2.06439e-06
-7.93459e-07
2.66128e-07
1.00541e-06
1.05872e-06
1.05935e-06
1.00518e-06
-1.27054e-06
-7.93986e-07
1.00521e-06
1.05971e-06
-1.27063e-06
-7.94283e-07
-1.27251e-06
1.00499e-06
1.06077e-06
-7.93254e-07
-7.92338e-07
1.00383e-06
1.05971e-06
-1.2712e-06
2.66101e-07
2.06402e-06
-1.27078e-06
2.06512e-06
-7.9381e-07
2.6728e-07
1.00441e-06
1.05989e-06
1.05928e-06
-1.27458e-06
-7.9233e-07
1.00763e-06
1.00554e-06
-1.27511e-06
1.06193e-06
-7.92361e-07
-1.27892e-06
1.06419e-06
-7.95009e-07
1.00974e-06
-7.87695e-07
-1.27409e-06
1.05737e-06
1.00441e-06
2.70484e-07
2.06448e-06
-1.27569e-06
2.06862e-06
-7.926e-07
2.71586e-07
1.0052e-06
1.06129e-06
1.0579e-06
-7.91294e-07
-1.27041e-06
1.0038e-06
1.00201e-06
-7.90602e-07
1.05909e-06
-1.2705e-06
-1.27058e-06
-7.88723e-07
1.05792e-06
1.00139e-06
-7.90157e-07
1.05748e-06
-1.26881e-06
1.00149e-06
2.68264e-07
2.05978e-06
-1.27014e-06
2.05945e-06
-7.89174e-07
2.68663e-07
1.00096e-06
1.05753e-06
2.06396e-06
2.66183e-07
-1.27087e-06
-1.2732e-06
2.67697e-07
2.06447e-06
2.6721e-07
2.06265e-06
-1.27121e-06
-1.05881e-06
2.67843e-07
2.06203e-06
-1.27107e-06
1.00542e-06
7.91897e-07
2.66651e-07
7.90938e-07
1.00437e-06
-1.27128e-06
2.06252e-06
2.065e-06
-7.9364e-07
-7.90995e-07
2.06267e-06
-2.68835e-07
2.06674e-06
-7.92917e-07
-1.0055e-06
2.06564e-06
-7.92442e-07
1.05909e-06
1.27256e-06
1.2725e-06
1.05981e-06
-7.92747e-07
2.06347e-06
7.90556e-07
2.68379e-07
1.00553e-06
2.67743e-07
1.00362e-06
1.00335e-06
2.68078e-07
-2.06049e-06
2.6999e-07
1.00178e-06
-1.27243e-06
1.05856e-06
1.00443e-06
1.05783e-06
-1.27201e-06
2.70079e-07
1.05943e-06
-2.06181e-06
1.05771e-06
1.27244e-06
1.05831e-06
-2.69431e-07
1.06106e-06
7.88202e-07
-1.00446e-06
-1.00352e-06
7.89588e-07
1.0585e-06
-2.58749e-07
6.05091e-07
6.03734e-07
-2.57843e-07
-1.27737e-06
-2.56612e-07
6.06313e-07
9.31101e-07
-2.57906e-07
6.11683e-07
6.68919e-07
3.51317e-07
3.47945e-07
6.72661e-07
6.09756e-07
-2.56766e-07
-2.55626e-07
6.01959e-07
5.97751e-07
-2.52769e-07
-1.27416e-06
6.01561e-07
-2.52451e-07
9.29341e-07
6.07625e-07
-2.53474e-07
6.72983e-07
3.50356e-07
3.46856e-07
6.74347e-07
6.05351e-07
-2.52962e-07
-2.54531e-07
-1.28079e-06
6.06535e-07
6.04106e-07
-1.27875e-06
-2.51982e-07
-1.2834e-06
6.06773e-07
-2.52617e-07
9.32387e-07
-1.28869e-06
6.10874e-07
-2.54571e-07
6.74473e-07
3.5472e-07
-1.28372e-06
3.53105e-07
6.77356e-07
6.0975e-07
-2.52937e-07
-2.57612e-07
9.35337e-07
6.15572e-07
6.13156e-07
9.33539e-07
-2.54654e-07
-1.29409e-06
9.35522e-07
6.1452e-07
-2.55956e-07
9.37905e-07
6.18349e-07
-2.57197e-07
6.79216e-07
3.58555e-07
3.57559e-07
9.34812e-07
6.79992e-07
6.16468e-07
-2.56535e-07
3.49923e-07
6.70198e-07
-1.28153e-06
6.71625e-07
3.53292e-07
6.74965e-07
3.55488e-07
2.56309e-07
6.77218e-07
3.54821e-07
6.07813e-07
-9.30516e-07
6.72627e-07
-9.30483e-07
6.09305e-07
3.53788e-07
3.47346e-07
9.30726e-07
3.54116e-07
-6.7371e-07
3.50578e-07
-6.03544e-07
3.50382e-07
-2.5469e-07
1.27466e-06
1.28139e-06
-2.54809e-07
3.52868e-07
-9.32347e-07
6.75665e-07
6.09974e-07
6.77501e-07
6.13325e-07
6.10941e-07
6.77419e-07
-3.56463e-07
6.78811e-07
6.13174e-07
-1.28771e-06
-2.55827e-07
6.11187e-07
-2.56419e-07
-1.28933e-06
6.77045e-07
-2.54739e-07
-3.55208e-07
-2.54672e-07
1.28579e-06
-2.54258e-07
-6.75566e-07
-2.52609e-07
-9.30449e-07
-6.08015e-07
-6.08611e-07
-9.30713e-07
-2.53531e-07
-3.22032e-07
-2.84841e-07
-3.12466e-07
-2.90312e-07
-3.18347e-07
-3.12399e-07
-3.14792e-07
-3.19868e-07
-2.85698e-07
9.29227e-07
-3.1983e-07
-2.95733e-07
-3.13664e-07
6.0334e-07
-6.13119e-07
-3.12253e-07
-6.10909e-07
6.05409e-07
-2.89301e-07
-3.20292e-07
-3.15049e-07
-2.96187e-07
-3.11256e-07
-3.01296e-07
-3.1235e-07
-3.101e-07
-3.12987e-07
-2.9665e-07
-3.13037e-07
9.30554e-07
-3.03415e-07
-3.14477e-07
-3.12662e-07
6.12787e-07
-6.16687e-07
-3.11148e-07
-6.14514e-07
6.14663e-07
-3.00796e-07
-3.12837e-07
-3.17971e-07
-3.17165e-07
-2.85912e-07
-2.91572e-07
-3.16554e-07
-3.13288e-07
-3.18896e-07
-3.15107e-07
-2.8571e-07
9.29444e-07
-3.17482e-07
-3.15284e-07
-2.96678e-07
6.0955e-07
-6.1002e-07
-3.17501e-07
-6.06364e-07
6.1125e-07
-2.91826e-07
-3.14009e-07
-3.16229e-07
9.35285e-07
-3.07525e-07
-3.11531e-07
-3.0897e-07
9.35133e-07
-3.14325e-07
-3.11838e-07
-3.13708e-07
9.35406e-07
-3.14216e-07
-3.07482e-07
9.38671e-07
-3.12922e-07
-3.16208e-07
-3.09541e-07
6.21796e-07
-6.2694e-07
-3.11085e-07
-6.23641e-07
9.36466e-07
6.23961e-07
-3.1223e-07
-3.13388e-07
-6.14535e-07
6.09146e-07
-3.12959e-07
-3.14776e-07
6.06196e-07
-6.11287e-07
6.13464e-07
-6.21696e-07
-3.11598e-07
3.15968e-07
6.16653e-07
-6.2049e-07
-3.12131e-07
-2.95948e-07
-9.29824e-07
6.11238e-07
-9.31017e-07
-3.00309e-07
-3.13547e-07
-6.17862e-07
-6.12189e-07
9.31104e-07
-6.17866e-07
-6.11515e-07
-6.10329e-07
2.90926e-07
-6.08849e-07
-3.15473e-07
3.14521e-07
3.14835e-07
-3.15701e-07
-6.12381e-07
-9.2917e-07
6.08357e-07
-2.90475e-07
6.16003e-07
-3.02414e-07
-3.04908e-07
6.19551e-07
6.18846e-07
6.18996e-07
-3.02435e-07
-3.14812e-07
-3.17723e-07
-2.96635e-07
-3.16671e-07
-3.14888e-07
6.16011e-07
-3.17657e-07
6.15405e-07
-3.13891e-07
3.15294e-07
-3.1361e-07
-6.13749e-07
-3.13134e-07
-9.31385e-07
2.96227e-07
3.00032e-07
-9.29903e-07
-3.14578e-07
-1.05158e-06
6.54611e-07
3.65044e-07
3.19253e-08
2.88876e-08
-1.05374e-06
6.56391e-07
3.68466e-07
3.67766e-07
-1.0561e-06
6.56873e-07
3.14569e-08
6.53334e-07
-1.05315e-06
3.66504e-07
3.33068e-08
-3.96352e-07
-1.02008e-06
3.64851e-07
-1.02291e-06
6.55444e-07
-3.9793e-07
3.11846e-08
-1.05307e-06
-1.05735e-06
2.66644e-08
6.57969e-07
3.72716e-07
2.81758e-08
6.61661e-07
3.74356e-07
3.74065e-07
2.80513e-08
6.59816e-07
6.55872e-07
2.79343e-08
3.73566e-07
-3.99885e-07
-1.03053e-06
3.73066e-07
-1.03346e-06
6.61747e-07
-4.01897e-07
2.7239e-08
-1.0599e-06
3.71535e-07
6.56921e-07
3.14399e-08
3.14472e-08
3.72343e-07
6.56983e-07
3.732e-07
6.54249e-07
3.22565e-08
6.55407e-07
3.72748e-07
3.15547e-08
-4.03802e-07
-1.02838e-06
3.72289e-07
-1.02886e-06
6.56509e-07
-4.0423e-07
3.12542e-08
-1.05566e-06
6.5422e-07
3.68946e-07
3.2498e-08
3.09679e-08
6.54833e-07
3.72115e-07
3.71154e-07
6.55822e-07
3.21171e-08
6.54091e-07
3.71669e-07
3.17212e-08
-4.01866e-07
-1.02469e-06
3.70896e-07
-1.026e-06
6.55104e-07
-4.02681e-07
3.20789e-08
-1.02525e-06
-3.97079e-07
3.68584e-07
3.69486e-07
-3.99628e-07
-1.02595e-06
-3.99412e-07
-1.02324e-06
3.69502e-07
1.05633e-06
-4.00146e-07
-1.0272e-06
3.71023e-07
2.8396e-08
-6.54558e-07
-3.99087e-07
-6.5519e-07
2.95852e-08
3.72184e-07
-1.02502e-06
-1.02831e-06
6.57897e-07
6.56569e-07
-1.02878e-06
4.02054e-07
-1.03078e-06
6.56779e-07
-2.89954e-08
-1.0283e-06
6.5767e-07
-1.05612e-06
-3.71276e-07
-3.72316e-07
-1.05909e-06
6.58814e-07
-1.02935e-06
-6.56439e-07
-4.00456e-07
3.09412e-08
-4.00298e-07
3.12819e-08
2.9074e-08
-4.01444e-07
1.02679e-06
-4.03045e-07
3.20755e-08
3.70073e-07
-1.05806e-06
3.15512e-08
-1.05524e-06
3.71063e-07
-4.02335e-07
-1.05722e-06
1.02801e-06
-3.72515e-07
4.02621e-07
-6.55323e-07
-2.96128e-08
-2.96485e-08
-6.56339e-07
-6.18082e-07
-3.13425e-07
6.19157e-07
-3.15702e-07
-6.15424e-07
6.18088e-07
6.22305e-07
-6.21892e-07
-3.1489e-07
3.11258e-07
-6.18725e-07
-3.14001e-07
6.21468e-07
-3.05372e-07
-9.32e-07
6.1929e-07
-9.33911e-07
-3.06193e-07
-3.14549e-07
-6.17799e-07
-6.11311e-07
-3.18761e-07
6.16784e-07
-3.21796e-07
-6.0778e-07
6.14469e-07
6.21394e-07
-3.1971e-07
-6.16967e-07
3.11495e-07
-3.18961e-07
-6.12463e-07
6.19929e-07
-2.97561e-07
-9.30651e-07
6.16901e-07
-9.33366e-07
-2.99741e-07
-3.19415e-07
-6.11713e-07
-6.25687e-07
6.25643e-07
-3.1428e-07
-3.16294e-07
6.2598e-07
-6.23901e-07
6.28769e-07
-3.13094e-07
-6.28598e-07
3.13314e-07
6.27342e-07
-3.13954e-07
-6.26701e-07
-3.11522e-07
-9.40707e-07
6.26542e-07
-9.41204e-07
-3.13603e-07
-3.13791e-07
-6.26037e-07
-6.20025e-07
3.1068e-07
-3.14596e-07
6.23941e-07
-3.16648e-07
3.10433e-07
-6.17964e-07
6.2418e-07
6.26707e-07
3.12506e-07
-3.14515e-07
-6.24697e-07
3.09584e-07
-3.14818e-07
-6.21079e-07
6.26312e-07
-3.09895e-07
-9.35062e-07
6.24932e-07
-9.37209e-07
3.10666e-07
-3.10841e-07
-3.14637e-07
-6.21343e-07
-9.31692e-07
-3.02137e-07
6.18405e-07
6.22983e-07
-3.07874e-07
-9.37001e-07
-3.07475e-07
-9.33662e-07
6.22412e-07
6.16248e-07
-3.04787e-07
-9.33371e-07
6.21911e-07
-3.16919e-07
-3.1146e-07
-3.03313e-07
-3.11734e-07
-3.16506e-07
6.21293e-07
-9.35715e-07
-9.34032e-07
3.11647e-07
-9.35395e-07
3.05184e-07
-9.38785e-07
3.17358e-07
-9.38842e-07
-6.15278e-07
-6.22067e-07
-6.23046e-07
-6.19286e-07
-9.37148e-07
-3.13322e-07
-3.08912e-07
-3.14766e-07
-3.0855e-07
-3.14432e-07
-3.1674e-07
-3.06198e-07
9.38566e-07
-3.11709e-07
-3.14352e-07
6.24491e-07
-6.2307e-07
-3.14743e-07
-6.19774e-07
6.25849e-07
-3.10352e-07
-6.22111e-07
9.39706e-07
-6.24073e-07
-6.24731e-07
-6.16863e-07
3.07232e-07
-6.20038e-07
-3.12693e-07
3.17124e-07
3.16661e-07
-3.12792e-07
-6.20862e-07
-3.23919e-07
-6.287e-07
-1.99285e-07
1.1813e-06
-3.23312e-07
-6.46828e-07
-2.1116e-07
-2.13108e-07
-3.23627e-07
-6.40784e-07
-6.41971e-07
-3.21771e-07
-2.05847e-07
-9.64246e-07
8.47238e-07
-2.0691e-07
8.57858e-07
-6.40805e-07
-9.66632e-07
-3.21881e-07
-3.22406e-07
1.19689e-06
-6.52553e-07
-2.21927e-07
1.20549e-06
-6.54951e-07
-2.30046e-07
-3.20489e-07
-2.29779e-07
1.2051e-06
-6.5484e-07
-3.20478e-07
-6.53025e-07
1.20237e-06
-2.28086e-07
-3.21263e-07
-9.75141e-07
8.79888e-07
-2.27153e-07
8.84503e-07
-6.54158e-07
-9.75359e-07
1.20222e-06
-3.20635e-07
-3.22371e-07
-2.22321e-07
-6.48944e-07
1.20501e-06
-2.29757e-07
-6.54731e-07
-3.20524e-07
-2.29958e-07
-6.5426e-07
-3.20624e-07
-6.52655e-07
-2.26863e-07
-3.21136e-07
-9.74504e-07
8.78171e-07
-2.26038e-07
8.8446e-07
-6.53952e-07
-9.75068e-07
-3.20566e-07
-3.21726e-07
-6.50223e-07
-2.08813e-07
1.19991e-06
-6.52855e-07
-2.25006e-07
-3.22048e-07
-2.23675e-07
-6.52736e-07
-3.21436e-07
-6.54872e-07
-2.1495e-07
-3.23963e-07
-9.77221e-07
8.74465e-07
-2.1897e-07
8.77847e-07
-6.5516e-07
-9.76273e-07
-3.22101e-07
8.68294e-07
-9.73106e-07
-2.185e-07
-2.18958e-07
-9.72032e-07
8.67363e-07
-9.71483e-07
8.62131e-07
-2.12418e-07
3.22759e-07
-9.75488e-07
8.7756e-07
-2.24831e-07
1.19215e-06
6.49908e-07
-9.73761e-07
6.51308e-07
1.19036e-06
-2.17697e-07
8.70189e-07
8.74152e-07
-6.50373e-07
-6.53992e-07
8.80877e-07
9.74446e-07
8.84227e-07
-6.53576e-07
-1.19509e-06
8.7162e-07
-6.48563e-07
-3.2167e-07
2.22061e-07
2.2656e-07
-3.22147e-07
-6.50881e-07
8.7886e-07
6.48276e-07
-9.71273e-07
-9.7251e-07
1.20002e-06
-9.75315e-07
-8.75693e-07
-9.74042e-07
-2.18786e-07
-3.21984e-07
-3.21107e-07
-2.23754e-07
-9.73923e-07
-3.21974e-07
-8.79758e-07
-3.21147e-07
2.26669e-07
-3.21107e-07
9.75109e-07
-3.20639e-07
6.52745e-07
-1.20076e-06
-1.20094e-06
6.53212e-07
-3.21055e-07
2.91333e-07
6.81424e-07
2.36099e-07
-1.21594e-06
2.8897e-07
6.84123e-07
2.42843e-07
2.42393e-07
2.87574e-07
6.8475e-07
6.82917e-07
2.90574e-07
2.39776e-07
9.73055e-07
-9.20781e-07
2.39059e-07
-9.27139e-07
6.84258e-07
9.73086e-07
2.8834e-07
2.86212e-07
-1.22125e-06
6.8365e-07
2.51389e-07
-1.21295e-06
6.7262e-07
2.55243e-07
2.85091e-07
2.50456e-07
-1.20898e-06
6.75026e-07
2.83503e-07
6.76489e-07
-1.2212e-06
2.57219e-07
2.87491e-07
9.63284e-07
-9.33036e-07
2.55964e-07
-9.24901e-07
6.75231e-07
9.5963e-07
-1.21618e-06
2.85185e-07
2.83803e-07
2.47315e-07
6.86447e-07
-1.20681e-06
2.47253e-07
6.76166e-07
2.83395e-07
2.44585e-07
6.77451e-07
2.8364e-07
6.77421e-07
2.49442e-07
2.84242e-07
9.61485e-07
-9.23074e-07
2.45392e-07
-9.22852e-07
6.77524e-07
9.62059e-07
2.83792e-07
2.91299e-07
6.84288e-07
2.43423e-07
-1.22714e-06
6.80517e-07
2.56017e-07
2.90607e-07
2.5214e-07
6.79278e-07
2.87035e-07
6.81449e-07
2.47324e-07
2.92617e-07
9.73547e-07
-9.31945e-07
2.49697e-07
-9.33259e-07
6.79664e-07
9.70545e-07
2.89426e-07
-9.29451e-07
9.712e-07
2.47221e-07
2.44412e-07
9.70696e-07
-9.27534e-07
9.74247e-07
-9.26906e-07
2.43232e-07
-2.88934e-07
9.67381e-07
-9.30978e-07
2.5253e-07
-1.21717e-06
-6.83696e-07
9.71418e-07
-6.84422e-07
-1.22128e-06
2.48647e-07
-9.31451e-07
-9.33753e-07
6.83702e-07
6.79978e-07
-9.33797e-07
-9.6192e-07
-9.23503e-07
6.76439e-07
1.21727e-06
-9.31759e-07
6.85182e-07
2.85923e-07
-2.48258e-07
-2.50275e-07
2.85566e-07
6.83449e-07
-9.26629e-07
-6.84017e-07
9.70329e-07
9.72936e-07
-1.21634e-06
9.65883e-07
9.27037e-07
9.65317e-07
2.46988e-07
2.86834e-07
2.88473e-07
2.48207e-07
9.65664e-07
2.85885e-07
9.29312e-07
2.85446e-07
-2.5509e-07
2.87176e-07
-9.59944e-07
2.83693e-07
-6.77021e-07
1.2083e-06
1.21795e-06
-6.78275e-07
2.8459e-07
4.7771e-07
-9.60955e-07
4.83245e-07
-1.63902e-08
4.5798e-07
-9.61164e-07
5.19574e-07
-9.81294e-07
4.89686e-07
4.91608e-07
5.31877e-07
5.18298e-07
-1.05017e-06
1.00295e-06
4.7525e-07
-1.00049e-06
4.71462e-07
5.15095e-07
1.00713e-06
4.97295e-07
3.9198e-07
-2.94233e-08
-7.98351e-07
4.35794e-07
-3.20202e-08
-7.19291e-07
3.62086e-07
3.89224e-07
-7.73667e-07
-2.8744e-08
3.86344e-07
4.16067e-07
4.11829e-07
-3.17509e-08
-7.61788e-07
3.81711e-07
8.15919e-07
3.5609e-07
-7.8003e-07
3.53886e-07
4.30013e-07
8.01124e-07
-3.32053e-08
3.81343e-07
4.60286e-07
-9.38571e-07
4.78285e-07
-2.24824e-08
-8.84267e-07
4.36588e-07
4.70161e-07
-9.20784e-07
4.44336e-07
4.76448e-07
4.74098e-07
-9.03025e-07
4.28928e-07
1.0068e-06
4.4431e-07
-9.90828e-07
4.63041e-07
5.21281e-07
9.18407e-07
4.60665e-07
4.80675e-07
5.09478e-07
-9.90153e-07
-2.54896e-08
4.4982e-07
-8.25607e-07
4.01277e-07
-8.67575e-07
4.59398e-07
4.08177e-07
4.55391e-07
-8.73149e-07
4.17759e-07
1.00131e-06
4.17239e-07
-9.37874e-07
4.35237e-07
5.40583e-07
8.7263e-07
4.40291e-07
4.08781e-07
9.76153e-07
-9.26953e-07
-1.01449e-06
1.04209e-06
4.62085e-07
1.06441e-06
4.64189e-07
-1.0103e-06
-4.33265e-07
9.07842e-07
3.94353e-07
-8.68931e-07
-3.71524e-08
-4.79809e-07
9.25742e-07
-5.5435e-07
-3.89372e-08
-8.74136e-07
4.71119e-07
4.29803e-07
5.16926e-07
4.73733e-07
4.02359e-07
-9.28426e-07
4.16814e-07
4.82867e-07
2.58503e-08
4.74158e-07
5.42085e-07
4.32855e-07
9.22691e-07
8.73382e-07
4.58786e-07
4.89755e-07
4.03743e-07
-4.84136e-07
9.46221e-07
9.73667e-07
-3.65197e-08
8.80693e-07
-4.38252e-07
8.9765e-07
-9.50414e-07
4.66278e-07
4.94371e-07
-9.98435e-07
1.02646e-06
4.81808e-07
-4.58894e-07
4.53518e-07
8.63034e-07
4.20017e-07
-9.01792e-07
4.3434e-07
-5.40117e-07
3.10979e-08
2.74503e-08
-4.66951e-07
4.23533e-07
4.37228e-07
-8.73112e-07
4.35883e-07
-1.05245e-08
4.67351e-07
-9.74014e-07
5.17188e-07
-8.93765e-07
4.50031e-07
4.43735e-07
4.64348e-07
4.72321e-07
-9.36669e-07
9.38185e-07
4.39647e-07
-9.40604e-07
4.43335e-07
4.84326e-07
9.03995e-07
4.53564e-07
4.23005e-07
-3.3208e-08
-8.56507e-07
4.6671e-07
-3.71695e-08
-7.63709e-07
3.88256e-07
4.12622e-07
-8.23067e-07
-3.19792e-08
4.13014e-07
4.42032e-07
4.32858e-07
-3.19034e-08
-7.97878e-07
3.96923e-07
8.8021e-07
3.81438e-07
-8.38644e-07
3.81679e-07
4.61361e-07
8.50278e-07
-3.59813e-08
4.0889e-07
4.29092e-07
-8.57309e-07
4.28218e-07
-2.30984e-08
-8.62137e-07
4.28377e-07
4.56859e-07
-8.60364e-07
4.15591e-07
4.44772e-07
4.45403e-07
-8.57328e-07
4.11925e-07
9.21746e-07
4.21438e-07
-9.14093e-07
4.30367e-07
4.68281e-07
8.66841e-07
4.36844e-07
4.64309e-07
4.75822e-07
-9.40131e-07
-2.38776e-08
4.49622e-07
-8.4039e-07
4.14645e-07
-8.32824e-07
4.35002e-07
3.97822e-07
4.32868e-07
-8.41846e-07
4.08977e-07
9.44061e-07
4.0719e-07
-8.86942e-07
4.22564e-07
4.97619e-07
8.40058e-07
4.29799e-07
4.15356e-07
9.93342e-07
-9.41348e-07
-9.17419e-07
9.38524e-07
4.28926e-07
9.71702e-07
4.41578e-07
-9.40958e-07
-4.34709e-07
8.9844e-07
3.98593e-07
-8.62324e-07
-3.38451e-08
-4.67376e-07
9.16577e-07
-4.977e-07
-3.64848e-08
-8.656e-07
4.37517e-07
4.37566e-07
5.22568e-07
4.64183e-07
4.02353e-07
-9.16911e-07
4.06503e-07
4.78429e-07
2.40743e-08
4.31872e-07
4.82578e-07
4.40659e-07
9.13484e-07
8.68861e-07
4.52149e-07
4.85409e-07
4.041e-07
-4.44987e-07
8.73913e-07
9.17399e-07
-3.05522e-08
8.78767e-07
-4.22233e-07
8.57235e-07
-8.87673e-07
4.42686e-07
4.67244e-07
-9.3431e-07
9.54764e-07
4.48475e-07
-4.37525e-07
4.37432e-07
8.57365e-07
4.23755e-07
-8.85151e-07
4.29517e-07
-4.92366e-07
2.67487e-08
2.48726e-08
-4.54303e-07
4.27935e-07
-5.57002e-07
1.21456e-06
-6.57553e-07
2.06142e-08
-4.22615e-07
8.86923e-07
-4.84923e-07
-5.57543e-07
-5.25796e-07
1.08334e-06
1.01839e-06
-4.9164e-07
-5.26751e-07
5.26935e-07
-4.92674e-07
-5.91263e-07
-4.65178e-07
1.01273e-06
5.25717e-07
-4.97003e-07
-3.6634e-07
2.86765e-08
7.34549e-07
-3.96885e-07
3.73573e-08
6.72944e-07
-3.4855e-07
-3.61752e-07
-3.75708e-07
3.07927e-08
7.08567e-07
-3.63651e-07
6.99443e-07
3.03583e-08
-3.60073e-07
-3.69729e-07
3.41353e-07
-3.30595e-07
-3.77098e-07
-3.22639e-07
7.01349e-07
3.42654e-07
2.61942e-08
-3.55693e-07
-5.02783e-07
-5.15489e-07
1.01827e-06
2.39463e-08
-4.07556e-07
7.94363e-07
-4.10753e-07
-4.78493e-07
9.26997e-07
-4.48504e-07
9.09313e-07
-4.66592e-07
-4.42722e-07
4.43288e-07
-4.62334e-07
-4.83736e-07
-4.26175e-07
8.93409e-07
4.46979e-07
-4.57689e-07
-4.73714e-07
9.68038e-07
-4.94325e-07
1.59102e-08
7.78249e-07
-3.91918e-07
-4.02241e-07
-4.68806e-07
9.16495e-07
-4.4769e-07
9.07817e-07
-4.46057e-07
-4.6176e-07
4.80389e-07
-4.5384e-07
-5.00263e-07
-4.66253e-07
9.62551e-07
4.53977e-07
-4.81082e-07
-3.8937e-07
4.0718e-07
-4.40425e-07
-5.22397e-07
4.9024e-07
-4.9364e-07
5.13172e-07
-4.77099e-07
-5.27714e-07
3.95947e-07
3.89212e-07
-3.76846e-07
-4.08313e-07
1.15639e-08
-8.06666e-07
4.05731e-07
-1.00784e-06
1.85208e-08
-4.29239e-07
-4.76145e-07
-3.7628e-07
8.12136e-07
7.8759e-07
-3.6802e-07
-3.83882e-07
-3.63351e-07
7.78025e-07
-2.08161e-08
-4.62535e-07
9.73591e-07
-4.00579e-07
4.3003e-07
4.13205e-07
-4.09217e-07
8.1843e-07
-3.79894e-07
-9.83774e-07
4.90133e-07
4.90939e-07
1.44767e-08
3.86926e-07
4.63036e-07
4.53459e-07
-4.98416e-07
-4.85358e-07
-4.83622e-07
-4.93407e-07
4.71084e-07
-4.87891e-07
4.6308e-07
-4.76213e-07
4.02945e-07
-3.84039e-07
-3.82906e-07
-3.88002e-07
-9.53914e-07
-1.7714e-08
-1.97498e-08
-7.80514e-07
-3.97319e-07
4.11767e-07
-7.90871e-07
3.79104e-07
4.52215e-07
4.71079e-07
-9.23294e-07
-2.4029e-08
4.56552e-07
-8.53065e-07
4.20542e-07
-8.11761e-07
4.36042e-07
3.75719e-07
-3.90513e-07
8.0228e-07
9.43319e-07
-8.81618e-07
-4.16298e-07
4.06817e-07
5.02992e-07
5.29088e-07
4.95444e-07
-1.02453e-06
5.53008e-07
-1.15606e-06
6.03048e-07
-3.09313e-08
4.42469e-07
-9.34168e-07
5.2263e-07
-1.00983e-06
4.88406e-07
5.21427e-07
-4.83299e-07
1.01239e-06
1.16318e-06
-1.09347e-06
-5.0924e-07
5.11795e-07
6.23012e-07
4.20224e-07
-2.40361e-08
-7.83058e-07
3.86869e-07
3.88047e-07
-2.70561e-08
-7.99735e-07
4.38743e-07
-2.67602e-08
-7.3199e-07
3.63667e-07
3.95084e-07
-7.79876e-07
-2.36473e-08
3.82925e-07
4.20599e-07
-3.63719e-07
8.07701e-07
-2.37576e-08
8.03422e-07
-7.79093e-07
-3.57888e-07
3.85712e-07
4.18774e-07
4.58744e-07
-8.65566e-07
4.06823e-07
4.37774e-07
-8.99317e-07
4.61543e-07
-1.92667e-08
-8.75256e-07
4.25022e-07
4.69501e-07
-8.82441e-07
4.26463e-07
4.55978e-07
-4.28109e-07
8.86853e-07
9.5487e-07
-9.45206e-07
-4.35274e-07
4.39686e-07
5.00329e-07
9.00932e-07
-4.29852e-07
-2.8891e-08
-3.97867e-07
8.8331e-07
-4.21724e-07
8.57766e-07
-4.51205e-07
-4.3797e-07
8.89175e-07
4.63821e-07
8.95244e-07
-4.58134e-07
9.37922e-07
4.44039e-07
9.60237e-07
1.02921e-06
-9.63618e-07
-1.0233e-06
1.07373e-06
3.96622e-07
9.24967e-07
-8.79119e-07
-4.24504e-07
8.87807e-07
-8.6117e-07
5.44553e-07
2.65226e-08
3.30529e-08
4.73929e-07
-8.71911e-07
9.03604e-07
8.64882e-07
-4.01179e-07
4.19606e-07
-4.33627e-07
4.25827e-07
4.62849e-07
-4.72991e-07
-8.96649e-07
-3.96159e-07
4.17551e-07
-2.10115e-08
4.67208e-07
4.18686e-07
5.05599e-07
-2.32413e-08
-4.062e-07
4.62592e-07
-8.86984e-07
4.67178e-07
2.48184e-08
5.75923e-07
4.07899e-07
4.90012e-07
8.55491e-07
-4.16656e-07
-4.37694e-07
8.94847e-07
4.81972e-07
-5.35631e-07
1.15774e-06
-6.22103e-07
1.44124e-08
-4.10113e-07
8.73987e-07
-4.78287e-07
1.00234e-06
-4.82937e-07
-5.19406e-07
-5.25136e-07
-4.86692e-07
1.01183e-06
-1.10919e-06
-4.88532e-07
1.0621e-06
-4.94852e-07
-5.99929e-07
-1.01367e-06
-5.06179e-07
-3.59082e-07
2.68111e-08
7.29518e-07
-3.97247e-07
3.70039e-08
6.70233e-07
-3.46092e-07
-3.61145e-07
6.92602e-07
2.78966e-08
-3.49724e-07
-3.70774e-07
-3.73655e-07
2.90006e-08
7.06717e-07
-3.62063e-07
-7.43519e-07
-3.20942e-07
7.05379e-07
-3.23124e-07
-3.83391e-07
-7.25622e-07
3.10255e-08
-3.56144e-07
-4.60572e-07
9.3711e-07
-4.7654e-07
2.11024e-08
7.63264e-07
-3.83497e-07
-4.00869e-07
8.92329e-07
-4.49692e-07
-4.42637e-07
-4.51847e-07
8.89949e-07
-4.38103e-07
-9.41519e-07
-4.56545e-07
9.37492e-07
-4.39189e-07
-4.81228e-07
-9.08393e-07
-4.55253e-07
-4.78496e-07
-4.98124e-07
9.76621e-07
1.67685e-08
-4.16339e-07
8.12961e-07
-4.13391e-07
8.85759e-07
-4.45589e-07
-4.4017e-07
-4.63097e-07
9.26057e-07
-4.6296e-07
-9.72019e-07
-4.23759e-07
9.17282e-07
-4.67769e-07
-4.87482e-07
-8.86856e-07
-4.68866e-07
-3.71002e-07
-8.54355e-07
8.15242e-07
1.00114e-06
-1.01769e-06
-4.66385e-07
-9.83756e-07
-4.56034e-07
9.53098e-07
3.96329e-07
-7.99667e-07
-3.68714e-07
7.72053e-07
1.24727e-08
4.11338e-07
-7.94813e-07
5.0743e-07
1.4732e-08
7.92935e-07
-4.61594e-07
-3.76384e-07
-4.5116e-07
-4.05271e-07
-3.65396e-07
7.96879e-07
-3.61446e-07
-4.07537e-07
-1.39555e-08
-4.72893e-07
-5.30842e-07
-3.86056e-07
-7.85142e-07
-7.60302e-07
-3.95111e-07
-4.03987e-07
-3.58534e-07
4.70076e-07
-9.36463e-07
-9.54159e-07
1.39666e-08
-7.9902e-07
4.54246e-07
-8.99836e-07
9.41151e-07
-4.71075e-07
-4.74602e-07
9.48117e-07
-9.64947e-07
-4.72246e-07
4.56808e-07
-4.66695e-07
-7.74149e-07
-3.90267e-07
7.83178e-07
-3.81361e-07
4.86157e-07
-2.09119e-08
-2.19826e-08
4.03732e-07
-3.92399e-07
-4.86127e-07
9.79806e-07
-4.93677e-07
-4.97531e-07
-4.9055e-07
9.88082e-07
9.25763e-07
-4.69965e-07