/*--------------------------------*- C++ -*----------------------------------*\
| =========                 |                                                 |
| \\      /  F ield         | OpenFOAM: The Open Source CFD Toolbox           |
|  \\    /   O peration     | Version:  2506                                  |
|   \\  /    A nd           | Website:  www.openfoam.com                      |
|    \\/     M anipulation  |                                                 |
\*---------------------------------------------------------------------------*/
FoamFile
{
    version     2.0;
    format      ascii;
    arch        "LSB;label=32;scalar=64";
    class       surfaceScalarField;
    location    "1600";
    object      phi;
}
// * * * * * * * * * * * * * * * * * * * * * * * * * * * * * * * * * * * * * //

dimensions      [0 3 -1 0 0 0 0];

oriented        oriented;

internalField   nonuniform List<scalar> 
86544
(
8.58311
-6.05608
-2.63017
0.102706
-8.33927
13.4071
-5.98766
0.920182
-2.44995
5.76359
-3.84516
0.531775
0.592159
7.46704
-4.8025
-3.25728
11.8652
2.45062
-5.73279
2.64832
0.877462
7.45225
-4.4097
7.65048
13.3348
-11.7311
-3.14427
1.54187
-14.7959
12.776
-0.486097
2.50486
-0.563148
-7.24337
6.87953
0.928896
1.24065
-9.86871
8.97086
-0.339823
14.6404
0.451592
-1.75643
-1.79887
1.64372
10.2239
-8.53041
7.86203
3.57803
-1.068
-2.91547
0.406359
-3.86397
-0.679568
3.93968
0.60497
-0.284366
-2.55157
2.47514
0.360914
0.363311
-0.311118
-3.03189
2.9799
4.32874
0.207177
-0.957488
-0.129645
0.594386
3.27034
-2.69996
2.85656
5.52754
0.546967
-4.8949
-1.17936
-5.96356
1.03535
5.26091
-0.330504
-0.284854
0.610972
-3.83638
3.51023
0.860022
-4.33919
4.05133
-0.571494
6.37582
-0.344304
-0.503936
-0.837658
1.25002
4.56103
-4.04556
3.43867
2.15225
15.0756
-3.82087
-2.69448
7.25864
1.19951
8.97313
1.01758
-2.5241
-8.26981
9.55945
-0.523431
-0.765524
-6.10742
-0.941093
9.20004
-1.15155
-7.09924
-2.11204
0.722376
1.97418
1.37025
1.10338
-1.41235
-8.14333
0.0805777
0.819832
5.61769
1.01586
0.625274
9.19792
1.97639
1.77096
6.87775
0.716257
0.505524
-0.292511
4.86106
-3.36862
5.7137
-4.14924
-5.79855
6.31135
-0.0563177
4.11427
-3.4464
-0.915999
4.26154
-3.63774
5.52039
-0.971863
5.17784
4.80919
0.529626
3.27406
0.0809583
4.81926
-5.53095
4.93294
-0.599144
4.45138
5.10884
-0.573857
4.61652
-0.395813
-3.47349
-2.1868
-2.13717
-0.265008
-1.44296
3.99575
-0.0522056
-2.41161
-1.53213
-1.58963
-1.02309
-2.18989
-2.07123
-2.73454
-2.34982
-1.8588
-1.94998
-2.37434
-0.304107
-0.602168
-1.25525
-1.05796
-0.830532
-0.769917
-0.951097
2.47166
-1.04393
-0.465864
-0.961958
-1.19341
-0.896454
-0.941942
-1.70549
-1.59683
-1.47331
-1.06278
-1.73194
-1.05833
-0.733575
0.0256347
3.1563
-2.0093
-1.17263
-1.31371
2.44404
-0.197594
-0.932542
2.36565
-1.58364
0.0977829
-0.879788
-1.18664
3.102
-1.62269
-0.292523
-1.09795
-1.6688
2.79273
-1.34704
-1.06464
-1.10423
-1.75118
-0.0855678
-1.05886
-1.71978
-2.11615
-1.24829
-1.34901
-1.23915
3.66134
-1.32259
-1.60471
-0.734128
-1.44833
-1.37013
-1.52065
-2.3953
-2.7092
-2.28497
-1.35872
-2.42652
-1.73107
-1.0502
-2.03353
-1.59997
3.5025
-1.48009
-2.07495
-2.50744
-2.6651
0.929935
-2.1457
-2.23018
-1.70123
1.45718
-1.78954
1.49712
-1.25067
-2.26109
-1.72701
-1.12819
-1.20781
-1.83439
1.35065
-1.4361
-0.95832
1.71864
-1.81359
-1.38516
-0.442769
-3.07369
-2.70869
-0.20978
-1.14517
-1.56776
1.46882
-1.51297
-2.03084
-2.16727
-2.2176
-1.36335
-2.21592
2.1432
-1.72677
-1.73892
3.63176
-0.473
-1.68998
-0.796632
3.5187
-1.84858
-0.170139
1.907
-0.531757
-3.12848
-0.921819
1.37175
-0.363805
1.19196
1.43066
1.25037
1.23465
-0.643491
2.27325
0.503094
-2.51428
-0.262111
0.817285
1.25202
-1.88377
-0.185528
-2.5321
2.25969
0.648532
-0.376115
-0.406666
1.5665
1.14147
-2.3013
1.72449
2.71481
-2.16593
2.81312
-0.271315
1.66567
0.642502
1.94672
0.569811
1.18533
-1.67553
-0.0794017
1.43902
-0.228597
-1.33057
0.120117
-1.90522
1.60576
0.480222
-0.180875
0.0438184
1.62238
-0.14672
-1.51937
0.381207
1.71041
-1.52203
1.8416
-0.021431
0.375467
1.37871
0.311951
2.62698
-2.9919
0.978481
-0.613779
1.3228
-2.72958
1.93874
-0.532359
-3.42578
3.30674
0.946258
-0.827722
-0.452942
-3.05261
2.07404
1.43133
1.98034
3.89735
-3.25097
4.01991
-0.716957
2.2497
1.19451
2.84379
1.15451
-0.157096
1.44568
-2.44295
1.8085
0.0500421
-0.043228
-1.81534
-3.06356
-0.214803
1.69394
1.5845
0.366348
0.0510714
1.74526
-2.16231
0.843989
2.52869
-2.21808
2.89799
-0.245587
1.38265
1.51233
1.21716
2.16805
0.949028
-1.86535
-2.64956
1.85563
3.05356
1.16836
2.62122
-2.22326
-0.707581
0.491071
2.05678
-1.84009
1.07391
0.17663
0.91753
0.371033
1.35993
-1.89101
2.8993
2.3426
-0.208287
-0.0894188
2.2031
-1.06448
3.08205
-0.411881
-1.17094
3.47321
-0.446802
1.04626
2.21371
2.33552
1.46305
-0.420385
2.73403
0.286314
1.90742
0.859719
1.31857
1.14545
1.49263
0.614324
-3.28929
1.64135
1.43262
-2.54869
1.63359
1.20129
1.66909
-2.91614
1.26018
2.3887
-3.36582
1.95467
2.3623
0.455322
-1.1381
1.49052
0.466544
-1.32893
-1.6391
0.267002
0.990519
2.1499
0.0971184
0.201413
3.39691
0.342337
-2.6371
2.91302
0.204704
0.13165
2.70205
2.52489
2.48178
2.6015
0.125414
2.92554
2.89022
6.33938
0.0733216
0.467538
-0.0178862
10.4339
2.35991
-7.83146
-2.38836
8.49936
1.72143
1.29655
-0.287999
7.9635
7.75995
6.44301
6.50562
1.23753
9.07186
-1.33155
7.74659
3.82618
-2.45383
0.566535
-3.45374
-3.90246
5.76169
1.59403
-1.64934
3.70761
1.24787
1.24133
-2.80607
3.63815
5.01491
0.850783
-2.04026
0.557899
1.00297
4.93576
3.84409
3.02372
0.443662
-0.506538
0.691393
5.07669
-2.91344
1.2683
3.33965
0.565129
3.53779
4.13541
2.32724
2.4821
1.14745
4.10973
3.67863
3.89674
4.43354
-2.85839
3.73777
2.03397
3.40638
2.57035
-4.6708
5.65786
3.83303
-0.459503
-0.200991
4.55858
-0.427231
-0.254699
2.7249
4.1217
0.38635
1.02071
4.35026
-5.98821
2.30416
1.29573
1.06896
2.14626
0.522707
4.55668
4.12375
4.24577
4.72043
0.472194
2.97793
-0.501047
4.02573
3.46951
-1.43586
5.96079
-1.78498
5.00727
-2.88043
3.37007
3.31411
-3.02569
4.61076
3.7178
-1.89911
4.09968
4.64428
5.66632
-6.76622
5.16794
-0.912375
2.58964
1.79916
-1.19871
5.24453
-2.21665
11.0503
-6.33245
-2.49312
13.2949
8.61497
-9.40961
-12.4978
-21.3423
12.6272
-11.8745
20.6008
9.87247
4.06647
-10.8473
-3.08505
4.19861
1.096
-7.50348
14.549
2.95856
19.541
-8.56948
12.7465
-2.40411
22.7652
-7.09567
-13.2822
9.26192
-21.1784
13.657
-1.75214
-20.7742
38.322
-2.95181
-14.6185
8.91427
-1.14071
-10.5291
2.71399
-1.6378
10.2375
-11.0544
3.91424
3.67252
2.81727
16.3147
-14.0459
80.2479
-61.3572
-93.4325
74.5558
81.3344
-50.8405
20.2188
-50.6712
-174.858
61.6584
-231.802
345.02
86.572
-59.726
-71.5784
44.753
-38.225
137.988
-19.4775
154.531
-111.358
57.1409
167.43
36.8319
-15.4826
9.91148
6.98088
-1.41614
22.7227
4.42295
-31.0194
3.87809
-1.57911
43.6501
-16.3331
-25.7395
-0.886828
-5.77601
17.8927
-11.2333
-21.7777
12.5833
-6.2924
-5.00818
5.98476
-2.20912
13.8908
-8.79338
21.4373
-0.0616716
-12.7627
-20.9747
-0.461737
34.0804
0.0884815
15.062
-11.0808
-0.284746
3.80057
-3.20467
-0.377079
12.4698
6.39855
2.55835
4.24364
13.981
-7.86624
18.3172
37.464
-14.7598
-1.9518
4.55969
-4.68078
66.8366
-23.8197
-42.0376
50.2582
-8.66086
9.56095
30.4557
23.9487
15.6012
-27.1679
34.928
9.52919
0.398341
24.1675
11.7788
13.1976
-6.35291
7.57522
13.9292
44.4702
-14.6964
-25.5707
-3.10011
38.2121
4.52821
-4.16006
15.0171
-10.6803
-62.3665
47.1447
30.4139
-18.2747
-5.4701
21.4748
5.32633
-35.4359
-42.0145
-5.9647
-17.5643
-153.588
124.3
41.4002
-12.0878
-0.278891
48.8059
-78.3336
29.8017
249.686
-353.202
204.728
-101.15
-61.5799
-96.8525
64.3413
94.106
-195.673
-162.193
204.327
-145.727
-50.2054
-458.464
234.763
-354.498
-19.8282
8.9287
10.2801
0.512739
19.9078
3.29704
-15.3313
-7.89902
-19.49
76.2884
-30.6915
-26.1435
9.495
-20.7798
19.2912
-8.04042
-25.0538
15.6549
-10.4936
13.8669
-19.021
23.0483
2.05396
17.4107
-688.901
734.472
452.256
-497.82
207.078
-145.205
27.6167
-89.5143
163.201
169.201
-386.183
53.7907
14.7222
25.0734
-23.7097
-16.0767
-522.051
-104.106
-62.74
-101.209
-213.761
-153.858
64.4586
-91.8682
82.2065
82.3064
-77.9952
-86.5215
-43.9804
17.05
28.6068
-1.67169
-24.3719
-0.0344249
-18.8343
43.2498
4.8946
3.31159
-11.4475
3.24953
108.035
10.5441
-36.3636
-2.789
66.8442
63.7418
-48.3064
36.5809
31.147
40.2697
-22.6536
296.673
-507.572
-142.264
-137.525
40.7708
-0.113476
-75.1713
75.4694
38.3342
-38.6578
161.793
-1.13146
-129.48
103.968
6.51018
-82.8216
-27.0476
56.5899
-7.38
35.8971
18.794
109.059
8.53519
-41.3252
-18.8537
-274.514
-214.194
-27.6916
-45.195
10.2497
-53.2587
-10.7985
66.0486
81.1458
-416.848
193.47
204.108
-81.0405
-35.4288
90.8231
73.9096
-95.1081
21.1981
-48.8515
66.0562
63.9461
128.212
-159.627
299.609
43.1141
-27.6182
-42.402
40.7285
68.9019
-326.001
189.32
-220.701
201.076
51.2936
-58.8742
33.1593
-731.006
707.163
148.154
765.5
-751.078
190.321
-90.971
-52.7325
122.94
20.7213
96.5201
82.8859
-115.078
-572.311
76.0729
57.5033
135.687
-258.545
431.138
-292.018
-357.206
676.908
132.559
244.397
-13.534
55.5728
-2.95217
-32.3814
-20.2391
-75.0018
-245.067
-47.6725
14.4877
-15.1587
-106.892
39.1166
7.70383
16.6421
-12.0214
-12.3713
-10.9823
21.8034
-13.8026
16.5261
-33.3607
-4.34625
-7.75674
18.3982
-21.1762
-0.433587
-6.34134
14.4512
-10.8932
-0.528392
8.41303
-22.5153
37.7392
-25.4435
-90.2902
-41.3944
6.23524
23.5363
-15.8583
-38.6971
7.38724
-9.84801
-2.70676
-7.85872
-14.99
-29.1105
0.247084
-0.70904
73.3266
-630.932
-55.5075
18.6555
-15.8934
41.1726
-39.335
46.2262
15.2276
-40.2452
291.008
-106.746
-110.925
-56.5202
3.40986
-11.938
22.4413
23.5398
-4.48542
-55.2653
45.3293
-20.9283
-27.3468
31.7743
-19.6889
6.54892
-22.7014
-65.7096
11.9415
-62.1557
28.2342
-4.8871
29.7863
-14.9074
-30.7934
-19.657
-45.121
-19.3512
-14.6445
20.593
18.8467
-55.3058
45.7613
21.1646
-37.1465
14.1685
34.2932
7.46346
-17.9784
18.9699
-22.7643
22.3386
6.48632
-10.0452
32.9217
7.40694
-0.103035
0.563806
4.46088
-4.92658
-4.89062
9.51661
-2.6566
-1.97875
1.64975
-0.176132
4.64071
-6.12663
4.78584
0.623882
-0.109518
-5.29672
5.53003
-5.06863
-0.572642
-3.02608
3.65552
4.37244
-4.65654
2.99392
28.9629
-6.61629
-14.0774
-8.23525
60.3612
-139.904
-152.249
-70.7966
-5.22891
-17.3794
-11.5787
0.838378
-39.9243
61.4243
24.6339
-57.0668
148.686
-26.8548
33.4685
-20.4023
-0.680839
3.10025
3.93432
-6.34623
-7.11784
2.72321
-7.45007
8.79867
7.84277
-5.58454
0.918847
-4.54884
-5.77779
2.94473
-5.17604
1.58041
-14.5495
10.3883
2.79224
-7.04787
-0.555837
6.5347
-0.365409
-5.61472
-8.74012
-0.0493406
-5.84368
-6.70076
3.08859
-3.49036
12.6641
2.39514
-1.40601
11.3659
-4.42553
-7.50403
-5.4139
8.02666
8.44214
-0.205266
10.5794
11.2158
-12.2777
-1.8139
5.74185
-4.1108
8.30045
-2.69756
-4.97324
-15.6968
23.7048
13.9678
-21.9839
-2.98238
2.5684
10.9921
-1.80017
-4.91743
-8.20965
1.58689
8.44045
-3.82784
5.25265
19.3143
-7.45045
1.94781
0.345876
2.42035
-0.149652
3.46872
8.17036
11.2671
-6.97385
18.022
-4.32637
3.63015
-0.794504
3.13964
-6.45641
7.34209
-3.50518
-6.44453
20.3647
-3.11156
11.399
-5.20142
-4.56431
9.04511
-5.27578
4.36292
-5.94505
11.8778
6.09497
-7.90612
15.8618
-3.9857
1.1242
6.55909
5.09757
6.20852
-0.367536
2.3482
-1.52851
-0.452707
-0.155645
-0.921265
2.40889
-1.33258
2.10448
-0.788134
-1.16518
-0.151566
-1.60204
-1.01303
2.74732
-0.132784
-2.00673
-0.748633
2.38731
-0.825258
-1.33741
-2.12312
-0.227862
-0.844138
-1.31973
0.126108
2.23146
-1.03833
0.358843
-1.6237
1.95578
-0.691339
1.76706
0.289308
-1.39461
-0.662019
-0.73382
0.27145
-1.61043
2.07237
-2.39914
-1.11072
2.18963
-1.12502
-0.915602
-2.13935
0.294564
-1.49746
-1.19063
1.90827
-0.761871
0.0436488
0.237066
1.69094
-1.38944
-0.539161
1.49981
-1.34816
-0.387286
0.235211
-0.537279
1.89678
-1.73871
0.378602
-1.93409
-1.07328
1.81618
-1.05884
-0.638507
-1.83191
0.221008
-1.39112
-1.77179
-1.49591
2.96223
0.304706
0.40363
-0.883329
-2.0459
2.52488
2.42014
-0.695582
-2.22792
0.502969
-1.1011
-2.73671
3.10569
0.731548
-3.1475
-1.51538
2.89043
-1.51604
-1.22817
-3.04327
0.426496
-2.13935
-0.961759
-2.24951
2.28928
2.17529
-2.01368
-0.949955
-2.57351
-1.08966
2.64911
1.42171
-2.52883
-1.28344
2.38966
0.00660009
1.32384
-2.29294
1.33742
0.140622
2.60446
-1.09567
-1.00095
-1.12274
-1.01532
-1.24235
2.12499
-1.08057
-0.755717
-0.00970768
-0.992381
-1.012
-1.27345
-2.02064
-1.99442
-1.13357
-0.896912
-1.00317
1.04648
-2.04574
0.0489215
-2.61727
0.0312331
0.29011
-2.45718
1.28574
-2.27741
0.295669
2.33302
-1.46292
0.175956
-1.38005
2.3181
-2.49573
-1.13008
1.29209
-1.67307
-2.05227
-1.6475
1.99688
-1.38677
0.917856
-0.232183
-0.286003
0.761286
-1.57713
3.34277
2.32693
-2.67277
-2.13672
3.43165
2.08494
1.25679
1.88489
-1.35503
-3.14722
3.58503
1.69642
-2.1343
0.354127
1.16444
1.82456
1.33661
0.440456
-2.42333
3.03389
2.15374
-2.03183
1.97903
-1.79819
1.35586
1.14539
-1.39254
-2.097
-1.64516
1.55224
0.306494
0.572952
1.2743
1.1049
0.124047
-1.64814
1.77515
0.817773
-1.04294
-1.12585
0.914057
0.697679
-0.866353
-1.45326
0.86769
-1.03717
0.26543
0.672192
0.837436
0.823584
0.229915
-1.01107
2.64336
-2.59712
1.57487
-1.62117
-1.81111
-2.14544
1.84039
1.23062
-1.55376
-1.28158
-1.72179
1.90369
-1.55182
0.359247
0.257778
2.02637
0.487757
-1.93958
0.0126894
-1.47666
0.876681
0.249797
2.3055
1.00679
0.264397
0.613786
0.522362
1.17566
1.88709
-2.49539
0.067928
0.57254
1.85528
-1.79092
2.48597
0.181763
2.24977
-1.77061
1.76126
1.00155
1.87296
-2.60819
1.03105
-0.292056
0.930203
1.29894
1.00457
3.23338
-1.17874
-1.02304
1.83694
0.521801
1.64276
0.233179
-1.26229
0.404532
-1.8261
-1.67781
0.105064
-0.473292
0.206105
-1.28655
1.13702
1.75561
-1.24986
2.54314
1.07425
0.208197
2.05548
-0.665045
-1.08141
-0.186604
1.67705
1.21587
1.22028
1.55111
1.62709
-1.12416
-1.18889
1.83734
-0.725143
1.86057
-1.13567
0.259054
1.61945
-0.737391
1.76552
0.50407
0.576527
1.81736
-1.05433
1.66869
2.25806
-1.27977
-1.56001
2.50611
-1.23828
-1.45418
2.69188
0.393817
-1.03104
2.06847
2.52179
0.930629
0.961718
2.55756
-1.23325
2.28097
2.10721
-0.864741
-1.24303
-1.4592
-1.23663
2.69466
-1.28303
2.61275
-1.33098
0.444505
-1.64435
2.02395
-0.825063
2.28291
1.10797
-1.28424
0.823496
2.67065
-1.11872
2.21087
1.4195
0.568343
-0.542418
-0.732428
0.670703
1.6463
-1.69238
0.644353
1.63066
-0.582806
0.96097
1.10197
-0.317302
2.16249
0.769513
0.753837
0.676189
2.25091
-0.520402
1.31253
0.752336
1.94457
-0.86422
2.03568
0.688769
1.93081
0.834087
-1.77178
2.24487
0.959356
-1.11121
-0.279634
2.14294
-0.306741
-0.850112
0.773935
0.664746
0.422651
0.791132
-2.3433
0.888946
1.30331
0.732056
1.96386
0.843668
1.1531
2.14688
0.956598
-0.330101
2.03804
-1.01934
2.03549
-0.633187
-0.687375
2.31727
-0.992324
2.36072
-0.724435
-1.35341
1.7614
-0.738487
1.45592
-1.44473
2.21364
1.90524
-0.959398
1.67541
1.48614
1.62227
-2.52297
2.17508
-0.474589
1.09549
0.779621
-0.470899
1.79486
7.66727
0.951914
-6.29239
-3.29205
6.42446
1.5274
-4.65885
0.119868
1.99199
-0.0264308
-2.95557
3.51623
1.1355
2.9618
3.19431
1.51212
5.1953
-5.52474
2.06342
7.37878
2.57059
-5.34941
5.41704
-2.6367
-4.75972
3.70175
0.571965
3.48536
-4.70361
-1.92626
0.468718
-5.57173
4.76388
-0.643824
-4.43883
7.65444
-3.84431
-1.55886
2.11538
-6.08525
7.39294
0.429549
-5.84278
-3.64955
1.9364
-4.27515
0.249507
-1.52399
-2.96267
1.25758
2.75294
3.15006
1.4901
4.02163
-4.91847
1.46165
1.68242
-1.34085
1.23319
-3.44391
-0.173836
3.28777
1.32184
-0.661212
-0.464527
1.797
0.804074
-0.97879
1.85616
-1.40079
-1.23975
0.582885
1.58374
1.96199
2.88141
0.156041
1.4881
0.35026
1.4532
0.350236
1.71209
-3.82262
1.31854
-2.24221
4.74664
-3.52709
3.04859
2.06245
4.00773
-3.59956
2.82511
1.86123
0.461097
-3.84679
-0.993877
-3.25939
-2.24366
0.502358
-2.96251
2.54969
2.30513
-3.36502
4.20281
-1.67833
-2.87642
4.96978
-4.09842
-0.151017
1.1607
1.49548
0.896442
-3.42446
1.00834
0.407577
0.786258
0.75034
2.17147
3.50793
1.15628
1.4226
4.23052
-0.480705
-3.01677
-1.38228
2.41343
3.30704
3.35522
1.77359
3.06654
3.14693
-2.78527
3.65802
4.88888
-3.30568
2.76412
3.23326
2.9764
2.73012
6.46113
0.449273
0.522618
3.15315
5.70647
2.92332
4.78348
-3.07536
6.79179
-2.67885
4.52528
8.58708
-6.64961
-3.02904
3.73686
5.94421
5.69314
-2.54598
4.81726
11.1676
1.3649
1.31234
7.17717
9.64536
-2.58511
4.3085
2.8103
-3.31638
3.20047
-2.34336
-3.93019
2.86772
3.4046
-3.38585
2.89785
3.09927
2.73765
-3.39543
2.68026
6.05839
0.507925
-3.75663
0.46851
3.24634
5.4557
2.53815
2.267
2.7192
-1.6477
3.72196
3.00293
-3.45297
2.6669
2.41662
2.7466
1.89385
5.30868
0.637895
0.671621
2.98969
4.69733
1.91606
0.865498
7.96005
-4.04531
6.34479
0.464248
6.19421
0.635497
-3.37417
7.88813
1.15241
-2.32134
-4.00158
7.188
-3.44336
-2.13124
0.619682
0.800124
4.08449
4.47624
0.866085
-7.57186
0.310763
4.232
2.3903
0.515987
3.43828
3.37776
4.61035
5.26872
2.91677
4.08388
0.613732
-2.72032
5.3591
4.97738
-1.61327
6.48852
-0.707645
5.04909
-3.25361
2.32887
2.34384
-3.72026
5.34318
2.55887
-0.568902
2.2227
4.70319
2.65228
-5.72993
2.11143
-3.05711
1.85978
1.71734
-3.25629
3.16471
-51.4919
-14.1908
63.7226
1.94804
44.916
-42.2629
-6.28765
3.62803
-4.84277
-31.9104
25.6044
11.1664
16.4769
-22.677
-10.8275
17.0044
-41.4403
-12.0108
1.95148
-8.77709
12.2493
-18.6196
23.0637
-32.248
-27.0556
38.4751
4.34653
-15.7656
19.1806
-6.27616
14.3373
-27.2399
3.32952
26.3853
-20.1032
-9.60974
0.223261
27.9047
-27.8471
-0.278538
-38.9989
1.75865
10.1857
2.17155
-21.9898
-25.0264
27.01
-19.5254
28.1745
-5.83621
-3.18435
-19.111
-25.415
25.0333
12.0473
-11.6562
8.48475
0.237908
-0.503483
-8.22559
-20.7442
-7.20024
-49.1584
77.1123
9.81855
0.684028
17.6829
1.78223
-17.3754
-24.9967
5.02429
-14.7226
-26.5317
10.9023
-8.69319
24.3089
20.2897
11.2697
-25.4158
-6.15158
-2.69269
-15.1127
-25.0558
42.8571
3.89537
-23.0579
-6.45572
25.6152
-15.2075
-3.41346
-7.91598
-3.09748
8.17695
-19.5111
19.9804
-25.3048
-2.92465
-41.3273
1.98784
1.97894
-40.1762
6.28319
-21.4186
2.50128
-3.77725
28.8804
-28.295
3.36101
-3.94991
31.2538
-2.28144
-31.9089
0.983196
31.6895
-5.09814
11.2523
5.31804
-8.17075
1.92877
-2.31933
39.7984
-1.74193
-11.67
-47.0629
12.7515
-5.86103
-28.1478
1.55816
0.791475
-35.3436
-10.1593
5.24645
33.637
-29.5648
2.22788
-31.1426
44.5318
47.3105
-32.6871
12.963
-28.0589
-0.0279239
-28.9437
-73.9974
136.576
-48.838
-6.64946
-54.3867
-22.6497
-21.2985
-13.9607
9.10633
-44.1141
10.5181
12.7741
23.8817
-28.8481
-51.8057
-13.0844
-55.7835
-90.491
12.2253
-61.6354
6.72886
-21.4945
0.687643
53.3275
-63.8035
21.6236
-11.1469
17.5625
-38.5075
-18.9837
-56.5767
-90.9873
-56.5811
6.73526
-43.6569
-29.7693
-46.9111
-7.14493
3.08429
1.39815
0.966891
3.01774
-3.42352
2.59081
0.806148
3.15723
-6.55643
2.89463
0.091237
-3.09752
-4.19622
-3.53313
-5.38271
2.14786
-2.06922
1.42714
-4.86196
-39.8137
38.9453
-0.20606
1.07644
0.943602
8.38465
3.07897
-12.4019
24.6421
2.14116
-22.865
-3.91591
6.93561
14.5303
-18.4928
-2.97565
-27.9772
-35.1266
23.2909
-26.5455
-0.485762
-18.937
-9.25423
-20.8399
-15.659
12.5646
-2.75318
-1.82252
6.40092
-4.94483
6.95583
7.64784
-12.2469
-2.36228
8.17656
-6.33493
0.550697
-9.26605
-13.9054
-14.4183
3.3252
-2.83634
-2.8951
-10.2997
-15.5676
-18.2116
46.6614
-53.8951
-56.5718
-25.3724
-35.1284
14.1587
-7.03467
-12.0958
1.77216
-4.26118
-13.0823
1.52159
1.68605
-22.1698
-14.7726
-0.359748
3.04888
-9.99185
12.9912
-11.0145
-1.16293
-2.57331
-41.7529
-9.5652
-13.2157
-14.6401
-8.73705
-16.2347
-0.976023
-11.9769
-15.1588
-23.9416
-17.4724
-8.92041
-13.6466
-1.66554
-4.0299
24.9532
-10.8892
-6.4193
13.7389
-24.98
-3.92435
-17.3532
15.6935
-15.7235
-26.7484
19.9968
-16.3569
-7.10474
-6.91708
7.33422
-9.96122
-3.46733
0.0101194
0.805865
-4.63266
-10.9307
-1.96231
33.0937
7.85018
-38.9746
12.6638
-25.5814
-3.53816
16.4446
9.36048
-70.4098
58.2243
2.84441
-4.7476
-35.0621
20.0266
19.8095
7.47923
4.69949
-14.1169
31.6629
-11.5171
-48.6248
48.5956
-7.58541
23.6008
1.63809
13.2333
-38.4696
-3.57697
3.2832
-6.03732
-1.03116
23.8299
-2.19486
8.2423
-0.384608
-18.7048
14.7384
7.2448
1.61975
1.75756
9.40441
7.84308
7.64708
-172.911
73.5565
122.671
-23.3001
35.554
37.4868
1.52357
227.301
175.693
-57.968
-55.3397
61.0083
39.086
-64.1753
-156.766
48.046
0.130287
-28.7484
-394.861
182.761
-17.4322
-2.50541
7.88826
12.0407
7.04303
-1.1039
1.0324
-11.0062
10.8417
-25.5801
5.70314
2.60844
9.57709
-18.4425
-2.90817
3.88996
-11.1132
-0.292678
8.2286
-5.45639
-18.2527
-27.2676
19.956
-8.03426
-41.6038
-20.7649
-30.1276
-24.6722
19.7555
16.7469
-16.6103
-5.33764
5.21048
6.72159
7.53372
-32.4924
-8.89712
18.2246
6.06131
-20.7975
-18.9376
-6.69168
-4.80614
-12.1876
56.3692
-18.7535
-13.7772
-35.9491
12.7743
-18.4261
-27.9241
-23.4991
-25.0792
-50.42
-9.02554
-19.1263
22.2229
-143.402
100.429
-51.0406
23.8768
17.9542
-24.39
41.228
-42.4087
12.0255
31.8704
-52.4295
42.7856
-39.9647
22.3031
-33.5047
-57.0659
3.90281
-23.3791
42.9125
4.09388
-13.1117
-25.5075
10.6746
-0.712699
0.729712
0.0714994
-0.0885908
-0.116777
-0.664507
0.695459
0.0857809
0.726442
-0.71199
0.102126
-0.116647
0.0993082
-0.846963
0.878783
-0.131244
-0.61009
-0.824957
0.722241
-0.814367
0.0874126
-0.618211
-0.107464
-0.706169
-0.611285
-0.116647
0.644825
0.0829344
-0.110256
0.637741
-0.602534
0.0747979
0.641534
-0.119576
-0.617383
0.0951942
0.0726649
-0.147101
0.829239
-0.75512
-0.533481
-0.743765
0.665722
-0.724853
0.0809682
-0.552285
-0.118868
-0.635651
-0.712475
0.72314
0.114788
-0.125523
-0.137722
0.672017
-0.644808
0.110338
0.736686
-0.679237
0.10047
-0.158198
0.112527
0.835577
-0.783808
-0.164424
-0.588878
-0.85899
0.735168
-0.82924
0.102517
-0.583807
-0.162691
-0.676403
-1.06691
0.114802
1.13817
-0.186161
-0.185676
0.0880459
1.03898
-0.941614
1.08801
0.127816
-1.02053
-0.195441
0.119196
1.38897
-1.26574
-0.242778
-0.946343
-1.2578
1.13709
-1.24653
0.114347
-0.938953
-0.199705
-1.09752
-0.812789
-0.534442
0.682677
0.715696
-0.581799
-0.845969
-0.746538
-0.981282
0.880696
0.830095
-0.72481
-0.970571
0.865207
-0.119773
-0.106392
-0.586612
-0.110261
-0.146048
0.869701
-1.00297
-0.744426
0.0933322
0.0903781
-0.962351
0.553645
-0.772361
0.0989124
0.126159
-0.825798
0.117762
-0.659266
-0.671906
-0.68781
-0.656036
0.110175
-0.790288
-0.114447
-0.6066
-0.124967
-0.720293
-0.146232
-0.157651
-0.724893
1.01425
-0.720336
-0.166187
0.86786
-0.83267
-0.14975
-0.855445
0.89875
-0.717239
-0.70928
0.973234
-0.858126
-0.849366
-0.837996
0.555851
-0.656273
-0.103176
0.129051
0.152809
-0.105395
-0.802018
0.706538
0.310493
-0.287422
-0.657917
0.630582
0.297281
-0.270181
0.286469
0.666129
-0.257234
-0.32214
0.852211
0.348671
0.37243
0.0073737
0.326681
0.0041037
-0.289596
0.407447
0.697946
0.55656
-0.588553
0.287196
-0.255492
-0.530182
0.268729
0.519996
-0.258808
0.25159
-0.545726
0.53233
-0.238349
-0.308931
-0.669992
0.298735
0.680014
0.268431
0.00590522
0.282096
-0.0160471
-0.24571
0.299729
-0.602873
0.535115
0.629679
0.256523
-0.241546
-0.561418
0.234935
0.561435
-0.23517
0.239354
0.641334
-0.243139
-0.309712
0.299603
0.839189
0.354123
0.0243296
0.251199
0.0173621
-0.22468
0.380245
0.636771
1.13087
-0.409867
0.417092
-0.973313
-0.410265
0.371064
1.01239
0.390156
-0.404785
1.0535
-0.544005
0.506284
1.42658
0.648343
0.0746858
0.407817
0.0636085
-0.388606
0.66771
1.12136
0.00251633
0.328317
0.299596
0.276234
0.380104
0.0098591
0.462089
0.0309279
0.359132
-0.756839
0.401159
0.0241621
0.331373
-0.656812
0.310657
0.348548
0.317357
-0.752323
0.306067
0.0271091
0.00204444
-0.262279
-0.282727
0.0138638
-0.32036
0.00785555
-0.233236
0.613228
0.0180925
-0.251249
0.620246
-0.26973
-0.265356
0.601441
-0.257969
0.0157229
0.304471
0.387984
0.501688
-0.797814
0.411496
-0.0390475
0.499399
0.332807
0.841378
0.861503
0.324917
0.47733
0.662595
-0.0314567
0.830303
-0.293809
0.719055
-0.34122
0.583843
0.285918
0.627837
0.731705
0.302321
0.740164
72.1638
-36.3542
-2.69932
-108.812
147.554
19.5287
-12.1551
-25.3657
-2.35565
39.9275
20.2761
6.1946
-6.40747
127.095
-6.3258
-12.2356
30.5245
37.7661
-23.7739
13.3908
267.72
-202.758
57.7585
-334.765
124.289
22.2138
-30.5088
35.8797
61.7186
-38.7081
417.064
33.4343
-32.7737
115.091
102.428
-7.27796
56.7737
3.66005
-53.1638
-7.2684
-63.2939
19.7794
12.8138
0.214349
-10.4253
13.4857
13.8048
9.32541
-3.83886
50.8722
-5.87734
11.7749
-28.4895
16.0637
10.8644
-2.97545
-23.2948
17.5786
13.6249
26.4737
-8.79478
-7.46875
14.2871
21.7936
5.87926
-14.7192
-23.469
-5.26292
-11.1042
14.1135
-18.0079
18.6254
0.881422
247.117
-22.1052
16.7342
-19.973
35.7101
-5.61357
-15.7767
55.2835
-27.4701
-18.5545
-38.3661
57.8253
-27.2662
-11.3482
-2.89937
-12.3837
56.7559
8.70097
7.87771
-51.3336
-49.3913
70.2154
15.4554
-24.2954
25.5779
13.1831
32.2709
14.6088
-1.59424
49.315
-38.3197
-5.15394
-115.358
100.55
7.08342
4.97075
-20.8769
-15.3316
12.4993
-36.8651
38.6709
8.62753
-40.5015
26.7684
12.8508
-6.08742
-21.8589
-135.997
41.3645
-49.8476
159.703
-12.5356
-111.685
6.98726
9.70111
4.92032
2.55685
-2.9999
2.42122
-1.18343
4.36831
-0.0273479
-2.77998
4.79754
2.62136
1.69081
6.88225
0.839473
2.34218
1.75915
1.99987
3.13766
-10.6673
-106.727
-33.2781
63.9349
-53.0022
10.7208
12.6597
-21.4276
-8.60907
10.718
-34.408
-89.2537
5.03102
-26.7774
-20.2786
3.07143
5.72493
-5.7106
-34.1752
42.3047
-8.31388
24.6643
-6.02985
-16.4849
3.01906
15.3552
-4.43579
-13.9367
3.63468
-13.6011
13.0426
-31.0166
1.31016
-11.8902
-5.04186
4.81114
-1.2227
0.343871
-10.6793
-0.0392517
3.27114
4.18783
6.18047
-6.54912
-3.82547
-0.35191
4.03571
4.15813
3.98847
11.2102
-13.8818
7.18839
6.54538
4.31217
-3.14763
-4.98994
3.59272
2.82113
2.8204
-1.26359
2.83813
5.42669
-0.708027
6.3873
-5.33272
-6.59374
-1.47776
3.0866
-1.77319
-6.51305
-5.45322
-7.41364
2.75555
-17.7934
-5.01543
-57.5311
11.8585
-10.1916
6.12003
-10.4426
-17.9008
0.440196
-22.4738
-0.860277
3.7801
-4.18762
3.14285
1.05962
-7.59258
2.21964
8.67264
3.72803
-6.22664
0.776146
-1.23786
-0.430102
-1.53472
1.93891
5.49456
-0.686376
23.6565
-4.57037
-18.2371
2.66378
-2.30779
-12.9136
-6.48806
18.8464
22.6622
-5.93535
-1.50915
0.525146
-1.4669
1.38957
-0.448591
1.12312
0.499286
-1.26887
-0.354143
-1.08424
0.184888
1.48965
-0.590909
-0.605678
0.473932
-1.53851
1.66989
0.0635618
1.95619
-1.49489
1.61961
-0.433149
-0.173298
1.52352
0.361753
0.434681
0.985323
-1.07813
-0.342661
0.811651
-0.907842
0.407806
-0.312406
-0.797799
1.01478
0.265345
-0.483112
-0.459882
1.12636
-1.2061
0.539136
0.0292804
1.50843
-1.10342
1.21376
-0.373123
-0.0834252
1.13159
0.332329
0.0439487
-0.670884
1.39409
-0.768004
1.21231
-0.548545
0.00513073
-0.670028
-0.254419
1.8121
-1.01714
-0.541239
-0.99283
-0.785619
1.86544
-0.0875341
-0.748367
1.59005
-0.798214
1.25854
-0.795129
-1.02942
1.62593
-0.0257914
0.388787
-0.71007
-1.89669
2.21765
1.71722
-0.560272
-1.5832
0.426218
-1.40683
-0.825179
2.15833
0.073269
-0.723828
-2.1366
2.6535
0.206476
-0.179747
2.38785
-1.81921
2.21372
-0.67631
-0.474927
2.13889
0.331919
1.74404
0.0127921
-1.2584
-1.09915
-0.442978
1.72666
-0.111623
2.14454
-1.55932
-0.523531
0.0226188
1.95928
-1.45877
1.35464
0.497245
-0.108378
0.617103
1.34694
-1.37346
1.85227
1.40205
-0.404336
-0.482963
1.63168
0.355381
1.22141
-0.562791
-1.2635
1.43711
-0.617008
0.343087
0.950104
0.991452
0.254099
-0.568015
1.60064
0.737373
-0.584989
1.57372
-0.333042
1.76728
1.57486
-0.176052
-1.97324
-0.753907
1.90162
-1.16056
0.162003
1.7356
0.358591
-1.25714
-0.554251
0.180978
-1.7231
0.183189
1.04015
0.415144
0.523786
0.148503
0.80747
-1.42501
-1.47004
0.699321
0.26917
1.71624
-0.5129
-0.898846
-0.304351
-0.316342
1.47075
-0.787493
-0.367062
-0.885683
1.684
-0.392283
-0.406075
-0.515691
1.91166
-0.34625
-1.0498
1.26947
1.32806
-0.881387
1.32145
-0.368421
1.24432
-0.43211
1.68005
1.22816
-0.126395
-0.680727
-0.421109
0.130666
-0.517344
-0.521511
-0.632487
0.12902
-0.575064
-0.680437
0.193374
-0.719286
0.595449
1.26257
-0.630394
1.25585
-0.530055
0.480061
0.101711
1.60919
-0.902577
-0.151676
-0.555266
0.123513
-0.759888
-0.63296
-0.902221
0.156345
-0.721657
-0.939618
-0.975154
0.375979
0.866889
1.71427
-0.972473
1.69264
-0.70282
0.704477
0.0695316
2.03853
-0.821592
0.137899
-1.3552
0.481297
-0.862082
-1.20265
-1.38071
-1.12641
0.610017
-1.14919
0.892058
-1.88007
0.972454
2.47222
-1.40651
2.38176
-0.928233
0.818151
0.504457
1.32234
0.932853
-0.784608
-0.966024
1.12438
1.52542
1.19475
1.80835
-1.09167
-1.58453
0.787142
1.74716
-0.949919
-0.146341
0.588856
0.879643
0.567632
-0.0483409
-0.947435
1.71391
1.25392
-0.447572
-0.695245
1.67563
-0.724442
1.45758
-0.604461
0.121389
1.5277
-0.524697
1.36455
0.76886
0.770919
1.4019
-0.511735
1.44828
0.735042
0.990335
-0.200243
1.12712
-0.140703
0.231235
0.653692
-2.0156
0.650198
0.238776
-1.05544
1.78427
0.00591707
1.78555
-1.08855
0.857129
1.61546
-1.88433
0.870458
-0.560781
0.760849
-0.118012
-0.266429
0.769432
-0.53847
0.55431
0.294525
-0.285658
-0.610513
0.595961
0.300008
0.544455
-0.543229
0.295814
0.300291
-0.555971
0.604241
-0.276014
-0.857764
0.595118
-0.844935
0.283042
-0.230818
-0.531396
-0.751255
-0.306187
0.739809
0.317332
-0.311029
0.958441
0.386314
-1.034
0.721144
-0.306825
0.290804
-0.705347
0.319859
-0.37601
0.939144
-0.883308
-0.46505
-1.08556
0.798902
-1.0543
0.278029
-0.436126
-0.329615
-0.769384
-0.554369
0.557698
0.283736
-0.297103
0.670692
0.309296
-0.683085
0.574776
0.249913
-0.556135
0.25381
0.567623
-0.52283
-0.305732
-0.815668
0.566857
-0.922172
0.319196
-0.279781
-0.627217
-0.620024
0.332013
0.704876
-0.459652
0.389656
0.964602
-0.894834
0.666134
0.279755
-0.574959
0.385585
0.835493
-0.715129
-0.293433
-1.0584
0.731364
-1.06003
0.306825
-0.265009
-0.65902
-0.9474
-0.367128
0.703708
0.556184
-0.285406
-0.814407
-0.288564
-0.911756
0.644128
0.743523
-0.407024
-1.13831
0.801409
-0.302885
-0.319041
-0.32555
-0.278122
-0.354288
0.778703
-0.921171
-0.974103
0.300498
0.314944
-1.09813
0.384029
-1.02648
0.335403
0.287998
-0.868752
0.29521
-0.685732
-0.614106
-0.700494
-0.619866
0.293611
-0.936509
-0.27409
-0.24076
-0.220646
-0.359299
-0.389392
0.874207
-0.263279
0.572149
-0.540356
-0.56978
0.622255
-0.28852
-0.551863
0.899269
-0.595115
-0.738305
-0.749416
0.351977
-0.707873
-0.280113
0.29507
0.330623
-0.289477
-0.69722
5.76299
-3.41916
-2.24152
-0.37584
4.31605
-2.72472
-1.21604
-1.02934
3.71731
-2.15634
-4.5704
7.01406
-1.52329
1.75906
5.79536
-1.79172
3.98464
-2.6018
2.10233
5.05755
3.66181
-0.00280676
-3.00813
-0.651219