/*--------------------------------*- C++ -*----------------------------------*\
| =========                 |                                                 |
| \\      /  F ield         | OpenFOAM: The Open Source CFD Toolbox           |
|  \\    /   O peration     | Version:  2506                                  |
|   \\  /    A nd           | Website:  www.openfoam.com                      |
|    \\/     M anipulation  |                                                 |
\*---------------------------------------------------------------------------*/
FoamFile
{
    version     2.0;
    format      ascii;
    arch        "LSB;label=32;scalar=64";
    class       surfaceScalarField;
    location    "900";
    object      phi;
}
// * * * * * * * * * * * * * * * * * * * * * * * * * * * * * * * * * * * * * //

dimensions      [0 3 -1 0 0 0 0];

oriented        oriented;

internalField   nonuniform List<scalar> 
110688
(
-1.6762e-06
1.08193e-06
-3.02956e-08
6.24569e-07
-7.30994e-08
-1.84715e-06
1.17995e-06
7.40301e-07
1.10891e-06
-1.74447e-06
2.21331e-08
6.13433e-07
6.46733e-07
-1.73798e-06
1.10831e-06
-1.70637e-08
-1.06677e-06
-1.71589e-06
1.10647e-06
-1.76906e-06
6.29193e-07
-1.05581e-06
-1.33521e-08
-1.71597e-06
-2.17537e-06
-3.34402e-08
1.33821e-06
8.706e-07
9.33011e-08
1.47522e-06
-2.50386e-06
9.3534e-07
1.17488e-06
2.2121e-08
-2.03239e-06
8.35388e-07
8.58991e-07
3.91396e-08
1.3188e-06
-2.21693e-06
-1.4287e-06
-2.14531e-06
1.39864e-06
-2.2331e-06
8.97702e-07
-1.29279e-06
6.47336e-09
-2.35102e-06
-1.7892e-06
1.0819e-06
7.45973e-08
6.32705e-07
8.77392e-08
1.08217e-06
-1.8042e-06
6.34287e-07
1.04731e-06
7.28716e-08
-1.73198e-06
6.11798e-07
6.15337e-07
1.04025e-06
8.59168e-08
-1.7415e-06
-1.16588e-06
-1.70011e-06
1.07679e-06
-1.70838e-06
6.3024e-07
-1.15336e-06
6.85842e-08
-1.81443e-06
-1.79283e-06
6.67423e-07
1.10951e-06
1.58997e-08
4.20412e-08
7.22495e-07
1.15581e-06
-1.92035e-06
1.06392e-06
6.44871e-07
7.00657e-08
-1.77886e-06
6.80732e-07
1.04398e-06
7.00029e-08
-1.79471e-06
-1.14292e-06
-1.74994e-06
1.10003e-06
-1.75945e-06
6.58574e-07
-1.12356e-06
5.43509e-08
-1.81909e-06
-1.92269e-06
-1.14045e-06
1.21598e-06
1.11403e-06
-1.1294e-06
-1.7291e-06
-1.09488e-06
-1.76167e-06
1.11857e-06
1.97013e-06
-1.25095e-06
-1.92641e-06
1.20723e-06
-6.20291e-08
-7.49153e-07
-1.11151e-06
-6.63966e-07
-2.72188e-08
1.2482e-06
-1.78606e-06
-1.93194e-06
7.58051e-07
7.57605e-07
-1.96941e-06
1.17764e-06
-1.90134e-06
7.45818e-07
-4.53572e-08
-1.72214e-06
6.38093e-07
-1.91711e-06
-1.12634e-06
-1.15303e-06
-1.8846e-06
7.12911e-07
-1.86e-06
-6.3103e-07
-1.11083e-06
1.27595e-08
-1.10144e-06
7.19568e-09
3.38109e-08
-1.23773e-06
1.73058e-06
-1.13127e-06
4.55581e-08
1.09918e-06
-1.75917e-06
2.89609e-08
-1.78833e-06
1.09594e-06
-1.12453e-06
-1.75107e-06
1.71081e-06
-1.80182e-06
-1.12601e-06
-2.08114e-06
1.22575e-06
-2.04491e-06
-6.33707e-07
-4.05712e-08
-4.74318e-08
-6.74819e-07
-1.84826e-06
1.62684e-06
-9.65547e-07
-5.77009e-07
-8.42842e-08
-9.90852e-07
1.6558e-06
-5.89237e-07
-7.57123e-08
-3.71118e-08
1.66154e-06
-1.0193e-06
-6.05133e-07
-5.94403e-07
1.6622e-06
-9.89127e-07
-7.86734e-08
1.05251e-06
6.56297e-07
-8.19698e-08
6.53455e-07
-5.91794e-07
1.04343e-06
-9.81538e-07
1.65978e-06
1.69158e-06
-1.00179e-06
-6.00298e-07
-8.94935e-08
-9.79893e-07
1.72912e-06
-6.20931e-07
-1.28291e-07
-1.09278e-07
-1.02432e-06
1.78405e-06
-6.50457e-07
-5.95689e-07
-1.02193e-06
1.73747e-06
-1.19846e-07
1.09211e-06
7.01022e-07
-1.01549e-07
7.4638e-07
-6.34167e-07
1.132e-06
-1.02667e-06
1.7691e-06
1.79564e-06
3.68777e-08
-1.16507e-06
-6.67446e-07
-1.16003e-06
1.23849e-09
1.90936e-06
-7.50576e-07
1.9554e-07
-1.72518e-06
2.44957e-06
-9.19925e-07
-8.11358e-07
-2.70859e-08
-1.29556e-06
2.134e-06
1.11978e-06
6.45353e-07
3.05084e-08
6.9837e-07
-7.38615e-07
1.25491e-06
-1.42091e-06
2.14882e-06
1.71062e-06
-6.05135e-07
-1.01066e-06
-9.48167e-08
-1.00575e-06
-6.33164e-07
1.77249e-06
-1.33573e-07
-9.93887e-08
-6.36829e-07
-1.14679e-06
1.88301e-06
-5.88879e-07
-1.08997e-06
1.81085e-06
-1.31999e-07
1.11927e-06
6.94224e-07
-1.02881e-07
7.29704e-07
-6.16181e-07
1.20475e-06
-1.09941e-06
1.83507e-06
6.65659e-07
1.07142e-06
-8.12794e-08
-3.68754e-08
1.07305e-06
6.25369e-07
1.0807e-06
6.64036e-07
-8.25373e-08
-1.71067e-06
1.10862e-06
7.07745e-07
-1.05695e-07
-1.01377e-06
6.07649e-07
1.07178e-06
6.09129e-07
-1.01264e-06
-9.03799e-08
6.77195e-07
6.81947e-07
-6.12314e-07
-6.24445e-07
7.11131e-07
-1.1069e-06
7.42837e-07
-6.60259e-07
1.06304e-06
6.49721e-07
-6.39711e-07
1.70978e-06
4.3947e-08
5.86694e-08
1.73483e-06
-6.27846e-07
6.86603e-07
6.41205e-07
1.0836e-06
-1.09944e-06
1.09719e-06
-1.03829e-06
-1.03537e-06
1.10995e-06
-6.95553e-07
1.25577e-06
-1.19705e-06
-5.34297e-08
1.75141e-06
-1.05678e-06
1.72096e-06
-6.94097e-08
1.12527e-06
1.7702e-06
-7.30192e-07
1.95888e-06
5.63067e-08
1.76477e-06
-1.11729e-06
1.86136e-06
6.74757e-07
1.12595e-06
1.06983e-06
6.95273e-07
1.82141e-06
-1.42033e-07
5.61602e-07
6.62357e-07
-1.12208e-06
-1.381e-07
5.58541e-07
7.01641e-07
5.95111e-07
-1.70905e-07
7.55744e-07
6.8254e-07
-1.61187e-07
5.86959e-07
5.35574e-07
-1.24243e-06
5.6482e-07
-1.29472e-06
7.08208e-07
5.46581e-07
-1.53025e-07
-1.1676e-07
-1.17347e-06
5.48468e-07
7.41767e-07
-1.2108e-06
-5.59211e-08
5.21894e-07
7.44829e-07
5.27381e-07
-1.27333e-06
-6.44192e-08
8.1037e-07
7.70804e-07
-1.17962e-06
-1.29409e-07
5.38222e-07
6.63965e-07
-1.3429e-06
5.62171e-07
-1.29816e-06
7.51319e-07
7.06503e-07
-1.27859e-06
-6.42719e-08
-2.06205e-07
6.79174e-07
8.65243e-07
-1.34886e-06
5.42458e-07
-8.45519e-08
8.90949e-07
6.25761e-07
-8.38595e-08
9.33321e-07
8.85884e-07
6.89017e-07
-2.56098e-07
6.97265e-07
-1.61132e-06
7.07854e-07
-1.52208e-06
8.70487e-07
6.73202e-07
-2.23114e-07
-1.98891e-07
6.99482e-07
6.08917e-07
-1.12588e-06
7.50412e-07
-2.06402e-07
5.8187e-07
6.35339e-07
7.60125e-07
-2.39652e-07
7.04769e-07
-2.68008e-07
6.07218e-07
5.05448e-07
-1.3127e-06
6.08361e-07
-1.35642e-06
7.35987e-07
4.92099e-07
-2.2898e-07
-1.2979e-06
5.81577e-07
5.78223e-07
6.1216e-07
5.91729e-07
-1.37479e-06
5.33867e-07
-1.27609e-06
5.81038e-07
1.48938e-07
6.01679e-07
-1.34129e-06
5.90678e-07
-1.18784e-06
-7.21336e-07
6.11273e-07
-7.28703e-07
-1.15271e-06
5.80309e-07
-1.34754e-06
-1.32918e-06
7.37282e-07
7.78518e-07
-1.35646e-06
-7.17729e-07
-1.3857e-06
8.301e-07
1.25291e-06
-1.45024e-06
7.8906e-07
-1.23192e-07
-5.94714e-07
-6.23268e-07
-1.27809e-07
7.86002e-07
-1.46881e-06
-7.685e-07
6.09692e-07
5.41957e-07
-1.20248e-06
6.11596e-07
1.40221e-06
5.65142e-07
6.41945e-07
-1.62248e-07
-1.63641e-07
6.30132e-07
6.09834e-07
-1.61372e-07
1.49029e-06
-2.36132e-07
-5.93098e-07
-1.51764e-07
-7.35802e-07
-1.07442e-07
-8.30293e-07
1.37677e-06
1.26983e-06
-8.27834e-07
-1.511e-07
5.37264e-08
1.60928e-06
-2.49141e-06
8.28404e-07
1.3277e-06
7.31928e-08
-2.12602e-06
7.25121e-07
-2.23227e-06
-7.05233e-08
1.4582e-06
8.44595e-07
8.18098e-07
4.98763e-08
1.30675e-06
-2.17472e-06
8.59933e-07
1.56079e-06
-2.36699e-06
1.37518e-06
8.12457e-07
8.23226e-07
1.55566e-06
-3.38662e-08
9.24261e-08
1.09895e-06
-1.84254e-06
6.51165e-07
1.06514e-06
8.05615e-08
-1.7388e-06
5.93101e-07
-1.77007e-06
1.09385e-06
6.71487e-08
6.09072e-07
6.00681e-07
1.0328e-06
6.45088e-08
-1.69799e-06
7.22774e-07
1.17358e-06
-1.80392e-06
1.16142e-06
6.26494e-07
6.85726e-07
1.08853e-06
7.70724e-08
-4.73379e-08
-1.82538e-06
1.18879e-06
6.83925e-07
1.0937e-06
-1.72338e-06
2.25602e-08
6.07125e-07
-1.6546e-06
1.07076e-06
-1.87634e-08
6.02599e-07
6.14456e-07
-1.72225e-06
1.12281e-06
-1.50151e-08
5.96896e-07
1.07842e-06
-1.72265e-06
1.0699e-06
6.20696e-07
5.72317e-07
1.12056e-06
-1.23835e-08
3.71195e-08
6.91102e-07
1.14905e-06
-1.87727e-06
1.09766e-06
5.98328e-07
5.85226e-08
-1.75451e-06
-1.80669e-06
6.37007e-07
1.1497e-06
1.99873e-08
6.63344e-07
1.06461e-06
7.88214e-08
-1.80678e-06
6.89332e-07
1.17226e-06
-1.82447e-06
1.14349e-06
6.43498e-07
6.89881e-07
1.14572e-06
2.66795e-08
1.32301e-06
8.5799e-07
-2.1078e-06
-1.92848e-06
6.91504e-07
1.16645e-06
8.19964e-07
1.31871e-06
-2.0888e-06
-7.18415e-08
7.05175e-07
1.19739e-06
-1.83072e-06
1.21426e-06
-6.47984e-07
7.56732e-07
-7.48084e-07
1.16571e-06
-1.88553e-06
1.23759e-06
1.24055e-06
7.16388e-07
6.11935e-07
1.12604e-06
-6.52813e-07
1.12449e-06
6.22175e-07
-1.20675e-06
1.17554e-06
7.22713e-07
5.5356e-08
1.94193e-06
1.75582e-06
3.77396e-08
6.97441e-07
1.14075e-06
-7.2259e-07
6.2065e-07
1.26839e-06
7.36725e-07
1.27309e-06
1.12451e-06
6.71205e-07
-1.13309e-06
6.08812e-07
1.16129e-06
-1.96488e-06
-9.63224e-09
1.25192e-06
9.43479e-09
-1.77744e-06
6.34718e-07
-2.91869e-08
-1.10672e-06
-6.7226e-09
1.75465e-06
4.25951e-08
-6.26024e-07
2.7131e-08
-6.27732e-07
-1.12411e-06
-1.09973e-06
-6.09381e-07
4.55427e-08
-1.10038e-06
3.9475e-07
6.75339e-07
6.84919e-07
-1.08248e-06
4.19689e-07
8.81737e-09
-1.07808e-06
3.92317e-07
6.76947e-07
4.03524e-07
-1.12607e-06
7.05485e-07
-6.93052e-07
-4.20684e-07
-4.08859e-07
4.00726e-07
-7.08097e-07
6.90938e-07
-1.10814e-06
-1.05973e-06
6.94978e-07
4.39346e-07
6.77947e-07
-1.04924e-06
4.44165e-07
-4.77749e-08
6.8072e-07
-1.06074e-06
4.27794e-07
4.39241e-07
6.90875e-07
-1.0442e-06
-6.18375e-07
-3.72768e-07
-3.76687e-07
4.36258e-07
-6.25928e-07
6.92401e-07
-1.05039e-06
-1.06147e-06
-1.3695e-08
4.06341e-07
6.6882e-07
6.76539e-07
-2.97845e-08
-1.06139e-06
4.14633e-07
-2.76333e-08
-1.05778e-06
4.14696e-07
6.70713e-07
4.18965e-07
-2.6474e-08
-1.07779e-06
6.853e-07
-6.5167e-07
-3.90556e-07
-1.92404e-08
-3.84536e-07
4.09406e-07
-6.43655e-07
6.72065e-07
-1.05582e-06
-1.12172e-06
4.30116e-07
7.07504e-07
6.9154e-07
4.50322e-07
-1.0718e-06
-3.74976e-08
4.34166e-07
-1.09772e-06
7.01054e-07
4.64617e-07
-1.09106e-06
6.96442e-07
-6.54358e-07
-4.13011e-07
-4.03006e-07
4.40187e-07
-6.39578e-07
6.91183e-07
-1.08008e-06
-4.08132e-07
-6.61583e-07
-2.11564e-09
-6.78144e-07
-3.97822e-07
-7.014e-07
-4.17476e-07
1.0992e-06
-6.50039e-07
-4.03598e-07
6.96289e-07
-4.23741e-07
-6.80679e-07
-4.13966e-07
7.04415e-07
-4.10952e-07
-3.82323e-07
4.15718e-07
4.23858e-07
-3.83022e-07
6.48123e-07
-3.86598e-07
4.19196e-07
-6.82833e-07
-3.9552e-07
4.00208e-07
-1.07968e-06
1.66786e-08
3.65785e-08
-1.07511e-06
4.08961e-07
-3.90413e-07
-4.08746e-07
-6.69725e-07
6.8065e-07
-6.84696e-07
6.97336e-07
6.90335e-07
-6.4361e-07
4.011e-07
-6.57431e-07
6.90496e-07
-5.3425e-09
-1.09935e-06
6.95942e-07
-1.10099e-06
-2.95306e-08
-6.68715e-07
-1.07894e-06
3.9569e-07
-1.07959e-06
3.85123e-08
-1.06514e-06
6.44541e-07
-1.06092e-06
-4.17942e-07
-6.80238e-07
-6.90967e-07
-4.26111e-07
-1.07857e-06
-5.96224e-08
-1.096e-06
8.15147e-07
3.40478e-07
7.82605e-07
-8.22838e-09
-1.08276e-06
3.08383e-07
-1.04269e-06
-2.87926e-08
7.75855e-07
2.95624e-07
2.86152e-07
-3.04393e-08
-1.02472e-06
7.69007e-07
2.7899e-07
7.70512e-07
-1.10912e-06
7.51191e-07
3.10403e-07
2.61054e-07
7.95609e-07
-3.04408e-08
2.92995e-08
7.46532e-07
-1.03197e-06
2.56137e-07
7.55349e-07
-9.96504e-07
3.84875e-08
2.02667e-07
-9.85408e-07
7.44255e-07
1.69193e-08
2.24234e-07
2.07572e-07
7.7787e-07
-1.02135e-06
3.59104e-08
2.43536e-07
8.27099e-07
-1.04134e-06
7.78441e-07
2.20445e-07
2.32796e-07
8.01875e-07
2.58279e-08
-4.16836e-08
-9.3217e-07
7.1202e-07
2.61834e-07
7.2958e-07
-9.41602e-07
-1.08089e-08
2.22831e-07
-8.98735e-07
7.08784e-07
-3.01673e-08
2.20119e-07
2.0529e-07
-9.35061e-07
7.54954e-07
-2.51827e-08
1.86957e-07
7.24611e-07
-9.53251e-07
6.93551e-07
2.22986e-07
1.85338e-07
7.44563e-07
-1.98462e-08
-8.85045e-09
2.13939e-07
-1.01862e-06
8.13528e-07
7.76618e-07
1.88457e-07
-9.79119e-07
1.40439e-08
-9.73556e-07
1.93769e-07
7.87524e-07
-7.73752e-09
2.06696e-07
-1.011e-06
7.84957e-07
1.93527e-08
2.03378e-07
8.29657e-07
-1.04189e-06
7.87281e-07
1.92715e-07
2.02824e-07
8.33529e-07
1.65483e-08
8.13535e-07
2.71266e-07
-1.09303e-06
-1.00495e-06
2.20094e-07
7.56063e-07
2.24004e-07
8.0414e-07
-1.05858e-06
-9.81757e-09
2.25499e-07
8.01684e-07
-1.01737e-06
8.05156e-07
-2.26357e-07
2.34736e-07
-2.30235e-07
7.64721e-07
-1.00089e-06
7.58489e-07
7.49005e-07
2.68793e-07
2.08333e-07
7.95036e-07
-2.16078e-07
7.33039e-07
2.27294e-07
-7.28613e-07
6.74374e-07
2.74332e-07
7.57784e-09
9.76163e-07
1.01779e-06
-2.11391e-08
2.6869e-07
7.80569e-07
-2.27779e-07
2.27084e-07
7.56758e-07
1.90399e-07
8.2768e-07
7.88098e-07
2.02044e-07
-7.56782e-07
1.72516e-07
7.78035e-07
-9.65467e-07
-2.32522e-08
7.6094e-07
-1.65787e-08
-9.64234e-07
1.842e-07
-3.07117e-08
-7.51868e-07
-1.06769e-08
9.81123e-07
1.59571e-08
-2.0678e-07
-1.78305e-09
-2.04725e-07
-7.79238e-07
-7.72394e-07
-2.05448e-07
3.28067e-09
-2.07564e-07
1.91142e-07
-1.03282e-06
-1.02718e-06
-2.14054e-07
1.80496e-07
1.9761e-07
-2.04683e-07
-1.03713e-06
1.03088e-06
-2.04889e-07
1.96562e-07
-1.02255e-06
8.38004e-07
-1.23254e-06
1.86973e-07
-1.23957e-06
8.31554e-07
-1.03322e-06
-2.10404e-07
-2.19311e-07
-1.01162e-06
1.69546e-07
-1.0033e-06
1.6698e-07
-2.21457e-07
1.66425e-07
-1.02172e-06
-2.22495e-07
1.05313e-06
-1.01333e-06
1.77276e-07
-2.1708e-07
8.38366e-07
-1.22509e-06
1.67412e-07
-1.22076e-06
8.39703e-07
-1.01166e-06
-2.14629e-07
-2.26059e-07
1.99609e-07
-1.04535e-06
-1.05358e-06
1.89415e-07
-2.33563e-07
2.1824e-07
-1.06846e-06
-2.40833e-07
1.05399e-06
2.09826e-07
-1.0406e-06
-2.2322e-07
8.44872e-07
-1.26534e-06
1.94412e-07
-1.28878e-06
8.37027e-07
-1.04838e-06
-2.33518e-07
-2.05896e-07
1.01879e-06
2.02498e-07
-1.01539e-06
-1.01872e-06
1.03706e-06
1.96807e-07
-2.15148e-07
2.08779e-07
1.02673e-06
-1.0218e-06
-2.13704e-07
1.01227e-06
2.07975e-07
-1.01099e-06
-2.09252e-07
8.1727e-07
-1.21837e-06
1.95203e-07
-1.23017e-06
1.02871e-06
8.08706e-07
-1.01481e-06
-2.1268e-07
-1.22637e-06
8.4181e-07
1.7051e-07
1.89009e-07
8.48264e-07
-1.24196e-06
8.25234e-07
-1.22072e-06
1.90594e-07
2.12299e-07
8.30623e-07
-1.22521e-06
1.82289e-07
-1.01574e-06
-1.04327e-06
8.32638e-07
-1.03713e-06
-1.01645e-06
1.8548e-07
-1.22835e-06
-1.23074e-06
1.0502e-06
-1.23291e-06
-8.47275e-07
-1.25404e-06
1.03731e-06
-1.25419e-06
-2.15771e-07
-1.82328e-07
-1.7723e-07
-2.23587e-07
-1.24809e-06
-1.03749e-06
8.349e-07
-1.03937e-06
8.19633e-07
-1.02156e-06
-1.01325e-06
8.25099e-07
1.23377e-06
8.21104e-07
-1.02815e-06
1.98626e-07
-2.09189e-07
-1.02692e-06
-2.10095e-07
1.9463e-07
8.29951e-07
-2.19679e-07
1.25245e-06
-2.21518e-07
-1.90692e-07
-2.17115e-07
-8.43154e-07
-2.21473e-07
-1.05181e-06
1.02654e-06
1.03059e-06
-1.06471e-06
-2.24808e-07
2.34377e-07
-1.72175e-06
2.53657e-06
-1.0492e-06
1.85191e-06
5.31754e-08
-1.15922e-06
-7.45866e-07
-1.23967e-06
5.02764e-08
1.9929e-06
-8.03513e-07
-6.46385e-07
-3.34076e-08
-1.29474e-06
1.97453e-06
-6.27364e-07
2.14821e-06
-1.28647e-06
2.05032e-06
-8.25773e-07
-7.74458e-07
2.27628e-06
3.61954e-08
-2.8433e-08
1.66945e-06
-1.02302e-06
-6.17999e-07
1.6115e-06
-9.63617e-07
-5.7173e-07
-7.61545e-08
-9.91761e-07
1.64714e-06
-5.86435e-07
-6.89401e-08
-5.8302e-07
1.64922e-06
-1.00256e-06
-6.36342e-08
-6.29598e-07
1.58831e-06
-9.8715e-07
1.55689e-06
-5.74988e-07
-6.32453e-07
1.63775e-06
-6.73232e-08
-6.31588e-08
-1.02741e-06
1.75106e-06
-6.60488e-07
1.6914e-06
-9.97147e-07
-6.13525e-07
-8.07243e-08
-9.74537e-07
1.72395e-06
-6.34751e-07
-1.14666e-07
-6.09544e-07
-9.96409e-07
1.71743e-06
-1.11482e-07
-6.93483e-07
1.64305e-06
-1.01273e-06
1.61961e-06
-6.21691e-07
-7.3427e-07
1.76778e-06
-8.92014e-08
-8.89293e-08
-6.37569e-07
-1.1317e-06
1.8582e-06
1.7271e-06
-5.97796e-07
-1.05149e-06
-7.78184e-08
-1.01381e-06
-6.32477e-07
1.76628e-06
-1.19988e-07
-6.14918e-07
-1.06748e-06
1.79732e-06
-1.14923e-07
-6.90921e-07
1.69857e-06
-1.09657e-06
1.64904e-06
-6.12864e-07
-7.3318e-07
1.81683e-06
-9.79509e-08
1.76961e-06
-6.20164e-07
-1.09627e-06
-1.12773e-06
-6.53991e-07
1.832e-06
-6.68442e-07
1.79837e-06
-1.16334e-06
3.59958e-08
-6.42625e-07
1.65807e-06
-1.05144e-06
1.77225e-06
6.40216e-07
-6.42856e-07
6.80717e-07
1.75838e-06
-1.08216e-06
1.77065e-06
1.69522e-06
-6.45929e-07
-5.98624e-07
1.60521e-06
6.48605e-07
1.59593e-06
-5.97401e-07
-1.73579e-06
1.73444e-06
-6.52646e-07
-1.7814e-08
1.07018e-06
1.02131e-06
-3.19152e-08
-6.33698e-07
1.638e-06
6.50691e-07
-7.70171e-07
1.95148e-06
-7.70196e-07
1.931e-06
1.71824e-06
-6.57963e-07
-1.65581e-06
-7.31943e-07
1.75528e-06
-1.06049e-06
-8.60551e-08
1.79724e-06
-6.00379e-08
-1.04534e-06
-6.96529e-07
-6.31384e-08
-1.63002e-06
-9.83365e-08
1.00837e-06
-6.11201e-08
6.72158e-07
-7.33726e-08
6.25541e-07
-1.70141e-06
-1.701e-06
6.08751e-07
-8.38826e-08
3.46908e-07
1.87954e-07
-1.42528e-06
8.90415e-07
8.70178e-07
3.4717e-07
1.76362e-07
-1.39371e-06
-1.39909e-06
3.39648e-07
1.79365e-07
8.80079e-07
1.85054e-07
3.49001e-07
-1.40703e-06
8.72978e-07
5.27718e-07
1.22769e-06
-1.4085e-06
1.21808e-06
1.79817e-07
5.23115e-07
8.89625e-07
3.42103e-07
3.45405e-07
8.68626e-07
1.64642e-07
-1.37867e-06
8.73923e-07
1.53203e-07
-1.37217e-06
3.45047e-07
-1.37078e-06
8.70844e-07
1.54027e-07
3.45914e-07
1.52014e-07
8.72906e-07
-1.37431e-06
3.49393e-07
5.00382e-07
1.21914e-06
-1.37412e-06
1.21876e-06
1.55541e-07
4.97328e-07
8.73831e-07
3.45309e-07
3.36497e-07
-1.378e-06
1.69656e-07
8.7185e-07
8.67457e-07
-1.36588e-06
1.56094e-07
3.4233e-07
-1.35848e-06
1.56417e-07
8.66138e-07
3.35925e-07
1.5408e-07
-1.36919e-06
8.69311e-07
3.458e-07
4.95669e-07
1.21021e-06
-1.36938e-06
1.20514e-06
1.57983e-07
4.91332e-07
8.72955e-07
3.37995e-07
3.52669e-07
1.70463e-07
-1.39444e-06
8.71309e-07
8.71437e-07
1.52526e-07
-1.37856e-06
3.54597e-07
-1.37841e-06
1.53456e-07
8.71316e-07
3.53634e-07
1.54097e-07
-1.38585e-06
8.70841e-07
3.60917e-07
5.1072e-07
1.22896e-06
-1.38701e-06
1.22541e-06
1.56749e-07
5.0723e-07
8.75824e-07
3.54233e-07
1.21911e-06
5.1349e-07
-1.38543e-06
-1.38757e-06
5.09849e-07
1.21737e-06
5.19893e-07
1.22448e-06
-1.39538e-06
-3.49488e-07
5.04761e-07
1.22324e-06
-1.37851e-06
8.75011e-07
-1.64838e-07
5.08941e-07
-1.70454e-07
8.69277e-07
-1.3836e-06
1.21872e-06
1.21503e-06
1.67091e-07
1.55438e-07
1.22223e-06
-5.00115e-07
1.21293e-06
1.58028e-07
-8.70819e-07
1.21159e-06
1.69082e-07
3.44177e-07
1.37979e-06
1.37345e-06
3.42849e-07
1.66122e-07
1.21618e-06
-1.6894e-07
5.07049e-07
8.79257e-07
5.1603e-07
8.78916e-07
8.73381e-07
5.02386e-07
-1.22021e-06
4.98933e-07
8.74737e-07
-1.38694e-06
3.44369e-07
8.73633e-07
3.47805e-07
-1.37794e-06
5.0209e-07
3.40633e-07
-1.21692e-06
3.46664e-07
1.37407e-06
3.50549e-07
-4.95422e-07
3.42471e-07
-1.55626e-07
-8.7312e-07
-8.70459e-07
-1.52363e-07
3.51245e-07
1.73736e-06
1.09042e-06
-2.37092e-06
-4.56862e-07
-2.66379e-06
1.79547e-06
1.08353e-06
-2.15204e-07
1.14775e-06
1.83288e-06
-2.52273e-06
-4.57895e-07
-3.04348e-07
1.31382e-06
8.3393e-07
-1.84341e-06
1.44388e-06
-6.37095e-07
9.30566e-07
-7.67783e-07
-4.52124e-07
1.30705e-06
-2.2485e-06
1.68702e-06
1.82421e-06
-2.70631e-06
1.1185e-06
-2.36393e-07
-2.74699e-06
1.9074e-06
1.15797e-06
-3.18382e-07
1.2673e-06
-2.87362e-06
2.01726e-06
-4.10936e-07
-3.31194e-07
-2.11201e-06
1.51765e-06
9.2555e-07
1.52298e-06
-8.57694e-07
1.15892e-06
-8.7516e-07
-3.48854e-07
1.54315e-06
-2.73204e-06
1.93529e-06
1.91862e-06
1.2154e-06
-2.69728e-06
-4.3674e-07
-2.85694e-06
1.28302e-06
1.98442e-06
-4.10501e-07
1.28935e-06
1.85192e-06
-2.74635e-06
-3.94922e-07
-3.36637e-07
9.52341e-07
1.63235e-06
-2.24806e-06
1.54905e-06
-8.88234e-07
1.2578e-06
-9.02129e-07
-4.05761e-07
1.5112e-06
-2.73607e-06
1.89842e-06
1.25703e-06
-2.24099e-07
7.50622e-07
-1.78356e-06
-1.81029e-06
-2.44368e-07
1.28731e-06
7.67345e-07
7.79861e-07
-2.5073e-07
1.31664e-06
-1.84577e-06
-2.06042e-07
1.13626e-06
6.99433e-07
-1.62965e-06
1.03894e-06
-5.49223e-07
7.67313e-07
-5.35484e-07
-2.35861e-07
1.01301e-06
-1.76828e-06
1.25739e-06
-7.87448e-07
1.48176e-06
1.10116e-06
1.15058e-06
1.47013e-06
-7.87827e-07
1.05813e-06
-5.65343e-07
8.21038e-07
-1.41345e-06
1.15999e-06
-6.18191e-07
8.7165e-07
-2.52955e-06
3.17367e-07
1.42473e-06
3.08044e-07
-1.94432e-06
8.48241e-07
-5.78149e-07
-8.2309e-07
-4.01466e-07
-3.11927e-07
-6.4009e-07
-1.58669e-06
-8.66936e-07
-4.20001e-07
2.70621e-06
-8.04459e-07
-4.31622e-07
1.79848e-06
-1.19684e-06
-1.24548e-06
1.95141e-06
-4.42036e-07
-8.80766e-07
3.19784e-07
1.39453e-06
-2.50215e-06
1.07928e-06
-1.86872e-06
-2.0414e-06
1.17884e-06
6.19512e-07
1.15069e-06
-2.02093e-06
8.80668e-07
1.48233e-06
-2.04322e-06
1.38179e-06
8.95468e-07
1.20638e-06
1.80547e-06
6.24157e-07
1.47887e-06
-9.58209e-07
1.49696e-06
-1.50114e-06
1.91723e-06
3.25342e-07
2.73794e-06
2.15588e-06
3.56026e-07
1.55369e-06
1.79071e-06
1.11253e-06
-2.48196e-06
-4.21275e-07
-2.58184e-06
1.74104e-06
1.05107e-06
-2.10261e-07
1.08123e-06
1.76044e-06
-2.42626e-06
-4.1542e-07
-3.14485e-07
1.37711e-06
8.415e-07
-1.90413e-06
1.43301e-06
-6.4204e-07
9.9974e-07
-7.21148e-07
-4.27682e-07
1.2786e-06
-2.23512e-06
1.63868e-06
1.74341e-06
-2.57976e-06
1.04502e-06
-2.08669e-07
-2.53714e-06
1.75165e-06
1.08855e-06
-3.03062e-07
1.18235e-06
-2.6854e-06
1.8917e-06
-3.88659e-07
-3.31409e-07
-2.12067e-06
1.52513e-06
9.26949e-07
1.42752e-06
-7.88716e-07
1.1046e-06
-7.90706e-07
-3.18912e-07
1.47284e-06
-2.59296e-06
1.86448e-06
1.83817e-06
1.14835e-06
-2.56218e-06
-4.24335e-07
-2.67236e-06
1.16862e-06
1.89846e-06
-3.94718e-07
1.18448e-06
2.01931e-06
-2.79751e-06
-4.06279e-07
-3.08352e-07
9.62784e-07
1.60771e-06
-2.26214e-06
1.48015e-06
-8.07051e-07
1.16507e-06
-7.95184e-07
-3.97028e-07
1.47812e-06
-2.59352e-06
1.86741e-06
1.21377e-06
-2.35537e-07
7.25053e-07
-1.70328e-06
-1.76028e-06
-2.52972e-07
1.26808e-06
7.45172e-07
7.55882e-07
-2.47291e-07
1.29361e-06
-1.8022e-06
-2.05482e-07
1.14997e-06
6.84016e-07
-1.6285e-06
9.9843e-07
-5.05108e-07
7.20445e-07
-5.15276e-07
-2.46571e-07
1.0056e-06
-1.71619e-06
1.2462e-06
-7.25264e-07
1.43266e-06
1.03364e-06
1.09566e-06
1.40963e-06
-7.44838e-07
1.09445e-06
-5.69868e-07
8.52534e-07
-1.43825e-06
1.16753e-06
-6.18325e-07
8.89044e-07
-2.42507e-06
3.21774e-07
1.37803e-06
3.09263e-07
-1.97993e-06
8.6346e-07
-5.76222e-07
-7.64464e-07
-3.82636e-07
-3.13734e-07
-6.39403e-07
-1.49252e-06
-8.02831e-07
-3.90049e-07
2.56893e-06
-7.5505e-07
-4.04255e-07
1.74766e-06
-1.13409e-06
-1.15904e-06
1.84925e-06
-4.14413e-07
-8.023e-07
3.12312e-07
1.34112e-06
-2.39827e-06
1.08652e-06
-1.89193e-06
-2.04653e-06
1.17523e-06
6.24628e-07
1.18387e-06
-2.05579e-06
8.82776e-07
1.47522e-06
-2.04568e-06
1.39308e-06
9.00023e-07
1.19982e-06
1.73442e-06
6.49883e-07
1.49677e-06
-9.57857e-07
1.49369e-06
-1.42866e-06
1.79445e-06
3.30271e-07
2.56922e-06
2.17998e-06
3.38254e-07
1.56037e-06
-8.67457e-07
7.50446e-07
3.64033e-07
-2.47022e-07
7.51745e-07
-8.7155e-07
3.65005e-07
-2.452e-07
3.73831e-07
-8.8072e-07
7.67322e-07
-2.60433e-07
-2.56923e-07
-8.78997e-07
7.64411e-07
3.71509e-07
-1.11516e-06
-1.16833e-07
3.64535e-07
-1.16724e-07
-2.46689e-07
-1.13685e-06
7.63089e-07
-8.79739e-07
-8.73945e-07
7.52683e-07
3.64808e-07
-2.43545e-07
7.50838e-07
-8.74027e-07
3.61313e-07
-2.38124e-07
3.69627e-07
7.60241e-07
-8.80672e-07
-2.49196e-07
-2.43686e-07
7.55645e-07
-8.76582e-07
3.64624e-07
-1.11401e-06
-1.22663e-07
3.62723e-07
-1.22695e-07
-2.40473e-07
-1.12348e-06
7.57128e-07
-8.76545e-07
-8.9551e-07
3.84092e-07
7.80091e-07
-2.68673e-07
7.74003e-07
3.80615e-07
-8.9189e-07
-2.62729e-07
3.93729e-07
7.86809e-07
-9.11809e-07
-2.68729e-07
-2.67553e-07
3.86361e-07
7.81229e-07
-9.00037e-07
-1.16017e-06
-1.18273e-07
3.82933e-07
-1.20795e-07
-2.65371e-07
-1.17365e-06
7.87829e-07
-9.00721e-07
-8.83369e-07
-2.59704e-07
7.68928e-07
3.74145e-07
7.60677e-07
-2.48762e-07
-8.79806e-07
3.67891e-07
3.78863e-07
-2.61206e-07
7.73165e-07
-8.90821e-07
-2.54223e-07
7.65883e-07
-8.84124e-07
3.72464e-07
-1.1351e-06
-1.18873e-07
3.70602e-07
-1.20227e-07
-2.54194e-07
-1.14291e-06
7.6981e-07
-8.84269e-07
-1.19619e-07
-1.11668e-06
3.64746e-07
3.73342e-07
-1.13922e-06
-1.14844e-07
-1.13355e-06
-1.15921e-07
3.70473e-07
8.78456e-07
-1.12514e-06
-1.20465e-07
3.67152e-07
7.62717e-07
2.50445e-07
-1.13278e-06
2.56319e-07
7.60267e-07
3.68633e-07
-1.16962e-07
-1.19738e-07
-2.44256e-07
-2.48452e-07
-1.21046e-07
1.13277e-06
-1.20338e-07
-2.52187e-07
-7.6532e-07
-1.1581e-07
-2.58087e-07
-8.79614e-07
-3.72905e-07
-3.70938e-07
-8.8175e-07
-2.56475e-07
-1.19922e-07
2.66973e-07
-1.16011e-06
7.78295e-07
-1.14713e-06
7.71504e-07
7.6313e-07
-1.13236e-06
1.18704e-07
-1.15715e-06
7.77244e-07
3.78963e-07
-8.90847e-07
7.78858e-07
-8.85128e-07
3.76192e-07
-1.14834e-06
-8.91832e-07
1.20187e-07
-8.9098e-07
-3.7317e-07
-8.80234e-07
1.14521e-06
-8.84934e-07
2.61763e-07
-7.70661e-07
-7.66385e-07
2.54628e-07
-8.84927e-07
1.00997e-06
1.75219e-07
-6.09323e-07
-5.75862e-07
2.04184e-07
9.83791e-07
-6.05242e-07
-5.82733e-07
-5.62442e-07
1.16062e-06
9.05252e-08
-6.88706e-07
-6.62817e-07
1.10403e-06
1.71023e-07
-6.12235e-07
3.78896e-07
1.22065e-06
-5.8958e-07
1.208e-06
-6.24921e-07
4.12528e-07
1.45306e-07
1.05809e-06
9.71484e-07
2.14831e-07
-6.01511e-07
-5.84804e-07
2.22961e-07
-6.01435e-07
-5.87074e-07
-5.7901e-07
1.86676e-07
-6.26963e-07
-6.19163e-07
2.19869e-07
-5.89833e-07
3.63479e-07
1.19482e-06
-5.8681e-07
1.19405e-06
-6.07608e-07
3.66499e-07
2.09153e-07
1.34554e-06
-5.39697e-07
3.57635e-08
-8.4161e-07
1.49068e-07
-5.89148e-07
-7.24994e-07
-7.36783e-07
1.12543e-07
-1.10094e-06
-7.9747e-07
-7.29652e-07
2.31567e-07
5.2734e-07
1.47827e-06
-6.60071e-07
1.54339e-06
-8.66985e-07
6.14303e-07
6.65008e-08
1.1213e-06
-6.75859e-07
2.17418e-07
-6.62859e-07
2.29734e-07
-6.36214e-07
-6.04184e-07
-6.83973e-07
-6.97614e-07
2.34792e-07
-6.52446e-07
2.40379e-07
-6.77905e-07
4.48187e-07
1.33803e-06
-6.64918e-07
1.33018e-06
-6.52258e-07
4.53204e-07
2.3238e-07
1.19512e-06
3.68641e-07
-5.79974e-07
-5.84836e-07
4.3905e-07
1.30641e-06
4.27231e-07
1.30239e-06
-6.25591e-07
-1.0133e-06
3.81928e-07
1.23446e-06
-6.03087e-07
1.7944e-07
6.30984e-07
3.84699e-07
6.52689e-07
1.96745e-07
-5.79065e-07
1.27666e-06
1.19911e-06
-6.1564e-07
-6.36755e-07
1.23855e-06
-4.02872e-07
1.2498e-06
-6.60248e-07
-1.55662e-07
1.29903e-06
-7.04319e-07
1.00956e-06
5.74254e-07
5.81955e-07
1.06634e-06
-6.47745e-07
1.24542e-06
7.47457e-07
4.67868e-07
9.10849e-08
4.53171e-07
1.73359e-07
1.95646e-07
4.02603e-07
-1.36894e-06
5.11264e-07
1.60059e-07
-6.05765e-07
1.19707e-06
1.56152e-07
1.12407e-06
-6.67459e-07
4.95593e-07
1.2272e-06
-1.41544e-06
6.02862e-07
-4.38792e-07
7.08386e-07
-1.41255e-07
-2.11457e-07
6.65374e-07
-1.25197e-07
-9.68982e-07
7.89597e-07
3.04581e-07
7.61822e-07
-4.36333e-08
-1.01321e-06
2.95025e-07
-9.22928e-07
-9.1929e-08
7.44033e-07
2.70825e-07
2.74609e-07
-9.15107e-08
-9.39521e-07
7.56422e-07
2.02501e-07
6.64317e-07
-9.92015e-07
6.69326e-07
2.94997e-07
1.78388e-07
7.60538e-07
-7.5214e-08
2.90401e-09
7.5258e-07
-1.00891e-06
2.53428e-07
7.1301e-07
-9.67746e-07
3.77877e-08
2.16948e-07
-9.63781e-07
7.18994e-07
6.9031e-09
2.37884e-07
2.33867e-07
7.31203e-07
-9.7856e-07
1.34897e-08
2.4495e-07
7.90651e-07
-1.0327e-06
7.26201e-07
2.31759e-07
2.32602e-07
7.91917e-07
-4.9782e-09
-7.87691e-08
-8.74454e-07
6.98202e-07
2.55021e-07
7.02187e-07
-9.1426e-07
-2.64885e-08
2.38562e-07
-8.61854e-07
6.82713e-07
-5.45742e-08
2.33716e-07
2.28539e-07
-8.86748e-07
7.14139e-07
-5.59292e-08
1.72277e-07
6.50068e-07
-9.01114e-07
6.35321e-07
2.39143e-07
1.71011e-07
7.07596e-07
-5.55228e-08
-4.96851e-08
2.28761e-07
-9.54661e-07
7.75585e-07
7.5011e-07
1.96604e-07
-9.60787e-07
1.40723e-08
-9.34646e-07
2.05993e-07
7.52655e-07
-2.40029e-08
2.22749e-07
-9.94381e-07
7.52745e-07
1.8886e-08
1.85616e-07
7.35195e-07
-9.70497e-07
7.35374e-07
2.00353e-07
1.77784e-07
7.80161e-07
-2.14884e-08
7.58241e-07
2.30522e-07
-1.0324e-06
-9.42725e-07
1.66931e-07
6.83866e-07
1.76903e-07
6.97353e-07
-9.65766e-07
1.38709e-08
2.08999e-07
7.62049e-07
-9.84918e-07
7.91348e-07
-2.27785e-07
1.94678e-07
-2.26591e-07
7.59724e-07
-9.73638e-07
7.10035e-07
7.17376e-07
2.65727e-07
2.21395e-07
7.18807e-07
-2.04752e-07
6.84515e-07
2.39231e-07
-7.23387e-07
6.22111e-07
2.68206e-07
-2.70756e-08
9.39129e-07
9.86236e-07
-5.0061e-08
2.65804e-07
7.31423e-07
-2.29228e-07
1.80334e-07
7.3276e-07
1.4379e-07
7.82324e-07
7.70656e-07
1.87997e-07
-6.93502e-07
1.52194e-07
7.47302e-07
-9.05934e-07
-6.28439e-08
7.3955e-07
-5.2109e-08
-9.189e-07
1.62554e-07
-7.20087e-08
-6.83109e-07
-5.14451e-08
9.31889e-07
-2.50854e-08
-1.93476e-07
-3.62693e-08
-2.20378e-07
-7.52745e-07
-7.40933e-07
-2.14798e-07
-2.38417e-08
-7.91345e-07
6.99778e-07
1.87742e-07
-9.61745e-08
-1.06836e-07
-7.77293e-07
6.99763e-07
1.84365e-07
1.89314e-07
-7.93707e-07
7.12651e-07
-1.08258e-07
7.08092e-07
-7.89748e-07
1.91753e-07
-1.10097e-07
-8.49228e-08
-8.94082e-07
1.8766e-07
-8.9467e-07
7.02912e-07
-8.24878e-08
-1.03503e-07
-7.87844e-07
-7.64167e-07
-1.17353e-07
7.00095e-07
1.81424e-07
-1.28026e-07
6.99277e-07
1.79196e-07
1.84029e-07
-1.23216e-07
7.0651e-07
7.06781e-07
-1.25081e-07
1.82711e-07
-5.82217e-08
-8.87768e-07
1.81823e-07
-8.88116e-07
7.01869e-07
-5.90021e-08
-1.21985e-07
-7.92623e-07
1.92673e-07
7.26961e-07
-1.27011e-07
-1.29106e-07
1.91844e-07
7.17353e-07
2.03264e-07
7.26073e-07
-1.42529e-07
7.18632e-07
1.99549e-07
-1.36952e-07
-6.87706e-08
-9.19857e-07
1.96004e-07
-9.21673e-07
7.23797e-07
-6.94197e-08
-1.31805e-07
-7.78685e-07
7.13364e-07
1.90423e-07
-1.25102e-07
-1.28311e-07
7.11447e-07
1.85792e-07
1.93339e-07
7.13853e-07
-1.34027e-07
7.14892e-07
1.85864e-07
-1.34874e-07
-6.32375e-08
-9.03702e-07
1.88254e-07
-9.04076e-07
7.12528e-07
-5.90718e-08
-1.29737e-07
-8.90908e-07
-7.12181e-08
1.84833e-07
1.91234e-07
-7.76575e-08
-9.07283e-07
-7.63531e-08
-9.03304e-07
1.89909e-07
7.76741e-07
-6.56374e-08
-8.97381e-07
1.86278e-07
-1.12985e-07
-7.07623e-07
-7.03e-08
-7.09595e-07
-1.16521e-07
1.85639e-07
-9.02469e-07
-8.92389e-07
7.03819e-07
7.08681e-07
-8.99399e-07
6.87879e-08
-9.03647e-07
7.11644e-07
1.15027e-07
-9.08743e-07
7.16059e-07
-7.75891e-07
-1.86799e-07
-1.89195e-07
-7.83594e-07
7.11823e-07
-9.04001e-07
-7.16985e-07
-7.27595e-08
-1.17539e-07
-6.96918e-08
-1.20248e-07
-1.24337e-07
-6.1597e-08
9.10536e-07
-6.57877e-08
-1.30894e-07
1.91214e-07
-7.87815e-07
-1.20384e-07
-7.80947e-07
1.92756e-07
-7.00354e-08
-7.8883e-07
9.11006e-07
-1.89493e-07
6.64918e-08
-7.14817e-07
1.21991e-07
1.26153e-07
-7.15518e-07
1.99578e-06
-4.02727e-07
2.58868e-07
-5.85117e-07
2.25863e-06
3.10909e-07
-1.76327e-06
2.0167e-06
-5.18623e-07
2.6519e-07
2.80707e-07
1.83574e-06
-4.84098e-07
2.36471e-06
1.52949e-06
1.50482e-06
2.7477e-07
2.32323e-06
-5.13038e-07
2.06479e-06
2.31619e-06
-6.35944e-07
3.37011e-07
-6.5509e-07
2.27395e-06
2.88545e-07
-1.91215e-06
-6.25126e-07
2.21999e-06
3.17284e-07
2.53071e-07