/*--------------------------------*- C++ -*----------------------------------*\
| =========                 |                                                 |
| \\      /  F ield         | OpenFOAM: The Open Source CFD Toolbox           |
|  \\    /   O peration     | Version:  2506                                  |
|   \\  /    A nd           | Website:  www.openfoam.com                      |
|    \\/     M anipulation  |                                                 |
\*---------------------------------------------------------------------------*/
FoamFile
{
    version     2.0;
    format      ascii;
    arch        "LSB;label=32;scalar=64";
    class       volScalarField;
    location    "1100";
    object      p;
}
// * * * * * * * * * * * * * * * * * * * * * * * * * * * * * * * * * * * * * //

dimensions      [0 2 -2 0 0 0 0];

internalField   nonuniform List<scalar> 
57792
(
-0.0220671
-0.022522
-0.0185652
-0.0186088
-0.0208641
-0.0213371
-0.0194895
-0.0194565
-0.0235518
-0.0260169
-0.0158825
-0.0166865
-0.0222704
-0.0222015
-0.0177019
-0.0183773
-0.0122359
-0.00911667
-0.00405231
-0.00662261
-0.00843188
-0.00751237
-0.00732862
-0.0056084
-0.0145748
-0.012753
-0.00901525
-0.0107942
-0.0127549
-0.0123923
-0.0113188
-0.0101606
-0.0211985
-0.0163196
-0.0167196
-0.0157833
-0.0186751
-0.0176611
-0.017568
-0.0166292
-0.0215119
-0.0151182
-0.0138394
-0.0165549
-0.0188105
-0.0162384
-0.0169382
-0.0140902
-0.0145691
-0.0152527
-0.0133572
-0.00937289
-0.0134582
-0.0147364
-0.0113754
-0.0130105
-0.0139633
-0.00807338
-0.0127751
-0.0105999
-0.0111768
-0.0100953
-0.0121723
-0.0114498
-0.0223645
-0.0211697
-0.0221518
-0.0191572
-0.020968
-0.0218436
-0.020591
-0.0211601
-0.0203409
-0.0195117
-0.0208844
-0.0170912
-0.0192967
-0.020104
-0.0188976
-0.0197835
-0.0236791
-0.0227847
-0.0272266
-0.0178507
-0.0222802
-0.0236008
-0.0213871
-0.023768
-0.0154561
-0.0145741
-0.0139667
-0.0117746
-0.014068
-0.0146203
-0.0129098
-0.0135339
-0.0201322
-0.0210421
-0.0174631
-0.0166649
-0.019705
-0.0202086
-0.0178442
-0.0183545
-0.0209056
-0.0173497
-0.021489
-0.0220713
-0.0204011
-0.0195076
-0.0215063
-0.0205369
-0.0208411
-0.0166145
-0.0159053
-0.0158299
-0.0182085
-0.0172154
-0.0167732
-0.0161734
-0.0220874
-0.0167314
-0.016583
-0.0214539
-0.0206037
-0.0179308
-0.0200065
-0.0178428
-0.00628458
-0.0122867
-0.0139624
-0.00897764
-0.0079196
-0.0105696
-0.0092828
-0.011341
-0.018843
-0.0250162
-0.0199436
-0.0165619
-0.0198901
-0.022038
-0.01789
-0.019974
-0.0163766
-0.0178129
-0.0164139
-0.0148248
-0.0164686
-0.0171164
-0.0155347
-0.0163127
-0.0105294
-0.0126853
-0.0130249
-0.0106629
-0.0110141
-0.0122292
-0.0110937
-0.0121076
-0.013812
-0.0143429
-0.0100366
-0.0138169
-0.0134507
-0.0130262
-0.0128494
-0.0123786
-0.0165494
-0.0155314
-0.0185566
-0.0160484
-0.0161206
-0.016568
-0.0169205
-0.0175573
-0.0136771
-0.0105827
-0.013506
-0.013776
-0.0133398
-0.0119726
-0.0140443
-0.012799
-0.0154112
-0.0145768
-0.0149759
-0.0176463
-0.0156756
-0.0151254
-0.0164041
-0.0156164
-0.00259764
-0.00907638
-0.00274403
-0.00580205
-0.00539413
-0.00560068
-0.00492606
-0.00530603
-0.0178426
-0.0260344
-0.0178615
-0.0162323
-0.0182845
-0.0215204
-0.0164518
-0.0185793
-0.0026029
-0.0101408
-0.0028449
-0.00662548
-0.00572864
-0.00586021
-0.00531845
-0.00605137
-0.00803628
-0.0116904
-0.00925686
-0.00959714
-0.00975176
-0.00984126
-0.00917673
-0.00999946
-0.0114658
-0.00525253
-0.00816664
-0.012298
-0.0106771
-0.00730194
-0.0107469
-0.00820593
-0.0129317
-0.0131435
-0.0131567
-0.00556377
-0.0117001
-0.0139535
-0.00976303
-0.0120889
-0.00465094
-0.0076556
-0.0117817
-0.00772679
-0.0065631
-0.00813255
-0.0085516
-0.00960299
-0.00536677
-0.0087726
-0.0125926
-0.0121837
-0.00744994
-0.00855524
-0.0111925
-0.0111207
-0.0200799
-0.0207939
-0.0218956
-0.0173473
-0.0196674
-0.0206687
-0.019287
-0.0205397
-0.0216911
-0.0229949
-0.0241038
-0.0189957
-0.0216221
-0.0228655
-0.0209748
-0.0227332
-0.0246847
-0.0257325
-0.0289995
-0.0191335
-0.0234871
-0.0260096
-0.022858
-0.0254515
-0.014227
-0.0152856
-0.0143384
-0.0117119
-0.0137774
-0.0146649
-0.0128562
-0.0137576
-0.0205717
-0.0215684
-0.0168234
-0.0177892
-0.0198582
-0.0201232
-0.0181644
-0.0179414
-0.0217351
-0.0188696
-0.0241137
-0.0228881
-0.0217115
-0.0209754
-0.0227374
-0.0224627
-0.0212212
-0.0163544
-0.0169258
-0.0169725
-0.0183854
-0.0174012
-0.0174982
-0.0168923
-0.0227272
-0.018107
-0.0182978
-0.0242766
-0.0222052
-0.0187789
-0.0218661
-0.0191661
-0.00130855
-0.00127559
-0.000786048
-0.00573102
-0.00227409
-0.00173772
-0.00269317
-0.00280318
-0.00138756
-0.00127137
-0.000887645
-0.00528126
-0.00167166
-0.00199255
-0.00403878
-0.00254845
-0.000776052
-0.00091845
-0.000748877
-0.00339615
-0.00189365
-0.00135853
-0.00198947
-0.00244574
-0.00757517
-0.00698704
-0.006086
-0.00854101
-0.00781211
-0.00746286
-0.00786267
-0.0070334
-0.00253502
-0.00207459
-0.00578859
-0.00563668
-0.00356178
-0.00289996
-0.00515296
-0.00521102
-0.00194743
-0.00570392
-0.00117875
-0.00152154
-0.00271256
-0.00352166
-0.00104866
-0.00151185
-0.00197657
-0.00593227
-0.00685121
-0.00527632
-0.00426835
-0.00535882
-0.00518833
-0.00606018
-0.0026508
-0.00479688
-0.00571758
-0.00237957
-0.00270518
-0.00471556
-0.00296413
-0.00437771
-0.00288063
-0.0026417
-0.00266094
-0.0105849
-0.00491806
-0.00263963
-0.00674296
-0.00499963
-0.00230438
-0.00211032
-0.00228438
-0.00838711
-0.0038737
-0.00203113
-0.00546901
-0.00376551
-0.00266994
-0.00254815
-0.00279398
-0.0108362
-0.00481394
-0.00256693
-0.00685461
-0.00511625
-0.0149157
-0.013514
-0.0151686
-0.0166796
-0.0156754
-0.0143611
-0.0166285
-0.0159323
-0.00430522
-0.00492734
-0.0119338
-0.010525
-0.00597614
-0.00684793
-0.00944131
-0.0101611
-0.00229022
-0.00890286
-0.00229433
-0.00258457
-0.00426342
-0.00584969
-0.00254912
-0.00426022
-0.00676063
-0.0134631
-0.0120119
-0.01343
-0.0107339
-0.012104
-0.0120085
-0.0130044
-0.00498781
-0.0122989
-0.0106051
-0.00423602
-0.00667462
-0.0102405
-0.00594711
-0.00955861
-0.00363445
-0.00866948
-0.0116947
-0.00617988
-0.00537444
-0.00801679
-0.00678591
-0.00956489
-0.0166041
-0.0274906
-0.025622
-0.0181061
-0.0199672
-0.0241015
-0.0193492
-0.0239836
-0.0187253
-0.0239975
-0.0228982
-0.0185808
-0.019981
-0.0225986
-0.0197406
-0.0218191
-0.00882832
-0.0133188
-0.014594
-0.0109204
-0.0105138
-0.012296
-0.0115417
-0.013019
-0.0114588
-0.0132032
-0.00862924
-0.0136823
-0.011731
-0.0115386
-0.011505
-0.0107346
-0.0148769
-0.0166828
-0.0234253
-0.0171029
-0.0163093
-0.0181308
-0.0183432
-0.0197438
-0.0145799
-0.0096656
-0.0142424
-0.015485
-0.0134855
-0.0116508
-0.014811
-0.0133261
-0.0171009
-0.0173211
-0.0170202
-0.0227438
-0.018529
-0.0173701
-0.0195968
-0.018569
-0.00248672
-0.00263474
-0.00893544
-0.00520513
-0.00312263
-0.00428033
-0.0055607
-0.00621326
-0.0030308
-0.00351534
-0.0113228
-0.00618882
-0.00386559
-0.00583145
-0.00674899
-0.00813788
-0.0138221
-0.0154078
-0.0167424
-0.014455
-0.0144983
-0.0157855
-0.0147485
-0.0157074
-0.00762777
-0.00826868
-0.0122141
-0.00982805
-0.00830839
-0.00941913
-0.00998662
-0.010509
-0.00334825
-0.00968711
-0.00589495
-0.00637877
-0.00614833
-0.00727772
-0.00562142
-0.0070464
-0.00481765
-0.0079496
-0.0124672
-0.0108384
-0.00701474
-0.00827931
-0.00984815
-0.0107086
-0.0111357
-0.00792768
-0.00858188
-0.0124832
-0.0108334
-0.00853252
-0.0115088
-0.00958222
-0.0118502
-0.0131707
-0.0095804
-0.0131926
-0.0128376
-0.0125878
-0.0121223
-0.0118054
-0.00813216
-0.0181424
-0.015426
-0.0145779
-0.0123611
-0.0158035
-0.0132414
-0.0166113
-0.0218284
-0.0219277
-0.0202399
-0.0225931
-0.0219575
-0.0218232
-0.0217074
-0.0216951
-0.0172914
-0.0185037
-0.0169985
-0.018715
-0.0183692
-0.0180227
-0.0179648
-0.0177552
-0.0220161
-0.0244308
-0.021197
-0.0273934
-0.0241213
-0.0239043
-0.02428
-0.0237291
-0.0205321
-0.0171752
-0.0186953
-0.0229243
-0.0206803
-0.0184215
-0.0227172
-0.0208982
-0.0212671
-0.0224801
-0.0199189
-0.0186322
-0.0213542
-0.0212249
-0.0188147
-0.0200293
-0.0171979
-0.0193548
-0.0227026
-0.0196924
-0.0183937
-0.0210847
-0.0199156
-0.0218228
-0.0186615
-0.0199113
-0.0222243
-0.0198338
-0.019002
-0.0199051
-0.019712
-0.0208218
-0.0225344
-0.021094
-0.0189721
-0.0228962
-0.0229205
-0.0212241
-0.0220273
-0.0202214
-0.0161387
-0.00527709
-0.00433325
-0.0136102
-0.0134203
-0.00802295
-0.0118777
-0.0063292
-0.0119661
-0.00388552
-0.00361539
-0.00861287
-0.00817592
-0.00590905
-0.00732178
-0.00495182
-0.024495
-0.021064
-0.0157057
-0.0276316
-0.0251831
-0.0212437
-0.0240168
-0.0197483
-0.0204569
-0.0173016
-0.0239277
-0.0195008
-0.0192977
-0.01926
-0.0211893
-0.0210414
-0.0170804
-0.0153767
-0.00643031
-0.0148341
-0.0156552
-0.014004
-0.0141019
-0.0100156
-0.0161795
-0.0226683
-0.0181366
-0.013989
-0.0169227
-0.0199782
-0.0148051
-0.0183055
-0.0137641
-0.0110007
-0.0137254
-0.00500122
-0.0114126
-0.0124413
-0.00888517
-0.0109573
-0.717203
-0.183292
-0.260093
-0.924657
-0.216856
0.118112
-0.462969
-0.133154
-0.0874938
-0.0134671
-0.0609528
-0.0607037
-0.0555602
-0.0247028
-0.0830388
-0.0539617
-0.135819
-0.120837
-0.0619202
-0.0863508
-0.0284215
0.0119414
-0.165109
-0.0217268
-0.822868
-0.1299
-0.125152
-0.458656
-0.157985
0.111101
-0.380039
-0.0922431
-0.108629
-0.0930384
-0.158208
-0.118667
-0.178025
-0.0790952
-0.166817
0.151884
-0.049886
0.00876995
-0.00774622
-0.0465731
-0.125148
-0.08146
-0.17325
-0.084632
-0.215842
-0.383881
-0.218687
-0.20332
-0.154179
-0.0183378
-0.0308861
-0.0416533
-0.0808328
-0.0534236
-0.109831
-0.090609
-0.027739
0.00169292
-0.159722
-0.14272
-0.53563
-0.209211
-0.199286
-0.817949
-0.203624
0.0837928
-0.369392
-0.132991
-0.0911179
-0.0129267
-0.0615614
-0.0691259
-0.0541132
-0.00913414
-0.0838498
-0.0461138
-0.133177
-0.127709
-0.0742149
-0.0886963
-0.0815271
-0.0680382
-0.163305
-0.0748703
-0.71815
-0.122147
-0.129804
-0.427878
-0.172193
0.0573046
-0.331577
-0.0994979
-0.103751
-0.128447
-0.186229
-0.1168
-0.169515
-0.133288
-0.140163
0.0631833
-0.0402846
-0.0338961
-0.0308297
-0.107765
-0.0948378
-0.0935743
-0.146488
-0.0885637
-0.208938
-0.353547
-0.180814
-0.193499
-0.161614
-0.0558733
-0.0687522
-0.0692461
-0.109527
-0.0783335
-0.103889
-0.0790333
-0.0778689
-0.0522109
-0.127339
-0.149508
-0.55565
-0.126706
-0.460277
-0.201682
-0.145197
0.0606821
-0.282271
-0.0691529
-0.026453
-0.000581087
-0.0136609
0.0136432
0.00263319
0.0132133
0.00361469
0.000228469
-0.337639
-0.0726134
-0.247249
-0.124719
-0.118766
0.00642808
-0.179535
-0.0855254
-0.0874695
0.0120488
-0.0824501
-0.0454106
-0.143679
-0.00224306
-0.0889253
-0.103962
-0.0322022
-0.130349
-0.114434
0.00701496
-0.0445303
-0.101435
-0.0234029
-0.053947
0.0356793
0.000503795
0.0260224
0.0358234
-0.00959501
-0.0181081
-0.115045
-0.00968379
-0.2155
-0.138696
-0.000873845
-0.134082
-0.149936
-0.0794065
-0.108893
-0.0438384
-0.0894324
-0.0803824
-0.00389008
-0.0196023
-0.0863034
-0.0487823
-0.0285502
-0.0191082
-0.336054
-0.590199
-0.112417
-0.150294
-0.303215
-0.169954
-0.105639
0.0757088
-0.649544
-0.939306
-0.0782275
-0.266701
-0.443426
-0.285495
-0.147423
0.00121534
-0.0546035
-0.0476949
-0.0139947
-0.0486276
-0.056556
-0.0422794
-0.0379029
-0.0410224
-0.102229
-0.192887
-0.115099
-0.0785365
-0.162241
-0.0864651
-0.0527714
-0.0654562
-0.333752
-0.179747
-0.191945
-0.310597
-0.0738357
-0.0690454
-0.189595
-0.0760844
-0.148235
-0.146702
-0.155905
-0.121834
0.0118328
-0.170419
-0.16046
-0.215896
-0.109398
-0.0841881
-0.140066
-0.113281
-0.148566
-0.0484755
-0.121272
-0.0625412
-0.0339762
-0.0828193
-0.118477
-0.0590951
-0.0944064
-0.104686
-0.145402
-0.186218
-0.422412
-0.102413
-0.0948342
-0.512968
-0.174963
0.163466
-0.354402
-0.263436
-0.0131268
0.000492672
0.022042
-0.0158251
0.00309862
0.0448289
-0.00402955
-0.003462
-0.0404197
0.00172404
-0.0846033
-0.184032
-0.0359648
0.0360424
-0.0185102
-0.00815618
-0.354154
-0.0732594
-0.242836
-0.241813
-0.141396
-0.0547526
-0.137916
-0.117933
-0.0138208
-0.117353
-0.13637
-0.0280294
-0.0340252
-0.0611365
-0.120914
0.0958693
0.0881125
0.00337017
0.0298233
-0.0232996
-0.0146986
0.00712159
0.0312853
-0.00240918
-0.0640484
-0.246269
-0.021055
-0.0262692
-0.128343
-0.169505
-0.125358
-0.118021
-0.0760003
-0.0795876
-0.0201396
-0.00200739
-0.0351007
-0.116573
-0.0254686
0.00173538
-0.236537
-0.307541
-0.145806
-0.0936011
-0.116628
-0.180085
0.0322033
-0.145289
-0.323739
-0.392405
-0.246648
-0.0517267
-0.170938
-0.203835
-0.0107692
-0.0968804
-0.124262
-0.150361
-0.103684
-0.00242003
-0.0712957
-0.0589718
0.0109286
-0.0143746
0.00424681
0.0203604
0.0192621
0.0173039
-0.003971
0.0150641
0.0146718
0.017568
-0.15947
-0.104916
-0.0459504
-0.0349907
-0.00228404
-0.107744
-0.065234
-0.0115521
-0.24345
-0.0167778
-0.116662
-0.105778
-0.17436
-0.147926
-0.203837
-0.127812
-0.0491026
-0.0162068
-0.00748715
0.00240914
0.0207977
-0.0167494
-0.0132107
-0.0132669
-0.091219
0.00635702
0.00836879
-0.0799627
-0.0648786
-0.0080846
-0.109652
-0.0069647
-0.0143789
-0.0135104
-0.0155437
-0.0134517
-0.0139896
-0.0143331
-0.0141566
-0.0145846
-0.0105188
-0.00431417
-0.0117362
-0.00722205
-0.00877132
-0.00846471
-0.00933084
-0.00928272
-0.0170122
-0.0164701
-0.0183074
-0.0160056
-0.0168197
-0.0174943
-0.0170261
-0.0176972
-0.0123293
-0.00920228
-0.013278
-0.0107748
-0.0114844
-0.0114582
-0.0119575
-0.0118871
-0.0125526
-0.0153908
-0.0129218
-0.0103953
-0.0128758
-0.0140053
-0.0117469
-0.0129343
-0.012698
-0.0101689
-0.0146443
-0.0158277
-0.013287
-0.0119085
-0.0147332
-0.0141725
-0.0155347
-0.0131769
-0.0109405
-0.0145081
-0.0146923
-0.013297
-0.0141208
-0.0126155
-0.0160137
-0.01471
-0.0106735
-0.0149865
-0.0156719
-0.0144171
-0.0145141
-0.0127893
-0.0184106
-0.0169934
-0.0166144
-0.0161944
-0.017458
-0.0173275
-0.0167694
-0.0165501
-0.0155361
-0.0143838
-0.0135453
-0.0135066
-0.0148177
-0.0147209
-0.0142238
-0.0140008
-0.0123004
-0.0108006
-0.0050244
-0.00789363
-0.0108313
-0.0102226
-0.00795219
-0.00699039
-0.0136349
-0.0122816
-0.00954518
-0.0108772
-0.0123423
-0.0118834
-0.010956
-0.0104989
-0.0160027
-0.0152993
-0.0149924
-0.0138678
-0.0153525
-0.015554
-0.0147063
-0.0146604
-0.0158398
-0.0135728
-0.0135143
-0.0149946
-0.0150953
-0.0143762
-0.0150126
-0.0138089
-0.0136384
-0.013912
-0.012799
-0.00963969
-0.0133053
-0.0136052
-0.0117383
-0.0125879
-0.0130687
-0.00898954
-0.0124044
-0.011817
-0.0120301
-0.0111868
-0.0122806
-0.0115764
-0.0103067
-0.0185348
-0.0189159
-0.0161464
-0.0145257
-0.0169709
-0.0156068
-0.018002
-0.0212916
-0.02172
-0.0218316
-0.0202301
-0.0218522
-0.0220428
-0.0210409
-0.0214552
-0.022272
-0.0219974
-0.0225261
-0.0206776
-0.0217243
-0.0221028
-0.0212947
-0.0217916
-0.0175376
-0.0184686
-0.018804
-0.0171814
-0.0179324
-0.0186268
-0.0177645
-0.0180742
-0.0207121
-0.0200439
-0.0176423
-0.0196413
-0.0201091
-0.0198317
-0.0188456
-0.0190789
-0.0215433
-0.0202372
-0.021962
-0.0214194
-0.0210219
-0.0213319
-0.0217155
-0.0215329
-0.0199909
-0.0179193
-0.0192711
-0.0193919
-0.0198198
-0.0189632
-0.0196525
-0.0192099
-0.0214603
-0.0199406
-0.0197238
-0.0215135
-0.0210522
-0.0202969
-0.0209735
-0.0202647
-0.00312237
-0.00920351
-0.00619121
-0.00652026
-0.00595194
-0.00747132
-0.00541614
-0.00709415
-0.0123254
-0.0136515
-0.0127524
-0.0128917
-0.013315
-0.0135645
-0.0129119
-0.013223
-0.00834549
-0.011582
-0.010032
-0.00995989
-0.00996664
-0.0107904
-0.00943835
-0.010339
-0.00833985
-0.0117719
-0.00997791
-0.0100806
-0.00979146
-0.0104905
-0.00947923
-0.0102869
-0.0108436
-0.00815706
-0.00829704
-0.0114869
-0.0106169
-0.00878403
-0.0113025
-0.00933822
-0.0117547
-0.0122096
-0.0123193
-0.00934798
-0.0112864
-0.0122632
-0.0104443
-0.0117937
-0.00764192
-0.00781796
-0.0112219
-0.00926216
-0.00834587
-0.00903129
-0.00962532
-0.0100406
-0.00896868
-0.0101753
-0.0120244
-0.0119268
-0.0105545
-0.0104181
-0.0112642
-0.0114616
-0.0222542
-0.0210583
-0.0201488
-0.0184113
-0.0212149
-0.0212175
-0.0199009
-0.0199598
-0.0200711
-0.0192328
-0.0181341
-0.01699
-0.0191147
-0.0191588
-0.0178836
-0.0180352
-0.0182019
-0.0171765
-0.016614
-0.0153194
-0.0171532
-0.0172068
-0.0162264
-0.0162993
-0.0150722
-0.0142419
-0.0135613
-0.0119091
-0.0140285
-0.0142702
-0.0130395
-0.0134184
-0.0199625
-0.0189747
-0.0175942
-0.0166132
-0.0188258
-0.018742
-0.0177367
-0.0177599
-0.0200094
-0.0167936
-0.0179767
-0.0190197
-0.0188832
-0.0178056
-0.0189803
-0.0179159
-0.0179497
-0.0163299
-0.0154934
-0.0148539
-0.0167548
-0.0165596
-0.0157813
-0.0154719
-0.0179845
-0.0150831
-0.0157863
-0.0169517
-0.0169826
-0.0159101
-0.0168307
-0.0158904
-0.00330477
-0.00314266
-0.0036943
-0.0144666
-0.00680683
-0.00340212
-0.00958955
-0.00665176
-0.0028319
-0.00225125
-0.00271752
-0.010832
-0.00519459
-0.00253596
-0.00731305
-0.00478332
-0.00314492
-0.00291138
-0.00313392
-0.0149644
-0.00584719
-0.00299239
-0.00799311
-0.00564282
-0.0203012
-0.0182316
-0.020768
-0.022269
-0.0206802
-0.0194126
-0.0217976
-0.0211302
-0.00579415
-0.00636055
-0.0162517
-0.0140652
-0.00805099
-0.00895974
-0.0127199
-0.0137949
-0.00303565
-0.0116409
-0.00265463
-0.00328026
-0.00561486
-0.00784564
-0.00311697
-0.00532647
-0.00883035
-0.0179518
-0.0160965
-0.0182285
-0.0143825
-0.0164167
-0.0167376
-0.0180734
-0.00621825
-0.0172803
-0.0143821
-0.00485566
-0.00839064
-0.0142731
-0.00726246
-0.0130898
-0.0165728
-0.0169629
-0.0181354
-0.0155075
-0.0162961
-0.0168726
-0.0163088
-0.0168821
-0.0179455
-0.0190891
-0.0197242
-0.0167515
-0.0177808
-0.0188345
-0.0176837
-0.0187697
-0.0198687
-0.0205535
-0.0217496
-0.0191304
-0.0197133
-0.020527
-0.0197815
-0.0205169
-0.013771
-0.014364
-0.0155174
-0.012158
-0.0132807
-0.0142508
-0.013019
-0.0139262
-0.016794
-0.017868
-0.0150528
-0.0156589
-0.0167378
-0.0167047
-0.0158257
-0.0157617
-0.0176972
-0.0166059
-0.019655
-0.0186994
-0.0176114
-0.0175297
-0.018728
-0.0186382
-0.0178514
-0.0149471
-0.0154357
-0.016419
-0.0166594
-0.0156724
-0.0165342
-0.0153641
-0.0186883
-0.0172458
-0.0164697
-0.0196679
-0.0185138
-0.0174489
-0.0186016
-0.0174687
-0.0043874
-0.0127015
-0.00413574
-0.0104417
-0.0084177
-0.00915468
-0.00750951
-0.00829511
-0.0164609
-0.0177813
-0.0165414
-0.0191878
-0.0177487
-0.0177808
-0.0177791
-0.0178774
-0.00413068
-0.012427
-0.00439773
-0.0110935
-0.00822304
-0.0090703
-0.0071427
-0.00825641
-0.0180326
-0.021789
-0.0194886
-0.0262639
-0.0227278
-0.0217317
-0.0226776
-0.0226147
-0.0150812
-0.00801881
-0.0155079
-0.0195309
-0.0150636
-0.0110792
-0.0172192
-0.0158123
-0.0152449
-0.0193511
-0.0152303
-0.00917157
-0.0151444
-0.0167296
-0.0127623
-0.0150916
-0.00681936
-0.0149868
-0.0195132
-0.0144988
-0.0108293
-0.0155185
-0.0157607
-0.017664
-0.00824084
-0.0153232
-0.0197132
-0.0151586
-0.0108535
-0.0153109
-0.015044
-0.0175607
-0.0166354
-0.015055
-0.0136789
-0.0143964
-0.0158807
-0.0155316
-0.014898
-0.0141058
-0.0108117
-0.0036091
-0.00328387
-0.00686378
-0.00814772
-0.00574447
-0.0072885
-0.00424491
-0.00893211
-0.00294339
-0.00265974
-0.00519768
-0.00611234
-0.00432769
-0.00548704
-0.00329942
-0.0121738
-0.00823941
-0.00752895
-0.00963478
-0.0108812
-0.00931284
-0.00995621
-0.00814284
-0.0131672
-0.0118967
-0.0135351
-0.0100556
-0.0121242
-0.01277
-0.0115651
-0.0123788
-0.0122124
-0.00790755
-0.00480877
-0.0107297
-0.0103071
-0.00847005
-0.00971011
-0.00714021
-0.0110808
-0.0125033
-0.0087068
-0.00801201
-0.0105713
-0.0110816
-0.00876734
-0.00965944
-0.00951857
-0.00590348
-0.00661337
-0.00367417
-0.0072805
-0.00700881
-0.00612073
-0.00582741
-0.00548562
-0.0126776
-0.0134562
-0.0122298
-0.0094248
-0.010876
-0.0113357
-0.0131054
-0.021707
-0.0289623
-0.022607
-0.027879
-0.0246908
-0.0244248
-0.024331
-0.0257399
-0.017095
-0.0198641
-0.0181792
-0.0199433
-0.0191242
-0.018623
-0.0191683
-0.0189199
-0.021279
-0.0279695
-0.022697
-0.0287782
-0.0257307
-0.0243086
-0.0249734
-0.0255878
-0.0172036
-0.0167531
-0.0182274
-0.0249736
-0.0185156
-0.0170137
-0.0206032
-0.0182659
-0.0183589
-0.0240799
-0.0207246
-0.016973
-0.0199405
-0.0216829
-0.0187816
-0.0211519
-0.0172777
-0.0191694
-0.0246861
-0.0215998
-0.0184764
-0.0197499
-0.0218241
-0.0219365
-0.0177251
-0.0213066
-0.0253502
-0.0210287
-0.0198662
-0.0208663
-0.0211026
-0.0222335
-0.00516171
-0.0174757
-0.00381121
-0.0121165
-0.0106056
-0.0115111
-0.00830062
-0.00918312
-0.0220614
-0.0230969
-0.0185883
-0.0248775
-0.0234386
-0.0227029
-0.0227434
-0.0222735
-0.00360726
-0.0112069
-0.00294743
-0.00869922
-0.00693529
-0.00758103
-0.00529799
-0.00640687
-0.0196548
-0.0264427
-0.0168381
-0.0298095
-0.024471
-0.0235447
-0.0237648
-0.0234675
-0.0198526
-0.00841601
-0.0175137
-0.0238475
-0.0189065
-0.0129679
-0.0225894
-0.0175245
-0.0197479
-0.0232177
-0.0167225
-0.00919513
-0.0186656
-0.0206523
-0.0138195
-0.0168653
-0.00671104
-0.0160668
-0.0225934
-0.0125218
-0.00964314
-0.0166117
-0.0143723
-0.019078
-0.00791501
-0.01329
-0.0222602
-0.0159254
-0.0113017
-0.0144362
-0.0156257
-0.0186911
-0.016498
-0.0138044
-0.0144762
-0.0142809
-0.0152916
-0.0145258
-0.0148727
-0.0141646
-0.00892401
-0.00299138
-0.00582193
-0.00561033
-0.00654664
-0.0052774
-0.006405
-0.00518495
-0.01229
-0.00798821
-0.0101137
-0.0097762
-0.0105716
-0.00973701
-0.010374
-0.00946589
-0.0122627
-0.00786789
-0.00977473
-0.0100325
-0.0108544
-0.00952493
-0.0105824
-0.0092909
-0.0116834
-0.0129295
-0.0131392
-0.00890073
-0.0114323
-0.0126677
-0.0107381
-0.0120582
-0.0107618
-0.00755252
-0.00745917
-0.012148
-0.0104239
-0.00828524
-0.0109245
-0.00881022
-0.0126049
-0.0127576
-0.0086329
-0.0103517
-0.0120109
-0.0117386
-0.0106161
-0.0101612
-0.0119014
-0.00919388
-0.00721935
-0.00729333
-0.010072
-0.00942176
-0.00853942
-0.00777245
-0.00620019
-0.0140853
-0.0154927
-0.00972239
-0.0091135
-0.0132689
-0.0112748
-0.0128415
-0.0218237
-0.0266936
-0.0239648
-0.0179289
-0.022219
-0.0248522
-0.0205056
-0.0231567
-0.0195737
-0.0217259
-0.019991
-0.0170272
-0.0191805
-0.0208039
-0.0183175
-0.0194146
-0.0106094
-0.0130662
-0.0139816
-0.0110571
-0.011118
-0.0125645
-0.011721
-0.0126755
-0.0159377
-0.0166485
-0.0107042
-0.0148617
-0.0150889
-0.0144838
-0.0133864
-0.0127616
-0.0204939
-0.017011
-0.0224281
-0.0195826
-0.0190948
-0.0193077
-0.0209205
-0.0209467
-0.016973
-0.0117667
-0.0143091
-0.0153819
-0.0147185
-0.0128975
-0.0151266
-0.0139105
-0.0182897
-0.016145
-0.0163312
-0.0211154
-0.0183399
-0.0165381
-0.0190519
-0.0173818
-0.00194778
-0.00236287
-0.00825651
-0.0021751
-0.001913
-0.00352994
-0.00343946
-0.00489548
-0.00267534
-0.00262853
-0.0108226
-0.0027315
-0.00229646
-0.00432769
-0.004608
-0.00673564
-0.0136499
-0.0153407
-0.0171104
-0.0158627
-0.0143595
-0.0158966
-0.0158959
-0.0170966
-0.00264167
-0.00277348
-0.0107678
-0.00295062
-0.00238315
-0.00468922
-0.00452122
-0.00700194
-0.00218331
-0.00866298
-0.00223934
-0.00235967
-0.00394885
-0.00541314
-0.00253857
-0.00395787
-0.00387706
-0.00459713
-0.0117156
-0.0102295
-0.00571016
-0.00675097
-0.00920912
-0.00983619
-0.0102523
-0.0040161
-0.00463299
-0.0119965
-0.00960885
-0.00561394
-0.00987314
-0.00669004
-0.0115962
-0.0135878
-0.00706971
-0.0135997
-0.0127435
-0.0119168
-0.0117276
-0.0108262
-0.00844179
-0.0192969
-0.0197456
-0.0171597
-0.0126602
-0.018196
-0.0167829
-0.0195148
-0.0229544
-0.0230699
-0.0227135
-0.0242639
-0.022627
-0.0229369
-0.0232846
-0.023386
-0.0231786
-0.0226531
-0.0227839
-0.0247101
-0.0230678
-0.0228918
-0.0238397
-0.0232896
-0.0262825
-0.0268811
-0.027914
-0.0321215
-0.0253276
-0.0274866
-0.0303496
-0.0289444
-0.0204769
-0.0213196
-0.0194113
-0.0240009
-0.0231256
-0.0214355
-0.0248094
-0.0238764
-0.022619
-0.0243748
-0.0227234
-0.0230154
-0.0235037
-0.0232555
-0.0228962
-0.0229019
-0.0234671
-0.0245851
-0.0252672
-0.0262644
-0.0247043
-0.0254064
-0.0249117
-0.0254013
-0.0238907
-0.0259142
-0.0252237
-0.0231676
-0.0234882
-0.0249655
-0.0233794
-0.0242796
-0.0051826
-0.0169109
-0.0052471
-0.0145928
-0.0116028
-0.0124521
-0.0100806
-0.0112231
-0.0220044
-0.0234332
-0.0226321
-0.0249704
-0.0232837
-0.0231928
-0.0236329
-0.0232694
-0.00455322
-0.0176881
-0.00538732
-0.0129739
-0.0101968
-0.0112672
-0.00892584
-0.0102198
-0.0238568
-0.0275795
-0.0229425
-0.0317459
-0.0290965
-0.0277928
-0.0291605
-0.027935
-0.0205602
-0.0108538
-0.0206941
-0.0255262
-0.0202383
-0.0151351
-0.0232221
-0.0206523
-0.0206121
-0.0251279
-0.0208365
-0.0119267
-0.0203086
-0.0227044
-0.017153
-0.0203051
-0.00928034
-0.0196984
-0.0254879
-0.0187268
-0.0136059
-0.0200728
-0.0197388
-0.0229424
-0.0105676
-0.019212
-0.0254045
-0.0206545
-0.014615
-0.0199137
-0.0200936
-0.023117
-0.0033265
-0.0111271
-0.00321137
-0.0063094
-0.0062662
-0.00731115
-0.00487044
-0.00576146
-0.015509
-0.017051
-0.013603
-0.0146627
-0.0156343
-0.0158739
-0.014366
-0.0147392
-0.0027254
-0.00844822
-0.00253894
-0.00512442
-0.00480528
-0.00549679
-0.00393989
-0.00459081
-0.00836868
-0.0121662
-0.00758751
-0.00976996
-0.00981562
-0.0102841
-0.00880924
-0.00936764
-0.0129597
-0.00531735
-0.00856287
-0.0127038
-0.0112825
-0.00790723
-0.0119075
-0.00939051
-0.0134751
-0.013035
-0.0115525
-0.00616764
-0.0119695
-0.0128434
-0.0095766
-0.0110448
-0.00422811
-0.00713433
-0.011568
-0.00645061
-0.0057312
-0.00807261
-0.0074035
-0.00934251
-0.00506892
-0.00709879
-0.0120154
-0.0103446
-0.00701265
-0.0081471
-0.00968985
-0.010478
-0.00376698
-0.0068091
-0.00955978
-0.0066627
-0.00490562
-0.00674927
-0.0064888
-0.00785049
-0.00869942
-0.00969581
-0.0116343
-0.00961917
-0.00886004
-0.00981168
-0.00965715
-0.0106405
-0.0127661
-0.0130569
-0.0139606
-0.0130815
-0.0128875
-0.0133337
-0.0132809
-0.0136673
-0.00831536
-0.0096292
-0.0116267
-0.00977537
-0.00876826
-0.00971118
-0.00986811
-0.0106987
-0.00733397
-0.010148
-0.0072577
-0.00866235
-0.00857172
-0.00874207
-0.0084508
-0.00846844
-0.00867921
-0.00957279
-0.0118897
-0.0111083
-0.00966561
-0.00992911
-0.0108685
-0.0110834
-0.0109968
-0.0083711
-0.00963972
-0.0117074
-0.0109131
-0.00963183
-0.010989
-0.00989355
-0.011797
-0.0124204
-0.0105787
-0.0124148
-0.0119865
-0.0116567
-0.0116785
-0.0114997
-0.00759055
-0.0155719
-0.0186779
-0.0167885
-0.0123957
-0.0150421
-0.0157493
-0.0183727
-0.0236836
-0.0314101
-0.0254
-0.0314489
-0.0309787
-0.0291378
-0.0290518
-0.0283228
-0.0223722
-0.0236855
-0.0230794
-0.0251099
-0.0241959
-0.0236213
-0.024066
-0.0234229
-0.026294
-0.0332933
-0.02855
-0.0344633
-0.0323274
-0.0307506
-0.0315009
-0.0312596
-0.0212796
-0.0221015
-0.0223422
-0.0305836
-0.0226317
-0.0215302
-0.0246623
-0.0227832
-0.0220475
-0.0292177
-0.0253382
-0.0221104
-0.0240681
-0.0270841
-0.022689
-0.026258
-0.0227612
-0.0238445
-0.0300562
-0.0266815
-0.0247203
-0.025635
-0.0272994
-0.0285348
-0.0228855
-0.0258354
-0.0297458
-0.0249521
-0.0251061
-0.0263256
-0.0256307
-0.0271437
-0.00125945
-0.000859734
-0.00109655
-0.00427152
-0.00204043
-0.00148221
-0.00271639
-0.00232494
-0.00110498
-0.00130443
-0.00123371
-0.00520735
-0.00299207
-0.00235522
-0.00422135
-0.003343
-0.00114625
-0.0008852
-0.00114171
-0.00390487
-0.00180312
-0.00134457
-0.00294
-0.00246872
-0.00684197
-0.00737124
-0.00674273
-0.00869522
-0.00752403
-0.0068555
-0.00833421
-0.00790159
-0.00218431
-0.0017811
-0.00528724
-0.00627167
-0.00318773
-0.00260052
-0.00507281
-0.00493105
-0.00184784
-0.00521048
-0.00199325
-0.00155479
-0.00252449
-0.00276526
-0.00138055
-0.00178825
-0.00268262
-0.00565621
-0.00738007
-0.00640732
-0.00421563
-0.00500692
-0.00520965
-0.00573582
-0.00226941
-0.00579117
-0.0068384
-0.00270292
-0.00254893
-0.00458959
-0.00339102
-0.0049589
-0.00129456
-0.00132545
-0.000620832
-0.00805974
-0.00320979
-0.00166312
-0.0042796
-0.00266917
-0.00142569
-0.00147003
-0.00234873
-0.0082074
-0.00224852
-0.00109494
-0.00394931
-0.00226207
-0.000768243
-0.00226813
-0.00160334
-0.00558563
-0.00161519
-0.000912924
-0.00234232
-0.002056
-0.015236
-0.0173959
-0.0122899
-0.0222397
-0.0174697
-0.0155495
-0.0177667
-0.0167315
-0.00229322
-0.00238444
-0.00975595
-0.00942352
-0.00443788
-0.00414459
-0.00840406
-0.00805618
-0.00108131
-0.00684602
-0.000900896
-0.00120956
-0.00254386
-0.00395215
-0.00156615
-0.00134341
-0.00332848
-0.0114156
-0.0107176
-0.00865022
-0.00515089
-0.00942911
-0.00827578
-0.0108147
-0.00234867
-0.00780311
-0.00824831
-0.00204175
-0.00353444
-0.00628444
-0.0033002
-0.0082483
-0.00375377
-0.00310055
-0.0111154
-0.00660202
-0.00410635
-0.00497242
-0.00681228
-0.00791601
-0.00263145
-0.00221258
-0.00841027
-0.00517218
-0.00313053
-0.00388682
-0.00535436
-0.00611311
-0.0152929
-0.0135934
-0.0169074
-0.0145863
-0.0149101
-0.0151884
-0.0152842
-0.0154682
-0.00826236
-0.0075048
-0.0122367
-0.00971123
-0.00837151
-0.0087558
-0.009867
-0.0103458
-0.00363292
-0.0108851
-0.00670822
-0.00609339
-0.00594947
-0.00787302
-0.00573676
-0.00719177
-0.00433966
-0.00654691
-0.0101793
-0.0114872
-0.00690648
-0.00693519
-0.00936772
-0.00960259
-0.0122832
-0.00856836
-0.00780467
-0.0125549
-0.0116443
-0.00928843
-0.011482
-0.00924406
-0.0129327
-0.0129049
-0.00837042
-0.0115409
-0.0125203
-0.0118451
-0.0109412
-0.0104534
-0.00197509
-0.00847652
-0.00251201
-0.00532809
-0.00448241
-0.00478332
-0.00457043
-0.00472127
-0.0163117
-0.0252889
-0.0196174
-0.0165863
-0.0191802
-0.0221575
-0.0177797
-0.0206123
-0.00295448
-0.0106687
-0.00298347
-0.00751914
-0.00581789
-0.00685331
-0.0052134
-0.00573403
-0.00747869
-0.0117192
-0.00920254
-0.00978704
-0.00919566
-0.010504
-0.00871966
-0.0100218
-0.0107556
-0.00541025
-0.00724449
-0.0120521
-0.0103816
-0.00657635
-0.0103248
-0.00797703
-0.0114414
-0.0139091
-0.0138406
-0.00549171
-0.0110587
-0.0136845
-0.00890348
-0.0120363
-0.00491669
-0.00701344
-0.0113948
-0.00757623
-0.00631416
-0.00771091
-0.00806269
-0.00914801
-0.00527787
-0.00896327
-0.0128533
-0.0124323
-0.00732159
-0.00951664
-0.0115774
-0.0114517
-0.00662953
-0.019221
-0.0142393
-0.0151461
-0.0117009
-0.0147313
-0.0127966
-0.0157248
-0.0238429
-0.0231247
-0.0247435
-0.0252179
-0.0233955
-0.023336
-0.0244428
-0.0239946
-0.0232551
-0.0277302
-0.0328239
-0.031196
-0.0279514
-0.0296344
-0.0298926
-0.0317271
-0.0256946
-0.0289731
-0.0311488
-0.0335991
-0.0287467
-0.0302606
-0.0315759
-0.0323156
-0.0211769
-0.0203714
-0.0201068
-0.0261338
-0.0226121
-0.0210405
-0.0243409
-0.0231831
-0.0227764
-0.0263845
-0.0258903
-0.0219648
-0.0237293
-0.0248728
-0.0242068
-0.0250372
-0.0212366
-0.0216661
-0.0273844
-0.0303426
-0.0242608
-0.0252432
-0.0284858
-0.0284776
-0.0235025
-0.0313625
-0.0274944
-0.0267793
-0.0277354
-0.0295422