/*--------------------------------*- C++ -*----------------------------------*\
| =========                 |                                                 |
| \\      /  F ield         | OpenFOAM: The Open Source CFD Toolbox           |
|  \\    /   O peration     | Version:  2506                                  |
|   \\  /    A nd           | Website:  www.openfoam.com                      |
|    \\/     M anipulation  |                                                 |
\*---------------------------------------------------------------------------*/
FoamFile
{
    version     2.0;
    format      ascii;
    arch        "LSB;label=32;scalar=64";
    class       surfaceScalarField;
    location    "2000";
    object      phi;
}
// * * * * * * * * * * * * * * * * * * * * * * * * * * * * * * * * * * * * * //

dimensions      [0 3 -1 0 0 0 0];

oriented        oriented;

internalField   nonuniform List<scalar> 
110816
(
6.59786e-07
-1.91262e-06
1.20887e-06
4.39648e-08
4.30796e-08
6.58923e-07
-1.91525e-06
1.21325e-06
-1.91351e-06
6.54979e-07
1.2147e-06
4.38344e-08
1.21073e-06
6.57787e-07
-1.913e-06
4.44832e-08
1.86968e-06
7.02944e-07
-1.91284e-06
7.01807e-07
1.21096e-06
1.86878e-06
4.49013e-08
6.57071e-07
6.59027e-07
4.0943e-08
-1.91895e-06
1.21898e-06
3.65113e-08
-1.91954e-06
1.22137e-06
6.61662e-07
-1.91046e-06
3.53291e-08
1.21842e-06
6.5671e-07
1.21487e-06
3.76662e-08
-1.91053e-06
6.57993e-07
1.87655e-06
6.97205e-07
-1.91473e-06
6.9205e-07
1.22101e-06
1.87586e-06
3.62186e-08
6.5745e-07
6.48997e-07
-1.90967e-06
1.21754e-06
4.31406e-08
3.84283e-08
-1.90138e-06
1.21106e-06
6.51886e-07
-1.89583e-06
1.20564e-06
6.47282e-07
4.29117e-08
1.20835e-06
-1.90229e-06
6.50224e-07
4.37173e-08
1.8587e-06
6.89735e-07
-1.89944e-06
6.89455e-07
1.20767e-06
1.85535e-06
4.27337e-08
6.48977e-07
6.56599e-07
1.21027e-06
-1.91142e-06
4.45477e-08
4.16338e-08
1.20949e-06
-1.90768e-06
6.56561e-07
-1.90606e-06
1.20801e-06
6.53819e-07
4.42264e-08
1.20838e-06
-1.90937e-06
6.56157e-07
4.48315e-08
1.8668e-06
6.99245e-07
-1.90945e-06
6.98275e-07
1.21016e-06
1.86228e-06
4.53496e-08
6.54496e-07
7.00561e-07
1.87202e-06
-1.91366e-06
-1.91014e-06
1.86895e-06
6.9617e-07
1.86877e-06
7.00647e-07
-1.91163e-06
-6.57313e-07
1.86949e-06
6.97216e-07
-1.9094e-06
4.17204e-08
-1.21326e-06
1.8721e-06
-1.21135e-06
4.16786e-08
-1.91225e-06
6.99103e-07
6.97422e-07
1.21554e-06
1.21199e-06
6.95175e-07
-1.86804e-06
6.90326e-07
1.21304e-06
-4.04829e-08
6.95611e-07
1.21382e-06
6.56651e-07
1.91287e-06
1.90486e-06
6.54575e-07
1.21781e-06
6.91392e-07
-1.21307e-06
1.86592e-06
4.33242e-08
1.86626e-06
4.46594e-08
4.06544e-08
1.86605e-06
-6.96645e-07
1.85974e-06
4.49148e-08
-1.91021e-06
6.53451e-07
4.36821e-08
6.55152e-07
-1.90597e-06
1.86277e-06
6.51858e-07
-6.94003e-07
6.51453e-07
1.90537e-06
6.55853e-07
-1.86383e-06
6.52777e-07
-1.20918e-06
-3.83976e-08
-4.04138e-08
-1.21083e-06
6.54124e-07
1.69868e-07
-1.28337e-06
-7.99113e-07
1.91239e-06
1.69867e-07
-1.28348e-06
-7.98775e-07
-1.28514e-06
1.68423e-07
-7.98534e-07
-7.97331e-07
1.68045e-07
-1.28372e-06
-6.28687e-07
2.08218e-06
-1.28362e-06
2.08209e-06
-7.98394e-07
-6.27994e-07
1.68957e-07
1.70267e-07
1.91199e-06
-1.28347e-06
-7.98788e-07
1.91186e-06
-1.28325e-06
1.70173e-07
-7.98786e-07
-1.28506e-06
1.91303e-06
1.69414e-07
-7.97386e-07
-7.9692e-07
1.91136e-06
-1.28408e-06
1.69634e-07
-6.27922e-07
2.08191e-06
-1.28372e-06
2.08227e-06
-7.98331e-07
-6.2751e-07
1.9125e-06
1.69702e-07
1.68261e-07
-1.28826e-06
-7.98954e-07
1.91495e-06
-1.28756e-06
1.69069e-07
-7.96466e-07
-1.29406e-06
1.7132e-07
-7.96803e-07
-7.91823e-07
-1.2873e-06
1.68596e-07
-6.26229e-07
2.08159e-06
-1.2871e-06
2.08685e-06
-7.98125e-07
-6.24961e-07
1.67833e-07
1.67296e-07
-7.95345e-07
-1.28337e-06
1.91049e-06
-7.9559e-07
-1.28374e-06
1.68835e-07
-1.2837e-06
-7.92133e-07
1.68156e-07
-7.94234e-07
-1.28222e-06
1.67089e-07
-6.27194e-07
2.07763e-06
-1.28314e-06
2.07788e-06
-7.9458e-07
-6.26053e-07
1.68123e-07
2.08176e-06
-6.28136e-07
-1.28376e-06
-1.28503e-06
-6.28604e-07
2.08205e-06
-6.28258e-07
2.07994e-06
-1.28364e-06
-1.68882e-07
-6.27164e-07
2.08001e-06
-1.28396e-06
1.91239e-06
7.97039e-07
-6.2767e-07
7.96323e-07
1.91243e-06
-1.28428e-06
2.0805e-06
2.08207e-06
-7.98217e-07
-7.96751e-07
2.08095e-06
6.27339e-07
2.08325e-06
-7.97554e-07
-1.91321e-06
2.08304e-06
-7.98428e-07
1.69698e-07
1.2847e-06
1.28544e-06
1.68677e-07
-7.97186e-07
2.08146e-06
7.94876e-07
-6.26479e-07
-6.27036e-07
1.91088e-06
-6.26465e-07
-2.07804e-06
-6.23488e-07
-1.28538e-06
1.68008e-07
1.68081e-07
-1.28438e-06
-6.25655e-07
1.68295e-07
-2.07926e-06
1.6847e-07
1.28511e-06
1.69378e-07
6.26224e-07
1.69467e-07
7.93731e-07
-1.91253e-06
-1.91118e-06
7.95148e-07
1.6907e-07
-5.66483e-07
1.79521e-06
-1.152e-06
-7.67199e-08
-8.42821e-08
-5.63858e-07
1.81785e-06
-1.16971e-06
1.82227e-06
-5.66838e-07
-1.17759e-06
-7.7843e-08
-1.17162e-06
-5.65638e-07
1.81213e-06
-7.48656e-08
-1.73561e-06
-6.46408e-07
1.81554e-06
-6.47917e-07
-1.17198e-06
-1.74081e-06
-7.72197e-08
-5.66458e-07
-5.62962e-07
-8.95967e-08
1.83342e-06
-1.18086e-06
-9.01249e-08
1.84946e-06
-1.19386e-06
-5.6547e-07
1.84225e-06
-8.20428e-08
-1.19786e-06
-5.62344e-07
-1.19095e-06
-8.33711e-08
1.8369e-06
-5.62572e-07
-1.75479e-06
-6.49168e-07
1.84099e-06
-6.49028e-07
-1.19588e-06
-1.75615e-06
-8.3967e-08
-5.62932e-07
-5.64801e-07
1.836e-06
-1.19364e-06
-7.75625e-08
-7.85296e-08
1.84171e-06
-1.20064e-06
-5.62549e-07
1.84404e-06
-1.20481e-06
-5.61755e-07
-7.74735e-08
-1.20062e-06
1.84047e-06
-5.62555e-07
-7.72891e-08
-1.76321e-06
-6.41339e-07
1.83975e-06
-6.41184e-07
-1.20056e-06
-1.76489e-06
-7.70687e-08
-5.62038e-07
-5.64087e-07
-1.18289e-06
1.82239e-06
-7.54197e-08
-7.91648e-08
-1.19167e-06
1.833e-06
-5.62166e-07
1.83666e-06
-1.19656e-06
-5.62935e-07
-7.71703e-08
-1.19323e-06
1.83215e-06
-5.629e-07
-7.602e-08
-1.7538e-06
-6.41085e-07
1.8308e-06
-6.41166e-07
-1.1918e-06
-1.75797e-06
-7.63405e-08
-5.62475e-07
-6.48804e-07
-1.74401e-06
1.82896e-06
1.83074e-06
-1.75352e-06
-6.44057e-07
-1.74623e-06
-6.42278e-07
1.82287e-06
5.63195e-07
-1.75102e-06
-6.44197e-07
1.83202e-06
-8.12148e-08
1.18193e-06
-1.74952e-06
1.18307e-06
-7.97342e-08
1.82486e-06
-6.429e-07
-6.49097e-07
-1.18451e-06
-1.19036e-06
-6.44027e-07
1.75849e-06
-6.43542e-07
-1.197e-06
8.14508e-08
-6.44574e-07
-1.1904e-06
-5.63852e-07
-1.83477e-06
-1.83818e-06
-5.64226e-07
-1.18909e-06
-6.43915e-07
1.18713e-06
-1.75605e-06
-7.51393e-08
-1.7498e-06
-7.53627e-08
-7.95735e-08
-1.75629e-06
6.41505e-07
-1.76155e-06
-7.65099e-08
1.82846e-06
-5.64579e-07
-7.67566e-08
-5.64238e-07
1.83561e-06
-1.75869e-06
-5.64619e-07
6.41537e-07
-5.62624e-07
-1.83769e-06
-5.62631e-07
1.76099e-06
-5.6282e-07
1.19607e-06
7.90596e-08
7.8924e-08
1.19614e-06
-5.62627e-07
-1.80978e-06
1.27211e-06
-2.10813e-07
7.4849e-07
1.27678e-06
-1.82167e-06
-2.11339e-07
7.56228e-07
-2.11356e-07
-1.80857e-06
1.27231e-06
7.47615e-07
7.46201e-07
-1.81966e-06
1.2849e-06
-2.11442e-07
-1.06278e-06
-5.3615e-07
-2.10856e-07
-5.39094e-07
7.53097e-07
-1.06896e-06
1.27901e-06
-1.81941e-06
-1.83575e-06
1.28591e-06
-2.1303e-07
7.62873e-07
1.29626e-06
-2.15715e-07
7.68914e-07
-2.12334e-07
1.28413e-06
7.61624e-07
7.54379e-07
1.29455e-06
-2.12033e-07
-1.07812e-06
-5.45477e-07
-2.1216e-07
-5.48182e-07
7.66324e-07
-1.08048e-06
1.28938e-06
-1.80465e-06
-2.15751e-07
1.27297e-06
7.47429e-07
1.27703e-06
-2.14777e-07
7.55601e-07
-2.20658e-07
1.26843e-06
7.47433e-07
7.46791e-07
-2.18195e-07
1.28353e-06
-1.0588e-06
-5.29655e-07
-2.16196e-07
-5.33001e-07
7.51233e-07
-1.06188e-06
1.27902e-06
-1.82669e-06
7.45891e-07
1.29332e-06
-2.12517e-07
1.29625e-06
7.48979e-07
-2.12231e-07
-2.15963e-07
7.46296e-07
1.29206e-06
7.46412e-07
1.29906e-06
-2.13328e-07
-1.08127e-06
-5.32529e-07
-2.12892e-07
-5.33326e-07
7.48309e-07
-1.08151e-06
1.29539e-06
-5.40516e-07
-1.06993e-06
-2.11228e-07
-2.13102e-07
-1.06177e-06
-5.33703e-07
-1.07457e-06
-5.33107e-07
-2.11981e-07
1.82769e-06
-1.07907e-06
-5.36342e-07
-2.12275e-07
1.2826e-06
-7.50688e-07
-1.07242e-06
-7.49915e-07
1.28881e-06
-2.11805e-07
-5.35682e-07
-5.45229e-07
7.61212e-07
7.54018e-07
-5.3854e-07
1.0674e-06
-5.41977e-07
7.58701e-07
-1.27745e-06
-5.36024e-07
7.51709e-07
-1.82997e-06
2.12317e-07
2.13427e-07
-1.82044e-06
7.55303e-07
-5.39608e-07
-7.46563e-07
-1.06514e-06
1.278e-06
-1.07559e-06
1.28838e-06
1.29197e-06
-1.07933e-06
5.31338e-07
-1.07341e-06
1.28837e-06
-2.14174e-07
-1.81593e-06
1.28354e-06
-1.82545e-06
-2.14827e-07
-1.06977e-06
-1.81691e-06
5.31268e-07
2.14152e-07
1.0722e-06
-7.49127e-07
-1.28398e-06
-1.28763e-06
-7.51389e-07
1.05896e-06
-1.27054e-06
-7.93981e-07
1.00556e-06
1.00529e-06
1.05927e-06
-1.27055e-06
-7.94014e-07
-1.2718e-06
1.05896e-06
-7.92623e-07
1.00546e-06
-7.92661e-07
1.05865e-06
-1.27112e-06
1.00512e-06
2.65645e-07
2.0642e-06
-1.27089e-06
2.06439e-06
-7.93458e-07
2.66129e-07
1.00541e-06
1.05872e-06
1.05935e-06
1.00518e-06
-1.27054e-06
-7.93985e-07
1.00521e-06
1.0597e-06
-1.27063e-06
-7.94282e-07
-1.27251e-06
1.00498e-06
1.06077e-06
-7.9325e-07
-7.92336e-07
1.00383e-06
1.05971e-06
-1.2712e-06
2.66101e-07
2.06402e-06
-1.27078e-06
2.06512e-06
-7.93809e-07
2.67282e-07
1.0044e-06
1.05989e-06
1.05928e-06
-1.27458e-06
-7.92325e-07
1.00762e-06
1.00553e-06
-1.27511e-06
1.06193e-06
-7.92354e-07
-1.27892e-06
1.0642e-06
-7.95003e-07
1.00972e-06
-7.87692e-07
-1.27409e-06
1.05737e-06
1.00441e-06
2.70488e-07
2.06448e-06
-1.27569e-06
2.06862e-06
-7.92595e-07
2.71589e-07
1.0052e-06
1.06129e-06
1.0579e-06
-7.91293e-07
-1.27041e-06
1.0038e-06
1.00201e-06
-7.90601e-07
1.05909e-06
-1.2705e-06
-1.27058e-06
-7.88721e-07
1.05792e-06
1.00138e-06
-7.90157e-07
1.05748e-06
-1.26881e-06
1.00149e-06
2.68265e-07
2.05978e-06
-1.27014e-06
2.05944e-06
-7.89172e-07
2.68663e-07
1.00096e-06
1.05753e-06
2.06396e-06
2.66182e-07
-1.27087e-06
-1.2732e-06
2.67698e-07
2.06447e-06
2.6721e-07
2.06265e-06
-1.27121e-06
-1.05881e-06
2.67845e-07
2.06203e-06
-1.27107e-06
1.00542e-06
7.91895e-07
2.66653e-07
7.90936e-07
1.00437e-06
-1.27128e-06
2.06252e-06
2.065e-06
-7.93639e-07
-7.90991e-07
2.06267e-06
-2.68839e-07
2.06673e-06
-7.92912e-07
-1.0055e-06
2.06563e-06
-7.92438e-07
1.05909e-06
1.27256e-06
1.2725e-06
1.05981e-06
-7.92743e-07
2.06347e-06
7.90554e-07
2.68383e-07
1.00553e-06
2.67743e-07
1.00361e-06
1.00335e-06
2.68079e-07
-2.06049e-06
2.69992e-07
1.00178e-06
-1.27243e-06
1.05856e-06
1.00443e-06
1.05783e-06
-1.27201e-06
2.70082e-07
1.05943e-06
-2.0618e-06
1.05771e-06
1.27244e-06
1.0583e-06
-2.69435e-07
1.06106e-06
7.88199e-07
-1.00445e-06
-1.00352e-06
7.89584e-07
1.0585e-06
-2.58754e-07
6.05114e-07
6.03747e-07
-2.57839e-07
-1.27739e-06
-2.56616e-07
6.06329e-07
9.31102e-07
-2.57902e-07
6.117e-07
6.68917e-07
3.51338e-07
3.4796e-07
6.72662e-07
6.09778e-07
-2.56769e-07
-2.55624e-07
6.01983e-07
5.97785e-07
-2.52763e-07
-1.27421e-06
6.01587e-07
-2.52448e-07
9.2935e-07
6.07652e-07
-2.5347e-07
6.73001e-07
3.50391e-07
3.46887e-07
6.74363e-07
6.05378e-07
-2.52962e-07
-2.5453e-07
-1.28081e-06
6.06549e-07
6.04122e-07
-1.27878e-06
-2.51978e-07
-1.28342e-06
6.06786e-07
-2.52615e-07
9.3239e-07
-1.28871e-06
6.10893e-07
-2.54574e-07
6.74484e-07
3.54739e-07
-1.28375e-06
3.53123e-07
6.77361e-07
6.09768e-07
-2.52936e-07
-2.57612e-07
9.35337e-07
6.15592e-07
6.13172e-07
9.3354e-07
-2.54651e-07
-1.2941e-06
9.35521e-07
6.14531e-07
-2.55955e-07
9.37904e-07
6.18356e-07
-2.57197e-07
6.79214e-07
3.58568e-07
3.57574e-07
9.34812e-07
6.7999e-07
6.16482e-07
-2.56534e-07
3.49945e-07
6.70214e-07
-1.28156e-06
6.71628e-07
3.53313e-07
6.74966e-07
3.55511e-07
2.56315e-07
6.77219e-07
3.54836e-07
6.07836e-07
-9.30522e-07
6.72631e-07
-9.3049e-07
6.09335e-07
3.53811e-07
3.4737e-07
9.30735e-07
3.54137e-07
-6.73728e-07
3.50601e-07
-6.03561e-07
3.50398e-07
-2.54688e-07
1.27469e-06
1.28142e-06
-2.54806e-07
3.52891e-07
-9.32353e-07
6.75671e-07
6.09994e-07
6.77503e-07
6.13345e-07
6.10958e-07
6.77418e-07
-3.56478e-07
6.78811e-07
6.13189e-07
-1.28774e-06
-2.55823e-07
6.11207e-07
-2.56424e-07
-1.28935e-06
6.77046e-07
-2.54738e-07
-3.55224e-07
-2.54674e-07
1.28582e-06
-2.54261e-07
-6.75568e-07
-2.52607e-07
-9.30454e-07
-6.08036e-07
-6.08633e-07
-9.30713e-07
-2.53531e-07
-3.22006e-07
-2.84822e-07
-3.12483e-07
-2.90309e-07
-3.18325e-07
-3.12404e-07
-3.14802e-07
-3.19843e-07
-2.85688e-07
9.29218e-07
-3.19816e-07
-2.95719e-07
-3.13683e-07
6.03353e-07
-6.13084e-07
-3.12275e-07
-6.10885e-07
6.05414e-07
-2.8928e-07
-3.20274e-07
-3.15024e-07
-2.96197e-07
-3.11251e-07
-3.0131e-07
-3.12325e-07
-3.10095e-07
-3.1299e-07
-2.96663e-07
-3.13004e-07
9.30545e-07
-3.03413e-07
-3.14467e-07
-3.12665e-07
6.12798e-07
-6.16678e-07
-3.11144e-07
-6.14504e-07
6.14677e-07
-3.0081e-07
-3.12817e-07
-3.17945e-07
-3.1717e-07
-2.85909e-07
-2.9158e-07
-3.16562e-07
-3.13252e-07
-3.189e-07
-3.15076e-07
-2.8572e-07
9.29432e-07
-3.17483e-07
-3.15268e-07
-2.96682e-07
6.09562e-07
-6.10003e-07
-3.17504e-07
-6.0635e-07
6.11257e-07
-2.91827e-07
-3.13993e-07
-3.16244e-07
9.35275e-07
-3.0749e-07
-3.11541e-07
-3.08949e-07
9.35123e-07
-3.1433e-07
-3.11844e-07
-3.13716e-07
9.35396e-07
-3.14233e-07
-3.07448e-07
9.38664e-07
-3.1295e-07
-3.16173e-07
-3.09541e-07
6.21773e-07
-6.26926e-07
-3.11091e-07
-6.23625e-07
9.36449e-07
6.23932e-07
-3.12193e-07
-3.13409e-07
-6.14514e-07
6.09159e-07
-3.1297e-07
-3.14782e-07
6.06206e-07
-6.11267e-07
6.13466e-07
-6.21669e-07
-3.11612e-07
3.15953e-07
6.16658e-07
-6.20474e-07
-3.12137e-07
-2.9595e-07
-9.29811e-07
6.11247e-07
-9.31005e-07
-3.00301e-07
-3.13557e-07
-6.17841e-07
-6.12174e-07
9.31099e-07
-6.17853e-07
-6.11532e-07
-6.10312e-07
2.90934e-07
-6.08834e-07
-3.15449e-07
3.14522e-07
3.1484e-07
-3.15672e-07
-6.12364e-07
-9.29154e-07
6.08359e-07
-2.90472e-07
6.15998e-07
-3.02392e-07
-3.04898e-07
6.19547e-07
6.18829e-07
6.18981e-07
-3.02414e-07
-3.14818e-07
-3.17719e-07
-2.96617e-07
-3.16661e-07
-3.1489e-07
6.16e-07
-3.17645e-07
6.154e-07
-3.13901e-07
3.15301e-07
-3.13607e-07
-6.13757e-07
-3.13117e-07
-9.31377e-07
2.96229e-07
3.00023e-07
-9.29892e-07
-3.14569e-07
-1.05158e-06
6.54616e-07
3.6504e-07
3.19292e-08
2.88894e-08
-1.05375e-06
6.56398e-07
3.6846e-07
3.67764e-07
-1.0561e-06
6.56873e-07
3.14578e-08
6.53339e-07
-1.05315e-06
3.66497e-07
3.33121e-08
-3.96351e-07
-1.02008e-06
3.64846e-07
-1.02291e-06
6.55446e-07
-3.97928e-07
3.11875e-08
-1.05307e-06
-1.05735e-06
2.66661e-08
6.57975e-07
3.7271e-07
2.81808e-08
6.61659e-07
3.74356e-07
3.74059e-07
2.80539e-08
6.59818e-07
6.55874e-07
2.79362e-08
3.73562e-07
-3.99883e-07
-1.03053e-06
3.7306e-07
-1.03345e-06
6.61752e-07
-4.01894e-07
2.72401e-08
-1.05989e-06
3.71533e-07
6.56922e-07
3.14387e-08
3.14467e-08
3.72339e-07
6.56988e-07
3.73201e-07
6.5425e-07
3.22545e-08
6.55408e-07
3.72748e-07
3.15535e-08
-4.03798e-07
-1.02838e-06
3.72287e-07
-1.02886e-06
6.56512e-07
-4.04228e-07
3.12525e-08
-1.05567e-06
6.54224e-07
3.68942e-07
3.24996e-08
3.0968e-08
6.54834e-07
3.72114e-07
3.71153e-07
6.55822e-07
3.21183e-08
6.54093e-07
3.71667e-07
3.17228e-08
-4.01865e-07
-1.02469e-06
3.70893e-07
-1.026e-06
6.55104e-07
-4.02679e-07
3.20794e-08
-1.02525e-06
-3.97079e-07
3.6858e-07
3.69483e-07
-3.99626e-07
-1.02595e-06
-3.9941e-07
-1.02323e-06
3.69496e-07
1.05633e-06
-4.00145e-07
-1.0272e-06
3.7102e-07
2.83972e-08
-6.54559e-07
-3.99086e-07
-6.55192e-07
2.95873e-08
3.72181e-07
-1.02502e-06
-1.02831e-06
6.57898e-07
6.56571e-07
-1.02878e-06
4.0205e-07
-1.03078e-06
6.56784e-07
-2.89956e-08
-1.0283e-06
6.57672e-07
-1.05612e-06
-3.71274e-07
-3.72312e-07
-1.05908e-06
6.58815e-07
-1.02935e-06
-6.5644e-07
-4.00454e-07
3.09421e-08
-4.00296e-07
3.12856e-08
2.90752e-08
-4.01443e-07
1.02679e-06
-4.03043e-07
3.20751e-08
3.7007e-07
-1.05806e-06
3.15518e-08
-1.05524e-06
3.71061e-07
-4.02334e-07
-1.05722e-06
1.02801e-06
-3.72513e-07
4.02617e-07
-6.55323e-07
-2.96122e-08
-2.96475e-08
-6.56341e-07
-6.18063e-07
-3.13426e-07
6.19163e-07
-3.15702e-07
-6.15398e-07
6.18097e-07
6.22305e-07
-6.2188e-07
-3.14893e-07
3.11239e-07
-6.18708e-07
-3.14004e-07
6.21473e-07
-3.05378e-07
-9.31984e-07
6.19299e-07
-9.33897e-07
-3.06195e-07
-3.1455e-07
-6.17787e-07
-6.11287e-07
-3.18759e-07
6.16793e-07
-3.21793e-07
-6.07762e-07
6.14479e-07
6.21393e-07
-3.19708e-07
-6.16953e-07
3.11473e-07
-3.18959e-07
-6.12449e-07
6.19935e-07
-2.97569e-07
-9.30632e-07
6.16913e-07
-9.33354e-07
-2.99743e-07
-3.19416e-07
-6.11704e-07
-6.25679e-07
6.25636e-07
-3.14287e-07
-3.16301e-07
6.25966e-07
-6.23898e-07
6.28753e-07
-3.13099e-07
-6.28604e-07
3.1333e-07
6.27331e-07
-3.13959e-07
-6.26703e-07
-3.11502e-07
-9.40711e-07
6.26534e-07
-9.41211e-07
-3.13585e-07
-3.13796e-07
-6.26043e-07
-6.20015e-07
3.10669e-07
-3.14598e-07
6.23945e-07
-3.16649e-07
3.10424e-07
-6.17956e-07
6.24181e-07
6.26701e-07
3.1251e-07
-3.14518e-07
-6.24694e-07
3.09583e-07
-3.14818e-07
-6.21076e-07
6.26311e-07
-3.09893e-07
-9.35057e-07
6.24934e-07
-9.37206e-07
3.10664e-07
-3.10836e-07
-3.14638e-07
-6.2134e-07
-9.31672e-07
-3.02143e-07
6.18417e-07
6.22984e-07
-3.07872e-07
-9.36992e-07
-3.07475e-07
-9.33653e-07
6.2242e-07
6.16232e-07
-3.04787e-07
-9.3336e-07
6.21915e-07
-3.16921e-07
-3.11436e-07
-3.03315e-07
-3.11724e-07
-3.16508e-07
6.21303e-07
-9.35707e-07
-9.34019e-07
3.11641e-07
-9.35387e-07
3.05176e-07
-9.38786e-07
3.1736e-07
-9.38838e-07
-6.1527e-07
-6.22065e-07
-6.23044e-07
-6.19274e-07
-9.37142e-07
-3.13317e-07
-3.08908e-07
-3.14767e-07
-3.08551e-07
-3.14433e-07
-3.16741e-07
-3.06195e-07
9.38563e-07
-3.11698e-07
-3.14354e-07
6.24489e-07
-6.23061e-07
-3.14745e-07
-6.19768e-07
6.25845e-07
-3.10344e-07
-6.2211e-07
9.39707e-07
-6.24074e-07
-6.24722e-07
-6.1686e-07
3.07221e-07
-6.2004e-07
-3.127e-07
3.17125e-07
3.16663e-07
-3.12797e-07
-6.20856e-07
-3.23923e-07
-6.28736e-07
-1.99345e-07
1.18139e-06
-3.23292e-07
-6.46868e-07
-2.11232e-07
-2.13154e-07
-3.2361e-07
-6.40827e-07
-6.42013e-07
-3.21759e-07
-2.05941e-07
-9.64274e-07
8.47342e-07
-2.06991e-07
8.57931e-07
-6.40813e-07
-9.66649e-07
-3.21872e-07
-3.22381e-07
1.1969e-06
-6.52589e-07
-2.21929e-07
1.20545e-06
-6.5496e-07
-2.29999e-07
-3.20491e-07
-2.29742e-07
1.20506e-06
-6.54838e-07
-3.20478e-07
-6.53043e-07
1.20236e-06
-2.28063e-07
-3.21257e-07
-9.75165e-07
8.79893e-07
-2.2711e-07
8.84477e-07
-6.54191e-07
-9.75368e-07
1.20222e-06
-3.20633e-07
-3.22366e-07
-2.22321e-07
-6.4895e-07
1.20497e-06
-2.29721e-07
-6.54724e-07
-3.20525e-07
-2.29926e-07
-6.54257e-07
-3.20627e-07
-6.52652e-07
-2.26847e-07
-3.21137e-07
-9.74492e-07
8.78155e-07
-2.26029e-07
8.84412e-07
-6.53934e-07
-9.75055e-07
-3.20569e-07
-3.21708e-07
-6.50274e-07
-2.08877e-07
1.19995e-06
-6.52914e-07
-2.25025e-07
-3.22011e-07
-2.23681e-07
-6.52751e-07
-3.21431e-07
-6.54922e-07
-2.15002e-07
-3.23938e-07
-9.77229e-07
8.74517e-07
-2.18997e-07
8.77881e-07
-6.5516e-07
-9.76289e-07
-3.22089e-07
8.68362e-07
-9.73129e-07
-2.18526e-07
-2.18992e-07
-9.72046e-07
8.67428e-07
-9.71511e-07
8.6225e-07
-2.12498e-07
3.22737e-07
-9.755e-07
8.77594e-07
-2.24831e-07
1.19219e-06
6.49944e-07
-9.73768e-07
6.51321e-07
1.19043e-06
-2.17751e-07
8.70242e-07
8.74172e-07
-6.50402e-07
-6.5402e-07
8.80883e-07
9.74448e-07
8.84186e-07
-6.53576e-07
-1.1951e-06
8.71626e-07
-6.48575e-07
-3.21656e-07
2.2206e-07
2.26542e-07
-3.22129e-07
-6.50909e-07
8.78861e-07
6.48302e-07
-9.71273e-07
-9.72533e-07
1.20002e-06
-9.75339e-07
-8.75704e-07
-9.74042e-07
-2.18815e-07
-3.21974e-07
-3.21106e-07
-2.23753e-07
-9.73926e-07
-3.21968e-07
-8.79743e-07
-3.21146e-07
2.2664e-07
-3.21097e-07
9.75105e-07
-3.20641e-07
6.52748e-07
-1.20074e-06
-1.20092e-06
6.53222e-07
-3.21059e-07
2.9132e-07
6.81446e-07
2.361e-07
-1.21592e-06
2.88981e-07
6.8411e-07
2.42827e-07
2.42381e-07
2.87578e-07
6.8474e-07
6.82917e-07
2.90575e-07
2.3976e-07
9.73055e-07
-9.2079e-07
2.39055e-07
-9.27119e-07
6.84255e-07
9.73084e-07
2.88347e-07
2.86231e-07
-1.22122e-06
6.83621e-07
2.5137e-07
-1.21293e-06
6.72602e-07
2.55229e-07
2.85101e-07
2.5044e-07
-1.20895e-06
6.74994e-07
2.83518e-07
6.76461e-07
-1.22117e-06
2.57201e-07
2.87504e-07
9.63273e-07
-9.32991e-07
2.55949e-07
-9.24868e-07
6.75209e-07
9.59621e-07
-1.21615e-06
2.85193e-07
2.83817e-07
2.47296e-07
6.86423e-07
-1.20677e-06
2.47231e-07
6.76131e-07
2.83412e-07
2.44565e-07
6.77416e-07
2.83655e-07
6.77384e-07
2.49418e-07
2.8426e-07
9.61464e-07
-9.23016e-07
2.45369e-07
-9.22796e-07
6.77486e-07
9.6204e-07
2.8381e-07
2.9131e-07
6.84272e-07
2.43402e-07
-1.22711e-06
6.80491e-07
2.55993e-07
2.90622e-07
2.52116e-07
6.79257e-07
2.87046e-07
6.81426e-07
2.47307e-07
2.92633e-07
9.73535e-07
-9.31906e-07
2.49682e-07
-9.33207e-07
6.79636e-07
9.70529e-07
2.89437e-07
-9.29406e-07
9.71189e-07
2.47199e-07
2.44394e-07
9.70684e-07
-9.27501e-07
9.74238e-07
-9.26884e-07
2.43222e-07
-2.88948e-07
9.67371e-07
-9.30926e-07
2.52503e-07
-1.21714e-06
-6.83672e-07
9.7141e-07
-6.84403e-07
-1.22125e-06
2.48628e-07
-9.31414e-07
-9.3371e-07
6.83676e-07
6.79958e-07
-9.33753e-07
-9.61904e-07
-9.23453e-07
6.76405e-07
1.21724e-06
-9.31714e-07
6.85158e-07
2.85938e-07
-2.48238e-07
-2.50255e-07
2.85586e-07
6.83417e-07
-9.26574e-07
-6.83998e-07
9.70318e-07
9.72928e-07
-1.21631e-06
9.65873e-07
9.26996e-07
9.65302e-07
2.4697e-07
2.86841e-07
2.88484e-07
2.48187e-07
9.6565e-07
2.859e-07
9.29257e-07
2.85463e-07
-2.55067e-07
2.87187e-07
-9.59928e-07
2.83707e-07
-6.7699e-07
1.20826e-06
1.21792e-06
-6.78244e-07
2.84607e-07
4.77874e-07
-9.6139e-07
4.83515e-07
-1.64087e-08
4.57987e-07
-9.61149e-07
5.19571e-07
-9.81229e-07
4.89658e-07
4.91571e-07
5.3185e-07
5.18341e-07
-1.05019e-06
1.00316e-06
4.75228e-07
-1.00051e-06
4.71481e-07
5.15268e-07
1.00708e-06
4.9733e-07
3.91945e-07
-2.93378e-08
-7.98366e-07
4.35759e-07
-3.2009e-08
-7.19231e-07
3.62132e-07
3.89108e-07
-7.73596e-07
-2.88176e-08
3.86278e-07
4.16135e-07
4.11885e-07
-3.17463e-08
-7.61892e-07
3.81753e-07
8.15719e-07
3.56127e-07
-7.79901e-07
3.53728e-07
4.29982e-07
8.01182e-07
-3.31699e-08
3.81315e-07
4.60318e-07
-9.3856e-07
4.78242e-07
-2.24703e-08
-8.84309e-07
4.36562e-07
4.70218e-07
-9.20922e-07
4.44397e-07
4.76526e-07
4.74131e-07
-9.03081e-07
4.28949e-07
1.00693e-06
4.4438e-07
-9.90987e-07
4.63113e-07
5.21343e-07
9.18511e-07
4.60702e-07
4.80711e-07
5.09502e-07
-9.90213e-07
-2.54737e-08
4.49796e-07
-8.25659e-07
4.01336e-07
-8.67618e-07
4.59423e-07
4.08195e-07
4.55386e-07
-8.73133e-07
4.17746e-07
1.00137e-06
4.1725e-07
-9.37911e-07
4.35292e-07
5.40606e-07
8.72637e-07
4.40311e-07
4.08776e-07
9.76148e-07
-9.26936e-07
-1.01446e-06
1.04205e-06
4.62072e-07
1.06439e-06
4.64249e-07
-1.0103e-06
-4.33302e-07
9.07914e-07
3.94372e-07
-8.68984e-07
-3.71735e-08
-4.79846e-07
9.25795e-07
-5.54306e-07
-3.89237e-08
-8.74225e-07
4.71162e-07
4.29899e-07
5.16911e-07
4.7377e-07
4.02398e-07
-9.28435e-07
4.16755e-07
4.82863e-07
2.5835e-08
4.74158e-07
5.42056e-07
4.32874e-07
9.2282e-07
8.73474e-07
4.58875e-07
4.89781e-07
4.03914e-07
-4.84171e-07
9.46243e-07
9.73751e-07
-3.65234e-08
8.80691e-07
-4.38297e-07
8.9772e-07
-9.50506e-07
4.66335e-07
4.94406e-07
-9.98489e-07
1.02653e-06
4.81841e-07
-4.5891e-07
4.5355e-07
8.63047e-07
4.20042e-07
-9.01888e-07
4.34333e-07
-5.4014e-07
3.0994e-08
2.74772e-08
-4.6698e-07
4.23544e-07
4.37225e-07
-8.73101e-07
4.35877e-07
-1.05267e-08
4.67349e-07
-9.74003e-07
5.17181e-07
-8.93751e-07
4.50026e-07
4.43725e-07
4.64341e-07
4.72319e-07
-9.36661e-07
9.38172e-07
4.39642e-07
-9.40589e-07
4.43326e-07
4.84319e-07
9.03983e-07
4.53559e-07
4.23012e-07
-3.32134e-08
-8.56529e-07
4.6673e-07
-3.71706e-08
-7.63716e-07
3.8826e-07
4.12627e-07
-8.23074e-07
-3.1984e-08
4.13023e-07
4.42036e-07
4.3286e-07
-3.19112e-08
-7.97873e-07
3.96924e-07
8.80224e-07
3.81442e-07
-8.38654e-07
3.81681e-07
4.61372e-07
8.50289e-07
-3.59864e-08
4.08895e-07
4.29079e-07
-8.57292e-07
4.28213e-07
-2.31008e-08
-8.62128e-07
4.28375e-07
4.56854e-07
-8.60339e-07
4.15572e-07
4.44767e-07
4.45394e-07
-8.57303e-07
4.11909e-07
9.21728e-07
4.21423e-07
-9.14072e-07
4.30351e-07
4.68276e-07
8.66817e-07
4.36829e-07
4.643e-07
4.7581e-07
-9.4011e-07
-2.38803e-08
4.4961e-07
-8.40371e-07
4.14641e-07
-8.32794e-07
4.34989e-07
3.97805e-07
4.32846e-07
-8.41826e-07
4.0898e-07
9.44039e-07
4.07176e-07
-8.86914e-07
4.22554e-07
4.97604e-07
8.40022e-07
4.29782e-07
4.15359e-07
9.93328e-07
-9.41339e-07
-9.17399e-07
9.38506e-07
4.28919e-07
9.71687e-07
4.41574e-07
-9.40942e-07
-4.34709e-07
8.98443e-07
3.98581e-07
-8.62316e-07
-3.3848e-08
-4.67367e-07
9.16575e-07
-4.97689e-07
-3.64877e-08
-8.65588e-07
4.37511e-07
4.37557e-07
5.22557e-07
4.64185e-07
4.02347e-07
-9.16914e-07
4.06503e-07
4.78427e-07
2.40787e-08
4.31857e-07
4.8257e-07
4.40662e-07
9.1347e-07
8.6886e-07
4.52149e-07
4.854e-07
4.04095e-07
-4.44982e-07
8.73901e-07
9.17384e-07
-3.05543e-08
8.78746e-07
-4.22219e-07
8.57208e-07
-8.87661e-07
4.42679e-07
4.67234e-07
-9.34284e-07
9.54744e-07
4.48466e-07
-4.37512e-07
4.37417e-07
8.57345e-07
4.23748e-07
-8.85142e-07
4.29517e-07
-4.92357e-07
2.67506e-08
2.48757e-08
-4.54296e-07
4.27925e-07
-5.56694e-07
1.21468e-06
-6.57984e-07
2.05396e-08
-4.226e-07
8.86933e-07
-4.84874e-07
-5.57483e-07
-5.25842e-07
1.08333e-06
1.01839e-06
-4.91641e-07
-5.26753e-07
5.27327e-07
-4.92864e-07
-5.91157e-07
-4.64986e-07
1.01285e-06
5.25531e-07
-4.96938e-07
-3.66334e-07
2.86833e-08
7.34532e-07
-3.96882e-07
3.73555e-08
6.72947e-07
-3.48548e-07
-3.61755e-07
-3.75712e-07
3.07914e-08
7.08572e-07
-3.63651e-07
6.99441e-07
3.03593e-08
-3.60072e-07
-3.69729e-07
3.41352e-07
-3.30589e-07
-3.77097e-07
-3.22641e-07
7.01348e-07
3.42657e-07
2.61945e-08
-3.55696e-07
-5.02781e-07
-5.1549e-07
1.01827e-06
2.39471e-08
-4.07555e-07
7.94356e-07
-4.10748e-07
-4.78487e-07
9.26971e-07
-4.48484e-07
9.09296e-07
-4.66582e-07
-4.42714e-07
4.43266e-07
-4.62323e-07
-4.83724e-07
-4.26162e-07
8.93375e-07
4.46974e-07
-4.57675e-07
-4.7371e-07
9.68023e-07
-4.94314e-07
1.59081e-08
7.78245e-07
-3.91917e-07
-4.02236e-07
-4.68798e-07
9.16486e-07
-4.47687e-07
9.07809e-07
-4.46052e-07
-4.61758e-07
4.80385e-07
-4.53839e-07
-5.00257e-07
-4.66239e-07
9.62532e-07
4.5397e-07
-4.81068e-07
-3.89352e-07
4.07161e-07
-4.4041e-07
-5.22412e-07
4.9022e-07
-4.93651e-07
5.13158e-07
-4.77102e-07
-5.27698e-07
3.95945e-07
3.89211e-07
-3.76845e-07
-4.08312e-07
1.15599e-08
-8.06654e-07
4.05742e-07
-1.00779e-06
1.85191e-08
-4.29229e-07
-4.76114e-07
-3.76288e-07
8.12132e-07
7.87593e-07
-3.68022e-07
-3.83879e-07
-3.63351e-07
7.78021e-07
-2.08196e-08
-4.62518e-07
9.73557e-07
-4.00586e-07
4.3004e-07
4.13201e-07
-4.09215e-07
8.18434e-07
-3.79893e-07
-9.83769e-07
4.90118e-07
4.90921e-07
1.44744e-08
3.86926e-07
4.63037e-07
4.53448e-07
-4.98405e-07
-4.85363e-07
-4.83599e-07
-4.93407e-07
4.71081e-07
-4.8789e-07
4.6307e-07
-4.76203e-07
4.02945e-07
-3.84042e-07
-3.82905e-07
-3.88002e-07
-9.53901e-07
-1.77131e-08
-1.97501e-08
-7.8051e-07
-3.97316e-07
4.11771e-07
-7.90887e-07
3.79117e-07
4.52188e-07
4.7107e-07
-9.23258e-07
-2.39913e-08
4.56559e-07
-8.53117e-07
4.20549e-07
-8.11774e-07
4.36053e-07
3.75721e-07
-3.90501e-07
8.02272e-07
9.43313e-07
-8.81626e-07
-4.16299e-07
4.06797e-07
5.03023e-07
5.29088e-07
4.95499e-07
-1.02459e-06
5.53024e-07
-1.15618e-06
6.03151e-07
-3.09295e-08
4.42465e-07
-9.33934e-07
5.22398e-07
-1.00986e-06
4.88403e-07
5.21455e-07
-4.83276e-07
1.01236e-06
1.16323e-06
-1.09348e-06
-5.09277e-07
5.11784e-07
6.2302e-07
4.20227e-07
-2.40262e-08
-7.83096e-07
3.86895e-07
3.88006e-07
-2.70926e-08
-7.99665e-07
4.38752e-07
-2.68201e-08
-7.31899e-07
3.63652e-07
3.95067e-07
-7.7966e-07
-2.3731e-08
3.82925e-07
4.20466e-07
-3.63739e-07
8.0769e-07
-2.37244e-08
8.03311e-07
-7.79044e-07
-3.57686e-07
3.85716e-07
4.18806e-07
4.58882e-07
-8.65694e-07
4.06811e-07
4.37982e-07
-8.99502e-07
4.6152e-07
-1.94243e-08
-8.75229e-07
4.25125e-07
4.69528e-07
-8.82527e-07
4.26445e-07
4.56082e-07
-4.28371e-07
8.87254e-07
9.5471e-07
-9.451e-07
-4.35019e-07
4.39746e-07
5.00267e-07
9.00904e-07
-4.29835e-07
-2.88973e-08
-3.97881e-07
8.83338e-07
-4.21677e-07
8.5773e-07
-4.51192e-07
-4.38004e-07
8.89196e-07
4.63885e-07
8.95232e-07
-4.58213e-07
9.38011e-07
4.4404e-07
9.60375e-07
1.02935e-06
-9.63682e-07
-1.02326e-06
1.07366e-06
3.96671e-07
9.25012e-07
-8.79218e-07
-4.24527e-07
8.87888e-07
-8.61242e-07
5.44575e-07
2.65591e-08
3.30974e-08
4.74024e-07
-8.71992e-07
9.03792e-07
8.64959e-07
-4.01241e-07
4.1962e-07
-4.3382e-07
4.25856e-07
4.62764e-07
-4.73069e-07
-8.96677e-07
-3.96138e-07
4.17586e-07
-2.09414e-08
4.67206e-07
4.18694e-07
5.05613e-07
-2.32776e-08
-4.06193e-07
4.62621e-07
-8.87084e-07
4.67215e-07
2.49195e-08
5.75671e-07
4.07816e-07
4.90103e-07
8.55588e-07
-4.16691e-07
-4.37689e-07
8.94917e-07
4.82147e-07
-5.35719e-07
1.15757e-06
-6.21848e-07
1.42371e-08
-4.1016e-07
8.74148e-07
-4.78226e-07
1.00284e-06
-4.83237e-07
-5.19604e-07
-5.25119e-07
-4.86513e-07
1.01163e-06
-1.10935e-06
-4.8853e-07
1.06216e-06
-4.95085e-07
-6.00025e-07
-1.01365e-06
-5.05894e-07
-3.59096e-07
2.67855e-08
7.29559e-07
-3.97248e-07
3.7002e-08
6.70233e-07
-3.4609e-07
-3.61145e-07
6.92623e-07
2.7902e-08
-3.49743e-07
-3.70781e-07
-3.73669e-07
2.9004e-08
7.0675e-07
-3.62085e-07
-7.43527e-07
-3.20962e-07
7.05392e-07
-3.23131e-07
-3.83393e-07
-7.25639e-07
3.10092e-08
-3.56148e-07
-4.60412e-07
9.36783e-07
-4.76372e-07
2.10858e-08
7.63286e-07
-3.83517e-07
-4.00854e-07
8.92153e-07
-4.4957e-07
-4.42583e-07
-4.51843e-07
8.90007e-07
-4.38164e-07
-9.41262e-07
-4.56399e-07
9.3725e-07
-4.39057e-07
-4.81119e-07
-9.08242e-07
-4.55146e-07
-4.78658e-07
-4.98245e-07
9.76903e-07
1.67709e-08
-4.1629e-07
8.12757e-07
-4.13238e-07
8.86176e-07
-4.45808e-07
-4.40369e-07
-4.63029e-07
9.25989e-07
-4.6296e-07
-9.72382e-07
-4.2407e-07
9.17795e-07
-4.68023e-07
-4.87588e-07
-8.871e-07
-4.68947e-07
-3.71054e-07
-8.54381e-07
8.15273e-07
1.00084e-06
-1.01779e-06
-4.66285e-07
-9.83839e-07
-4.54981e-07
9.52309e-07
3.96354e-07
-7.99736e-07
-3.68695e-07
7.72077e-07
1.23148e-08
4.11426e-07
-7.94795e-07
5.07257e-07
1.47704e-08
7.93011e-07
-4.61811e-07
-3.76413e-07
-4.51182e-07
-4.05313e-07
-3.65419e-07
7.96886e-07
-3.61442e-07
-4.07542e-07
-1.39196e-08
-4.72968e-07
-5.30903e-07
-3.86058e-07
-7.8515e-07
-7.60362e-07
-3.95122e-07
-4.03948e-07
-3.58597e-07
4.69669e-07
-9.35955e-07
-9.53226e-07
1.39989e-08
-7.98984e-07
4.54228e-07
-9.00036e-07
9.40522e-07
-4.70852e-07
-4.74515e-07
9.48104e-07
-9.64728e-07
-4.7214e-07
4.56766e-07
-4.66795e-07
-7.74152e-07
-3.90251e-07
7.83237e-07
-3.81392e-07
4.86006e-07
-2.08958e-08
-2.19563e-08
4.03743e-07
-3.92365e-07
-4.86074e-07
9.79647e-07
-4.93574e-07
-4.97536e-07
-4.90544e-07
9.8808e-07
9.25698e-07
-4.69977e-07