/*--------------------------------*- C++ -*----------------------------------*\
| =========                 |                                                 |
| \\      /  F ield         | OpenFOAM: The Open Source CFD Toolbox           |
|  \\    /   O peration     | Version:  2506                                  |
|   \\  /    A nd           | Website:  www.openfoam.com                      |
|    \\/     M anipulation  |                                                 |
\*---------------------------------------------------------------------------*/
FoamFile
{
    version     2.0;
    format      ascii;
    arch        "LSB;label=32;scalar=64";
    class       volScalarField;
    location    "1200";
    object      p;
}
// * * * * * * * * * * * * * * * * * * * * * * * * * * * * * * * * * * * * * //

dimensions      [0 2 -2 0 0 0 0];

internalField   nonuniform List<scalar> 
60096
(
8135.76
9436.9
12465.4
9401.96
10865.9
10918
10667.4
10746.7
12904.6
4092.21
5261.32
4322.19
3769.04
2475
2355.88
2075.95
15440.1
14458.3
16531.1
12992.9
14144.2
14251.3
14803.3
13821.4
8256.44
4794.7
9620.19
7264.11
7994.19
6967.41
8118.97
7304.43
8365.08
11948.9
9098.84
5343.77
7620.56
10732.8
4973.74
8610.32
6796.82
4993.12
6081.69
13167.5
5710.81
3315.98
8563.78
3502.22
13095.8
9324.42
5997.29
11068.6
11912.8
9139.41
10216.7
7452.44
13691.1
10110.6
5474.92
10174.3
13962.8
9292.87
7614.12
4884
-33195.9
-10921.5
-24543.1
-27084.8
35427.4
4368.54
-14773.5
6354.17
-1955.6
-3446.45
-4138.52
-4840.18
-4849.99
-3074.75
-4708.55
-4006.46
-510.907
-3292.05
-2663.48
-3145.97
-1797.89
-2350.51
-2730.13
-1728.69
28532.1
-15977.7
6222.89
58224.3
67691.3
26335.5
31678.9
69193
-1006.52
22.1701
64908.1
108.017
-3609.89
23981.4
-12390.9
19264.4
-1684.95
-413.097
-3523.79
649.682
-6551.56
-6219.91
-5314.13
-2904.96
15416.1
25241.8
-26.1938
12556.7
-11841.5
14995.6
10826.1
46290.9
6525.42
26812.4
-3339.41
-6866.1
-6190.3
-7403.71
-4406.64
-7015.75
429.153
1030.17
910.044
1086.15
753.004
827.029
940.019
970.184
1402.96
2066.48
2297.27
2548.19
1917.99
1875.52
2107.11
2174.68
1147.27
1936.87
756.551
1886.17
1595.1
1479.35
1418.9
1334.25
2139.5
3128.5
3022.98
3720.47
2857.66
2912.82
2991.93
3046.89
1327.61
1317.65
1643.22
2364.13
1512.13
1355.15
1779.47
1671.69
1351.07
2417.59
2186.03
1319.73
1605.14
2001.01
1511.87
2059.97
1405.18
1735.53
2631.41
2252.26
1677.94
1824.75
2218.89
2395.82
1436.04
2312.87
2735.37
2439
1819.7
2186.38
2225.32
2730.62
6947.48
5766.92
6639.78
6333.95
6604.54
6460.12
6694.3
6480.78
4470.44
3180.09
4091.74
3594.47
4029.99
3900.51
3905.47
3909.63
6020.41
4813.09
4955.24
5054.03
5410.29
5243.07
5333.88
5273.43
5151.14
4032.8
4724.69
4249.12
4886.19
4665.27
4632.59
4501.13
5376.75
6123.85
5715.43
4342.1
5372.03
5836.17
4901
5532.02
5160.32
4135.77
4647.82
5969.1
5145.21
4406.89
5190.39
4806.03
6156.78
5629.25
4361.38
4994.39
5755.16
5391.69
5017.68
4875.17
5911.77
4799.48
4097.89
4678.81
5174.79
4924.54
4770.63
4351.86
7638.95
5671.49
8244.25
6836.69
7029.39
6579.74
7298.85
7151.16
3723.04
2214.73
3780.71
3327.94
3058.9
2833.35
3221.59
3238.95
8531.5
5250.9
8364.76
7480.24
7453.82
6026.03
7167.33
6508.91
6161.01
4070.48
6431.29
5122.39
4940.14
4535.02
5227.42
5308.44
4864.41
7705.76
5882.78
4263.9
5185.91
5921.43
5149.64
5613.63
4786.5
3692.2
4269.59
6709.99
5162.76
4068.94
5436.82
4807.69
7560.41
6223.28
4387.45
6562.96
7050.76
6203.19
6423.61
5254.16
7122.74
5778.49
4022.33
4816.83
5644.48
5477.63
5087.63
4850.47
-224.049
-1435.69
-336.785
-367.6
-552.136
-247.401
-92.4716
-338.689
-4090.7
-47863.3
-5547.16
-15367.1
-21549.9
-16272.3
-5182.66
22692.9
-910.196
-1422.16
-2018.45
-2936.82
-1390.95
-1926.88
-1912.32
-2384.12
-997.142
-4573.21
-3694.05
-3142.35
-3549.05
-1235.55
-2665.49
-2073.93
799.295
-590.55
202.133
-2114.32
-1528.06
-1103.12
2212.03
-523.615
3189.53
5031.99
-2371.68
-808.189
-3222.59
-446.565
-2339.3
-2290.75
-265.88
-1365.03
-2040
-2712.01
-1479.29
-1097.57
-2078.43
-1307.11
-135.897
-2834.51
-2054.64
-148.09
-331.502
-2370.46
-68.4838
-4205.19
15093.1
14750.9
13663.4
18467.8
14386.2
14578.8
15991
15734.1
16126
16128.5
15535.4
11442.3
16983.2
16353.4
15443
15463
12386.5
13309.6
10294.8
10777
11723.7
12130.9
10817.1
11737.9
19306.3
8797.32
9373.35
-116.739
14703.4
6815.98
5489.12
4184.2
16896.1
14136.6
17926.8
16673.5
16062.2
16136.2
17371.3
15975.6
15951.8
13099.1
14702
13998.3
16235.1
16317.6
14576.6
14214.6
13379.5
17865.5
13466.7
9324.07
14035.2
14038.3
11262.2
12859.2
14099.5
11301.7
11062.7
13417.2
13345.9
11537.6
13667.3
10624.2
290.753
1858.51
951.536
1170.83
1627.14
1697.17
1150.72
1247.3
2183.5
1839.57
1311.42
1762.13
2286.49
1940.5
1817.01
1343.88
829.431
799.863
337.49
713.192
944.334
810.332
702.033
591.641
1561.43
1777.99
1089.03
1620.87
1755.88
1657.35
1542.96
1400.61
2168.22
1329.31
1801.36
1976.22
1789.21
1446.46
1787.53
1798.68
2031.79
1841.2
1304.9
1296.15
1611.73
1602.99
1299.08
1447.85
1186.74
1571.38
1687.44
1116.42
1115.27
1480.99
1297.84
1443.12
1097.75
938.502
1433.88
969.236
1037.79
1202.67
1225.46
1199.74
289.22
744.709
361.585
722.942
548.43
533.749
500.075
526.062
836.617
505.95
925.575
1666.24
1168.58
1095.37
1288.48
1178.25
255.66
891.82
325.161
898.92
525.463
499.459
558.236
522.159
1202.8
2103.55
1231.4
1593.94
1730.82
1898.22
1383.83
1694.41
931.82
524.713
1065.81
1531.41
961.35
818.763
1249.15
1045.23
978.597
1496.68
1004.47
492.421
1017.33
1282.37
759.548
1044.76
495.253
938.047
1694.39
963.902
761.346
990.151
1124.11
1377.94
478.542
1121.81
1638.44
1024.16
751.707
1117.22
1065.17
1418.67
6614.43
3979.47
6579.16
5259.56
5916.34
5260.39
6193.47
5653.03
2947.09
2070.49
3386.8
2566.69
2789.97
2820.01
3058.87
3122.3
7237.97
4913.19
6912.13
5927.46
6652.1
6483.98
7040.54
6481.9
4174.04
3036.63
4536.65
3614.66
3630.16
3705.76
4085.92
3799.51
3711.28
6096.76
4305.46
3308.7
3850.51
4654.43
3264.02
4141.92
3902.53
3278.07
4425.4
6090.8
3878.9
3503.69
4710.77
4211.82
6125.95
4751.42
3599.82
5067.26
5548.85
4435.93
4982.09
4079.78
6127.28
4776.63
3412.88
4520.45
5403.38
4840.58
4449.33
3836.9
-138.002
240.767
-169.189
40.1585
-77.2784
-75.6841
-62.8594
-39.7069
-1675.61
-2472.96
-3021.85
-2389.77
-1985.04
-2525.95
-2285.49
-3220.62
-803.02
-2814.26
-1923.47
-1396.4
-1454.61
-2222.84
-1280.78
-2189.95
327.872
-839.558
-191.886
311.321
-206.65
-720.14
79.3208
-615.574
-19.4912
-119.149
31.0551
-719.48
-237.847
-170.979
-101.148
29.1946
-647.408
-1531.82
-2628.83
-348.849
-1179.72
-1544.74
-1452.39
-1856.31
-329.891
250.695
-944.826
-536.893
-205.939
66.7772
-168.927
-380.382
-292.694
-1764.9
-1950.23
-3064.23
-1049.81
-1222.25
-2244.86
-2112.62
6541.54
6791.42
7042.15
4419.52
6075.8
6772.15
5380.98
6448.58
7650.62
8403.94
8633.37
5233.42
7135.95
8062.62
6229.6
7888.64
7972.5
8875.78
7880.98
5868.75
7433.41
8027.9
6903.52
7917.51
3236.54
3729.56
4016.49
2270.91
3030.28
3388.39
3088.09
3575.89
6536.76
6712.98
4074.91
4414.52
5787.67
5991.83
4565.51
4616.04
7262.2
5056.96
8015.44
7375.85
6952.91
6661.69
7491.16
7471.62
6534.5
4096.93
4242.62
4715.63
4808.1
4607.33
4728.45
4628.97
7541.61
5260.12
5119.5
8185.33
6983.03
5340.95
6861.13
5442.08
6235.97
6511.63
6846.64
5439.73
6579.59
6766.33
6319.77
6539.4
6337.26
5280.59
6144.46
4995.15
5625.95
5903.89
5428.87
5705.94
7028.37
6761.84
7082.16
5896.59
6807.43
6967.53
6641.58
6792.39
4229.99
4269.78
4503.16
3530.29
4123.89
4247.67
3958.04
4139.44
6132.51
6689.64
5018.08
4969.61
5838.35
6099.18
5445.67
5352.92
6487.8
5163.66
6520.74
6793.36
6220.69
5729.63
6601.8
6308.48
6493.03
4826.92
4785.98
5318.09
5713.54
5181.05
5470.37
4860.6
6720.38
5595.64
5038.81
6337.76
6298.79
5764.16
6101.38
5454.02
5063.65
4780.19
5921.21
4977.35
5253.76
5199.59
5415.59
5420.27
4023.52
3587.91
4169.49
3359.73
3985.41
3940.56
3902.22
3729.34
6251.5
4732.34
6448.16
5509.73
5869.88
5792.66
6069.96
5951.41
4479.55
3465.31
4432.59
3709.3
4092.49
3945.09
4127.28
3943.61
4569.01
5684.4
4803.93
3939.08
4699.26
5027.05
4218.64
4726.22
4523.01
3897.33
4471.43
5626.63
4604.92
4159.21
5099.88
4521.75
5919.17
4942.08
3912.96
5058.17
5414.76
4882.41
4892.71
4328.65
5812.25
4876.43
3804.67
4612.02
5178.99
4724.5
4677.9
4169.54
169909
75264
95431.1
80661.3
126558
107112
119407
90485.6
-5934.92
-3793.7
-1677.49
-10368.6
-5802.88
-5757.86
-3283.13
-3382.34
34821.5
721.464
13461.8
3541.61
14813.3
9478.87
15431.4
3862.13
47377
2229.64
-6219.27
11322.3
13218.1
-273.789
20040.8
-6373.29
31473.4
42699.5
69555
-9798.72
19112.7
53066.1
19110.7
47131.6
8692.65
-7154.48
-451.909
30383.2
-411.915
-510.089
13320.5
1163.75
36394.6
58552
-8959.92
9668.27
36946.7
31499.9
16652
9965.71
24947.5
1003.75
-5127.84
-5636.98
15057.7
9428.28
-107.71
-116.736
12417.7
17734.5
13089.2
11461.1
13677.6
16044
15507.2
14042.1
19361.3
5704.28
9428.53
14098.6
15657.2
6982.18
11753.6
5963.13
11884.5
9958.67
7934.43
9210.2
12089.1
10686.6
11372.4
9665.89
10527
10808
12616
7907.02
13057.2
16237.8
12721.5
14076.7
17981.8
13696
14695.2
14121.6
19123.8
15720.2
17385.7
18410.2
19265.4
14479.1
9720.15
14056.2
19241.1
14970.2
14880.3
11536
13198.5
14587
14963
12908.7
12975
15049.3
13522.6
16538.1
12394.5
11409.3
12767.6
11127.8
12266.8
12285.7
12395.5
11141.1
-129.902
-767.021
-909.964
-1199.98
-1349.92
-1560.32
-1520.27
-1402.93
917.315
7047.94
2411.69
4291.12
2909.57
2876.8
3269.62
3231.13
-792.568
822.222
-1003.55
1673.63
-440.429
-476.159
-2.20374
188.222
-185.367
5419
3409.56
5184.05
1921.31
3477.35
4117.43
5591.66
-133.365
-1972.35
-751.447
2458.97
-481.512
-1445.08
1010.69
-596.263
77.2542
4069.73
830.632
-2087.15
823.922
2677.64
-1510.03
806.613
-2114.65
-299.797
4571.76
1961.66
-1318.4
-340.033
84.4605
774.984
-1938.91
4779.73
6271.55
2914.12
-592.885
2217.4
2509.62
7008.8
80737.3
77199.9
40417.7
72410.4
99068.3
117713
49727.1
76215
151881
244159
112109
92719.3
168503
201904
120057
152322
26799.3
36637.2
20467.2
11107
28953.6
36029.3
18484.1
20847.1
72792
40250.6
19401.5
14303.3
57791.5
46734.7
43626.5
36698.3
103326
49498.6
74095.3
63513
64998.9
63963
54378.9
113118
134122
88759.7
69026.1
68298.7
75840.8
88033
44668.4
56004.5
13175.8
2458.42
51321.6
23700.5
45037.1
49685.2
41187.4
35692.2
36769
18687.7
53428.8
43022.4
43218.9
31896.3
36224.5
39743.4
639.649
1469.5
1032.24
1480.04
1224.39
1274.89
1230.81
1348.11
1938.93
2588.95
1679.39
2492.6
2373.63
2139.93
2263.1
2092.29
990.559
1015.69
474.658
1017.65
977.322
907.47
915.421
845.479
2001.83
2552.97
1912.03
3113.86
2273.46
2202.1
2364.67
2354.85
1857.4
1291.45
1757.89
2428.31
1851.37
1603.62
1948.57
1741.12
1776.53
2200.91
1522.04
1207.56
1842.35
1949.21
1430.7
1602.04
1289.75
1814.82
2375.3
1611.44
1512.68
1809.12
1660.5
1962.39
1168.31
1515.91
2292.87
1406.03
1266.05
1509.87
1561.56
1698.15
384.331
844.009
865.988
1078.57
867.624
907.471
919.318
988.974
978.507
-165.962
37.5983
1530.02
1088.46
455.741
1265.94
1001.8
1125.25
203.548
214.234
1917.13
1191.39
636.784
1314.42
921.607
1976.24
2576.05
2886.75
3607.05
2821.48
2629.03
3178.71
3145.1
1169.59
1262.62
1633.49
1963.92
1413.66
1233.67
1491.21
1566.55
1085.06
1596.97
632.85
1357.65
1281.14
1248.79
1104.7
1167.89
1437.35
1825.07
2342.72
2453.44
1587.93
1765.89
2010.66
2146.91
1379.07
2269.17
2156.21
1136.36
1297.88
1766.62
1266.6
1752.28
-1070.8
164.51
-781.588
1281.58
3.34634
284.117
420.981
499.748
-296.97
-314.127
-259.775
-1519.56
-751.586
-620.255
-1105.01
-856.187
-1097.5
53.0667
-898.779
455.712
-751.306
-308.311
-333.651
-339.551
3212.03
444.502
2893.53
5078.5
3527.25
2652.37
4301.18
3781.61
216.925
-66.4592
1719.01
73.3021
-56.798
626.041
286.68
1237.69
164.528
-779.838
-606.51
-163.137
-64.8031
-371.57
126.928
-555.517
439.708
2288.88
253.284
2169.26
1796.58
1917.79
1693.69
1360.04
251.777
1823.19
-289.917
-954.203
585.401
1583.73
-598.141
59.6049
219.255
240.242
940.073
1412.36
653.718
563.179
1001.17
1014.11
313.229
343.895
995.625
1394.77
745.625
648.206
1041.02
980.773
804.591
910.736
462.041
924.467
777.774
828.941
807.017
695.769
2144.29
2095.72
1673.36
2767.21
2341.7
2091.22
2381.51
2068.41
740.301
1090.73
1625.42
1607.86
1056.26
1165.67
1470.37
1446.24
652.047
1437.7
1084.53
1124.88
1029.99
1156.89
946.296
989.783
1127.35
1753.1
1783.8
1503.58
1302.48
1550.38
1504.34
1718.99
944.413
1308.98
1627.42
997.062
1071.23
1393.02
1130.08
1448.84
3285.68
3844.99
4178.04
4655.24
4760.82
6034.59
4591.81
4972.03
3445.09
3414.12
317.368
414.015
2434.61
2217.41
-304.815
666.315
732.3
281.423
413.617
-134.842
448.307
294.474
-419.623
244.926
2357.45
523.809
86.2397
1803.24
2974.4
1274.81
2087.97
991.418
3410.09
2044.01
5485.69
964.398
2740.37
2293.94
2520.64
4916.85
4896.21
1100.55
6.72138
2300.08
1216.98
36.8818
709.812
288.718
26.5963
3191.6
-189.679
-444.411
1595.68
2753.97
548.119
616.327
1038.28
-17.7558
446.946
276.198
458.167
300.082
454.629
385.218
160.854
947.971
1010.76
2005.36
439.702
519.163
1064.85
1207.89
17.221
-351.294
-195.978
-918.962
205.7
-145.487
-357.328
-343.39
1195.01
573.932
249.452
1842.81
997.134
401.273
1257.71
719.247
3455.62
1110.93
3553.34
4813.84
3469.11
2645.27
4079.05
3448.24
653.799
1167.5
2183.64
781.758
983.659
1171.75
904.34
1745.27
565.735
706.595
263.959
853.971
572.665
282.828
663.201
426.986
1465.16
2716.75
1001.99
2641.05
2246.52
2404.87
2050.15
1934.95
1307.14
1845.02
656.91
369.83
1146.78
1428.74
723.848
796.854
449.519
986.67
1267.59
1323.47
727.727
949.391
963.609
1126.35
1421.99
600.31
1879.68
2112.61
1581.69
1498.79
1677.56
1522.12
1901.36
2416.8
1442.81
2652.67
2047.3
2235.96
2088.71
1895.75
2225.84
3214.93
3291.09
4009.12
2767.64
3007.03
3080.39
3132.67
1241.79
1443.58
1513.7
2112.07
1569.3
1497.25
1867.52
1822.27
1489.85
2326.7
2140.75
1836.13
1524.59
1748.95
1827.78
2066.37
1707.29
1879.89
2545.14
2711.59
2030.96
1950.71
2263.48
2400.12
1713.53
2728.65
2612.82
2114.63
2136.03
2593.4
2174.46
2661.86
322.505
290.354
785.702
932.374
389.485
395.054
684.707
609.885
290.944
269.101
751.9
884.364
486.853
413.834
730.818
668.347
906.55
943.664
524.232
1433.09
1048.04
1070.82
1287.2
1214.65
1568.1
1540.23
1905.93
2298.28
1782.76
1669.81
2028.17
1995.42
404.022
850.203
1110.06
1035.56
672.782
850.315
857.045
1046.67
418.397
1034.66
850.564
797.782
643.589
821.185
716.561
817.058
1064.93
1317.34
1328.41
1731.82
1276.16
1254.07
1524.3
1479.56
938.568
1689.89
1297.85
977.22
1160.17
1440.59
1069.66
1301.37
-2080.82
-555.191
-10339.4
13756.9
-1127.01
287.816
-7883.37
-641.375
-484.381
-1006.86
-117.537
-218.286
-892.099
-436.587
-845.55
-628.34
-2970.34
145.858
-215.829
-16.8576
-373.926
-212.581
-819.34
-418.614
3979.72
4249.83
302.139
4738.43
7251.91
4519.68
6275.63
3815.58
-362.36
-2023.93
1813.26
-1005.95
-151.147
4626.07
-680.885
1661.29
94.465
-1782.86
-1146.73
-2909.49
83.5168
-445.037
-709.471
-1052.7
-321.445
3015.4
-213.781
2682.11
-1268.73
2044.77
2374.82
1935.04
-1630.4
-859.486
-963.337
-1670.21
2177.15
-1588.96
-2081.6
-1065.81
381.937
1015.43
823.961
825.082
632.069
842.885
696.049
877.054
1699.2
2474.82
2002.67
2055.23
2017.89
2249.33
2070.84
2185.29
1048.62
1533.77
335.569
1050.54
1208.34
1327.32
1062.74
1138.04
1148.14
1777.01
1338.64
1464.57
1421.73
1692.48
1451.21
1599.47
1250.39
990.443
1038.53
1715.37
1318.24
1116.97
1420.14
1267.66
1472.86
1986.65
1863.74
1191.45
1500.66
1854.82
1359.64
1684.45
1024.33
1065.26
1776.31
1364.67
1128.51
1261.8
1425.37
1479.55
1163.49
1427.89
1960.22
1822.24
1385.96
1557.22
1670.85
1725.58
685.067
869.911
990.645
1660.35
945.613
985.659
1110.79
1165.37
751.275
406.124
679.193
923.677
750.665
540.817
806.724
670.112
1085.51
891.575
409.794
1412.97
1172.46
1031.24
1075.27
994.722
2411.14
1676.86
2157.64
2947.15
2416.67
1947.98
2410.14
2209.35
981.444
1214.5
1721.15
1385.92
1062.62
1220.24
1346.32
1443.46
965.553
1123.47
867.121
1110.41
961.406
924.185
861.096
971.752
1265.01
1866.21
1456.21
1783.97
1694.05
1715.67
1797.33
1715.78
1188.39
1643.86
1353.38
884.563
1268.28
1461.64
1003.35
1269.79
54.8168
1495.44
-528.217
-733.942
-13.6078
-730.416
-453.564
-1245.56
2333.24
6174.62
345.992
4057.66
12967
8027.2
5390.39
2051.53
-688.061
1953.09
1064.81
-62.6631
-215.05
560.34
-64.9021
340.739
-533.198
672.868
-263.883
-355.932
-822.946
-544.145
-449.605
-152.186
2101.74
-1243.51
-1347.67
2536.56
-511.818
-2138.93
142.062
-1537.11
1655.03
2104.24
-1381.18
-1570.87
-406.869
3285.56
-1545.62
989.199
59.7545
-1369.2
-357.385
-272.696
-665.761
-1111.44
-530.281
-929.473
-16.9059
-98.5195
-593.754
-1552.91
272.096
-435.626
-59.0175
-620.783
8729.08
2988.86
4891.02
5321.32
9003.55
5811.53
6546.41
5054.58
3760.67
12170.8
9587.99
2403.74
5942.92
10383.8
3853.2
5833.53
4234.33
8900.12
7903.68
785.54
5806.67
7374.4
3729.74
4959.63
3360.19
823.324
905.226
2507.28
3279.64
722.5
2320.26
-71.007
5764.96
5777.86
6840.16
2755.32
2122.08
4844.39
2055.45
3300.82
6276.53
3020.38
6062.98
3713.07
3406.96
4077.38
4163.5
2833.61
3023.66
4306.55
1551.27
-638.893
2913.22
1873.94
1656.05
1436.12
3225.94
-89.7986
1534.49
3195.94
3585.6
414.068
514.591
835.144
1663.54
2121.92
1358.2
1336.79
1766.2
1783.42
1459.55
1422.61
3024.87
3559.13
2001.26
2692.74
3034.52
3016.14
2653.72
2653.58
938.722
1059.29
378.188
799.236
992.677
1013.72
734.23
703.268
1103.85
1826.88
995.729
1339.44
1339.78
1547.96
1432.25
1524.2
2327.27
1379.47
1497.25
2102.97
1968.31
1643.5
1847.21
1637.33
2382.81
2213.43
1779.06
1383.6
1970.11
2109.54
1662.96
1739.8
1122.18
1210.28
1836.72
974.3
1169.32
1202.75
1187.93
1474.85
1128.67
1092.35
1821.44
1474.42
1170.35
1234.13
1449.68
1460.93
-857.03
-993.197
276.101
-1668.38
-1399.78
-661.566
-1379.58
-749.711
1236.42
5402.7
3324.99
3294.02
3143.54
3563.91
2901.4
3977.81
1092.01
2063.8
-131.697
1346.3
2001.34
1498.95
1657.93
1462.48
-317.161
2049.52
1485.57
1457.45
1188.28
1714.67
1166.82
1873.88
-325.867
353.671
-512.875
1875.7
365.979
390.271
632.789
625.34
774.968
2507.47
2803.49
1008.41
1302.64
2091.29
1010.8
2347.39
606.995
-326.444
1850.8
1682.22
696.409
603.504
1477.36
1287.88
1390.36
2265.34
2821.84
2908.96
1626.16
2014.94
2149.12
2507.84
210320
139819
105335
65587.6
170754
182502
131476
108858
61896.7
31726.2
25184.9
7037.38
32066.7
35347.6
27832.6
41507.7
31300.2
20595.4
16405.5
-250.098
19649.4
18936.4
10571.5
16306
-6501.54
-6572.64
-4168.37
-7223.34
-5981.89
-6358.57
-7478.44
-6408.46
76707.8
63852.9
32242.5
7816.73
55531.7
59951.2
23082.9
36212.4
80772
4314.08
30510.4
52711.3
51407.7
24640
53510.6
32490.5
36452.7
11489.6
1172.45
-3922.79
13727.1
13462.7
3827.3
-619.014
33362.4
485.334
6766.31
23386.7
16325.7
4000.7
18313.8
2468.35
13176.3
13705
16192.9
11770.4
12998.4
14562.9
12991.2
14687.1
12586.6
12489.8
14364.9
10753.5
12526.1
12605.6
12173.6
12183.6
17685.4
16182.7
17900.9
15726.3
16757.2
17326.8
16620.2
16990.4
9885.68
9801.63
12263.2
8199.38
9497.14
10228.4
9361.93
10357
12851.3
15227.6
11393.4
11053.3
12824.9
13617.6
11756.2
12284.4
13379.1
11349.9
15524.3
16017.3
13528.1
12532
15022.7
14967
15181.8
11218.8
10880.3
13354.3
14183.6
12433.9
13251
11434.5
16076.5
14360.8
11338.7
15184.2
15282.9
14456.1
14944.5
13609.2
-4273.46
-23939.3
-25496.4
7189.49
-6282.24
-17668.8
-13840.9
-20905
15918.6
-26031.7
-24405.4
34450.8
16550.2
-19999.9
-7107.28
-17525.1
72887.8
578.518
77099.6
-24121.4
-41256.3
2811.67
-96351.2
25295.3
44412.7
243868
7606.72
20771
27799.9
161746
49695.4
227781
8184.43
-20646.7
-5510.98
124281
-9362.73
-22280.2
-11104.3
25294.3
21247
32667.8
-25479.9
5365.84
50461.4
14891.8
-1141.74
-39187.6
-74722.8
3034.5
110212
-38207.3
4060.51
40702.9
16786.4
117850
29113.4
31681.9
-3092.32
-2972.36
-64837.9
72829.4
-19790.6
40043
472.643
299.763
262.195
86.8678
385.775
410.234
260.831
287.821
869.546
6840.41
5329.92
757.828
910.197
2807.44
962.259
1884.98
59.3002
6111.3
9717.54
2290.9
547.485
5573.34
3038.23
5594.37
567.512
948.504
1648.25
3589.7
829.09
310.092
1801.4
246.522
294.495
266.06
39.0884
80.8005
344.253
337.64
334.53
182.452
879.695
360.591
2733.9
136.109
654.906
703.584
439.378
404.913
511.13
342.283
-392.383
445.316
248.205
-379.64
503.823
96.9386
227.692
575.242
-935.898
4243.4
279.142
323.869
301.15
-65.0845
366.294
673.132
945.191
714.916
583.861
616.062
739.252
752.415
855.262
470.144
1522.57
1064.95
839.383
868.236
1130.05
1149.86
1721.64
2242.29
2924.27
2346.08
1970.24
2197.33
2276.55
2436.98
1070.26
1315.3
1860.15
1541.66
1231.75
1384.34
1486.94
1566.17
783.319
1148.38
887.457
1111.89
986.109
962.078
988.481
994.821
932.215
1276.76
1575.23
1312.97
1067.59
1241.29
1306.37
1405.26
1333.05
1076.54
1325.03
1770.45
1388.32
1160.76
1525.53
1306.54
1488.02
1971.1
1415.21
1840.02
1804.59
1838.85
1714.63
1758.5
225336
133590
112820
95996.6
176786
180088
125884
126099
99787.1
93211.3
98140.4
68570.6
87338.8
97791.4
89536.7
94107.2
84171.8
91369.7
72926.7
66090.3
71015.7
79583.7
67640.4
72638.6
41293.8
28034.8
33163.3
14358.8
43917
43234.7
29740.3
36563.6
114186
101764
87185.8
65874.9
106591
106185
58213.6
93113.2
107811
84111.4
99867.9
94061.2
103500
96451.6
111867
96864.2
86766.3
68196.4
64717.2
53607.5
66736.2
73290.5
60547.4
68753.2
85504.3
56136.2
66468.2
91256.3
79623.3
70552.5
86423.1
68364.7
8604.06
7968.2
9321.97
7653.09
8379.07
9302.3
9009.13
9771.55
7676.41
7059.77
9017.93
7207.24
7901.39
8657.38
8276.67
8960.95
9780.18
9267.98
9155.42
7878.72
9593.73
9526.73
8682.84
8929.91
6550.98
6363.78
6533.76
5343.41
6253.7
6627.5
6284.77
6445.94
8099.29
9193.44
7391.79
7052.17
8524.8
8906.02
7464.44
8209.92
9059.98
8037.38
9408.36
9525.11
9477.24
8779.69
9052.37
8875.79
9162.75
7618.2
7357.05
7389.86
7821.3
8068.86
7510.53
7259.55
9733.42
7599.46
7629
8901.12
8787.56
7831.86
8825.45
7740.89
1655.72
1636.86
2693.44
1547.02
1644.02
2011.16
2088.79
2040.76
1126.47
396.219
1332.43
801.483
652.755
692.305
962.219
896.66
3341.36
2199.54
3833.57
2788.54
2876.88
2867.96
3115.17
2917.82
1614.23
944.808
1888.57
1152.72
1578.22
1710.3
1594.61
1539.23
1611.18
2361.58
1733.86
1145.85
1643.07
2076.21
1386.21
1986.18
1579.39
1149.85
1580.8
2526.43
1492.54
1318.7
1869.38
1472.94
2763.12
1917.85
1250.32
2238.51
2469.55
1956.73
2160
1912.01
2663.94
2083.68
1085.74
1641.33
2386.07
2219.64
1689.24
1451.02
654.273
647.26
676.704
821.397
625.176
301.035
822.457
596.464
357.257
87.0122
114.052
494.745
303.782
63.7476
367.946
95.9837
735.364
171.302
492.532
696.699
602.059
395.353
793.758
441.08
1149.42
883.245
1016.4
1317.27
1095.77
997.465
1230.37
1110.06
605.69
704.169
1044.42
687.082
672.195
825.156
811.212
890.883
272.863
449.214
319.367
609.228
359.565
458.342
609.938
489.35
861.175
1164.47
746.414
937.135
963.137
926.966
859.625
1015.39
622.545
760.39
573.818
290.961
792.891
713.95
589.425
554.23
939.549
1046.39
1612.73
1443.73
778.646
1043.37
1431.22
1266.63
1041.15
913.719
1106.87
913.907
906.377
937.045
983.461
636.672
1856.37
1210.88
1502.3
1740.44
1779.3
1938.52
1922.38
1493.8
1586.96
1267.25
1717.8
1610.71
1325.2
1575.91
1614.66
1358.63
1122.34
1608.8
1366.2
1152.68
1159.6
1441.61
1233.96
1383.08
1196.58
1143.28
1515.54
1695.12
1123.48
1294.33
1392.9
1373.98
1974.36
1568.39
1288.14
1898.81
1709.93
1417.93
1710.4
1557.24
1584.57
1478.38
1011.02
1017.64
1643.27
1734.96
1290.93
1143.59
11037.2
10106.4
13533.8
10530.8
10746.7
12232.7
11767.3
12744
9428.97
6626.16
12717.7
9907.73
9983.53
11071.7
11166.4
11398.9
16206.1
14990.5
17302.4
14433.9
15455.1
15836.5
15356.4
15190
9273.54
8786.91
11079.8
7930.83
9013.56
9068
8709.73
8580.35
10271.7
13421.5
10467.1
9811.95
11565.2
12235.7
9959.43
10887.3
11903.9
10698
13956.6
13903
12164.1
11612
13189.6
12928.2
13767.1
10242.5
10122.3
12121
12813.5
11414.5
12161.1
10441.6
14972.8
12021.3
10580.3
14257.8
14081.6
12377.7
13481.6
12145.1
-43396.5
-12923.8
-8211.76
-53675.8
15470.1
-7084.85
-17743.6
-10887
-10301.1
-28591.3
-4085.18
3307.24
-28597.1
-17465.1
-17069.1
-14268.7
-3362.43
-5204.95
-3594.87
-8716.44
-7763.41
-4290.8
-4860.34
-4824.03
-825.867
92057
-4084.68
73890.6
86131.4
25557.4
36335.1
37390.7
33790.7
-8936.66
6977.97
177660
-30373.2
-7511.02
-41133.9
-21263.2
5301.72
-47367
-1359.36
-7642.5
4565
-21093.3
-6271.18
-4180.76
-6964.86
6851.88
30293.1
-12544.8
-16128.7
-28256.5
-12710.4
-10426.8
-6143.53
-9462.14
-97662.6
-4819.17
-13576
-10063
-6926.21
14769.3
442.602
542.774
590.864
1018.51
1031.45
556.059
1873.81
1243.87
693.531
382.269
511.967
301.484
723.574
548.104
501.416
355.885
105.522
291.471
82.3759
166.035
353.597
296.682
232.756
170.288
999.421
505.429
497.849
800.647
609.984
288.161
727.687
337.916
917.684
146.657
704.202
571.636
723.359
311.642
874.409
339.018
304.535
272.706
471.645
382.259
725.836
511.384
330.623
583.28
245.374
1091.67
304.34
275.257
417.494
599.612
474.634
469.524
254.66
192.298
265.709
171.77
442.774
376.172
338.887
332.446
3071.9
2548.51
2762.26
2757.69
2797.29
2638.81
2896.21
2675.37
1773.83
972.816
1093.08
1620.13
1769.63
1462.73
1833.39
1448.48
2540.76
1608.91
1863.79
2356.63
2379.07
2078.88
2520.55
2210.3
2577.27
2315.53
2560.66
2708.38
2689.54
2780.22
2619.28
2707.82
2215.46
2534.37
2642.23
2378.49
2313.96
2261.24
2261.64
2663.71
2070.26
2139.82
1766.62
2457.92
2148.41
1778.58
1697.57
2045.77
2673.51
2743.59
2475.3
2662.26
2687.05
2779.49
2585.18
2554.84
2441.93
2517.67
2156.61
1903.91
2142.99
2300.28
2259.95
1827.93
549.152
1543.15
2076.17
1990.48
1164.51
1527.65
1742.5
1782.58
2421.65
3323.97
3433.22
3306.73
2959.79
3326.05
3186.92
3411.26
2791.23
3629.61
3578.42
3262
3214.78
3677.69
3421.45
3667.85
2572.35
2766.28
2938.38
2130.51
2558.05
2960.14
2737.23
2852.59
2261.1
2184.09
2247.79
3082.87
2478.58
2178.01
2553.48
2340.4
2498.94
3184.16
3536.15
2537.8
2679.77
3004.68
2643.6
3072.16
2464.36
2708.74
3031.29
2943.96
2629.85
2707.93
3027.92
2734.98
2750.2
3302.06
3260.83
3612.3
3213.8
3285.53
3343.15
3282.36
3715.23
4564.1
3884.27
3523.13
3763.43
4175.13
3779.13
4009.88
5397.85
5829.24
5463.43
4837.7
4817.17
5677.31
5359.98
5411.86
4171.89
4635.2
3982.03
3576.15
4261.25
4074.82
4071.68
4165.98
3008.57
3378.85
3074.77
2327.95
3094.52
3279.47
2929.63
3088.83
4385.56
4028.7
3857.33
3856.48
4447.78
4038.06
3983.73
3828.34
5104.89
4775.6
5035.24
4394.81
4626.67
5000.14
4789.69
4685.37
4001.9
3472.63
4065.01
3560.43
3558.85
3783.66
3729.46
3569.28
4194.75
3731.03
3976.71
5121.02
4291.53
4175.12
4810.1
4171.46
15837.4
11850.2
10136.1
11009.8
13488.2
12793.1
12900.3
11804.7
8397.55
7062.98
4960.96
4167.58
6030.44
5529.82
4708.4
4725.34
2077.92
3191.59
2970.96
841.823
2581.08
4087.8
2579.74
898.636
7939.53
3898.96
2526.24
4113.63
3320.12
3389.97
3611.43
2829.82
9569.91
8460.75
9560.83
3884.56
8122.68
8684.49
7321.31
7357.4
8554.47
3359.52
3165.24
4139.88
7019.57
4445.35
4427.85
2469.73
6040.63
7956.16
3061.29
2811.11
4756.86
6478.23
1984.39
2817.55
2658.66
1837.6
3031.08
2244.54
1777.83
2865.16
1929.34
3175.94
-312.914
-1368.43
-2840.33
-1364.59
-279.569
-921.942
5.1201
-1286.42
2709.07
-22522.5
-140988
-6751.73
-6755.5
-96447.2
-1811.81
-67967.6
-37651.3
-185827
97089.8
-27274
-146772
-220960
65699
-106882
-5527.35
-10312.1
-17176.2
-4713.31
-6746.78
-14430.7
602.307
-15897.7
-2195.76
-6306.22
-3580.84
-8215.57
1769.11
1362.46
-907.478
-1025.5
-4255.37
-22560.5
-64297.7
-6931.44
-7202.93
-614.959
-24513.9
-8341.63
-11277.6
-3938.76
-8840.65
23574.9
1434.07
-3122.12
6318.92
-6482
-44351.9
19663.2
-31806.5
-112559
-78886.8
-22720.2
-15662.8
-45071.6
761.978
127.27
-292.935
350.507
65.3162
12.8683
317.977
-402.829
-403.982
-133.107
-674.48
-20.8506
-98.1278
-106.957
-125.376
-114.322
-1598.98
-3102.99
-4519.72
-2594.74
-2608.48
-2988.94
-2494.37
-3329.49
445.482
122.197
-647.251
796.817
401.566
207.561
870.573
-15.9397
27.8738
-580.012
39.2264
-167.991
350.677
-757.679
456.665
-124.262
47.3898
-850.654
-1889.07
-785.001
-271.658
-849.858
-166.464
-1426.69
-345.847
370.399
-211.689
-695.713
-374.411
-308.414
-494.121
-417.637
-1279.52
-1629.83
-817.729
-2611.9
-2269.25
-1235.35
-1606.67
-1402.42
49805
8325.29
-43961.1
43332.8
64096.2
-4726.52
5559.53
-35497.6
20946.8
31571
708.233
18457.7
24289.9
24811.4
31778.6
23999.9
-10851.9
1113.73
1759.29
22455.5
17514.5
5144.19
7613.67
-3739.25
2848.21
20365.5
30583.3
5983.29
2890.52
5613.74
12929.8
23500.8
13176.2
-3431.76
16949.7
6847.71
17352.2
-15526.7
15041.8
10343
15447.9
17314.8
36457.2
34517.1
4834.28
19977.1
6589.95
19417
-10303.8
18774.2
20889.5
23070.9
11327.3
36372.5
36914.2
10001.1
416.194
71101.5
65338.9
-22197
182.918
40069.5
30857.9
27651
5413.85
6579.27
5127.72
5332.8
5869.63
6081.02
5434.82
5782.1
6949.26
6994.07
6802.57
6528.08
6951.88
6994.35
6821.11
6923.02
5086
6250.46
4555.86
5126.57
5664.15
5893.25
5264.15
5557.16
4864.48
5475.69
4817.71
4431.97
5063.93
5319.28
4767.4
5198.07
6598.71
5816.38
5598.31
6224.28
6362.35
6067.73
6252.23
5727.8
6706.13
6324.34
6529.18
5902.68
6507.32
6413.58
6297.86
6486.99
5389.27
5334.47
5912.58
5255.35
5241.67
5450.56
5497.57
5422.43
5715.08
5436.75
6084.7
6294.52
5893.25
5656.14
6151
6084.6
-6155.11
-3112.62
-1959.94
-2590.68
-4153.81
-3335.27
-3459.61
-2980.32
-560.374
-501.686
-322.562
1622.59
-326.498
278.372
396.541
862.696
-782.41
-83.4961
606.986
-367.633
-409.33
104.042
-2.18066
43.6653
-700.486
3399.71
244.257
3158.23
654.856
1363.32
233.493
820.532
-2613.21
-1416.93
-1932.98
-16.4437
-2010.42
-2716.08
-1004.95
-1780.24
-1805.08
888.743
151.232
-1074.86
-1762.7
-1026.37
-1149.25
-693.669
-1305.42
-1652.51
932.33
-733.641
-1556.62
-1626.05
-795.482
-959.356
-1225.6
-973.649
1685.99
53.4257
-1191.29
-467.535
-551.218
301.592
18171.5
14194.5
14142.7
17482.2
15734.6
13432.8
16677.6
18446.4
13077.3
10883.7
13600.1
11023.5
10507.4
12984.9
14813.8
17184.8
17326.6
16912.1
15777.4
12395.1
20665.5
16875.9
21923.9
18860
19299.7
10818.2
9391.85
2706.25
18735.2
16349.1
13924.9
11981.5
14859.1
17407.6
18428.7
18751.4
17156.9
17230.8
18589.3
19488.9
15063.4
16349.5
15731.5
16159.2
17793.8
14263.4
14594.1
16771.7
17982
20171.2
20261.1
20092.6
17117.3
19958.3
20782.9
22383.4
18610.4
18944.1
18193.5
18003.7
17460.3
14295.9
18016.2
12951.4
8943.58
-2708.93
8300.51
2421.41
4512.68
4162.43
4368.18
5257.21
-4586.71
-5787.15
-5419.03
-4048.94
-5887.52
-6098.99
-6126.66
-5648.56
14877.3
-882.132
30814
18479.2
12718.9
13154.6
18953.5
20974.5
3122.24
-1108.5
10769.6
8577.69
255.57
-1430.98
5463.21
5488.76
-5165.22
6642.67
-160.836
-4226.08
-4612.99
-63.166
-4861.44
-1622.82