/*--------------------------------*- C++ -*----------------------------------*\
| =========                 |                                                 |
| \\      /  F ield         | OpenFOAM: The Open Source CFD Toolbox           |
|  \\    /   O peration     | Version:  2412                                  |
|   \\  /    A nd           | Website:  www.openfoam.com                      |
|    \\/     M anipulation  |                                                 |
\*---------------------------------------------------------------------------*/
FoamFile
{
    version     2.0;
    format      ascii;
    arch        "LSB;label=32;scalar=64";
    class       volScalarField;
    location    "10000";
    object      k;
}
// * * * * * * * * * * * * * * * * * * * * * * * * * * * * * * * * * * * * * //

dimensions      [0 2 -2 0 0 0 0];

internalField   nonuniform List<scalar> 
43136
(
0.00395501
0.00395745
0.00401216
0.00390124
0.00394518
0.00397681
0.00395924
0.00398192
0.00396754
0.00397031
0.0040199
0.00391127
0.00396113
0.00398914
0.00397574
0.00399432
0.0040669
0.00406685
0.00411009
0.00396709
0.00405783
0.00409171
0.00406289
0.00408779
0.00384732
0.00385366
0.00387901
0.00382441
0.0038416
0.00385847
0.00385231
0.00386269
0.00394643
0.00400333
0.00388387
0.00389189
0.00396048
0.00397896
0.00390114
0.00390696
0.00398131
0.00391586
0.0040409
0.00403932
0.00398131
0.00398569
0.0040133
0.00400433
0.00401028
0.00389463
0.00390094
0.00393417
0.00392811
0.0039111
0.00392616
0.00391059
0.00403801
0.00394844
0.00391684
0.00403487
0.0040328
0.0039452
0.00401306
0.00393591
0.0037885
0.00384055
0.00382496
0.00381994
0.00379967
0.00381829
0.0038099
0.00382308
0.00391123
0.00404128
0.00399245
0.00398357
0.00393763
0.00398174
0.00395993
0.00400385
0.00387859
0.00397206
0.00395322
0.00393029
0.0038988
0.00394675
0.00391722
0.00396184
0.0038535
0.00394094
0.00390724
0.00389148
0.00386903
0.0038938
0.00388186
0.00390295
0.00386105
0.00383913
0.00383301
0.00391232
0.00387586
0.00383747
0.00389121
0.00385337
0.00388919
0.00394146
0.00395882
0.00387391
0.00390212
0.00392263
0.00389361
0.00391507
0.00385453
0.00384421
0.00392705
0.00389739
0.00386555
0.00386195
0.00388102
0.00387766
0.00388408
0.00392652
0.00395567
0.00397618
0.00390021
0.00391499
0.00393389
0.0039518
0.00402592
0.00404406
0.00407405
0.00395545
0.00401712
0.00405431
0.00400097
0.00404579
0.00408764
0.00415641
0.00418881
0.00399625
0.00407796
0.0041681
0.00404947
0.0041562
0.00415428
0.00422333
0.0043013
0.00403609
0.00414824
0.00424047
0.00411782
0.00422571
0.00389446
0.00390361
0.00391807
0.00384556
0.00388532
0.00390903
0.00387418
0.00390105
0.00403134
0.00406611
0.00394334
0.00395979
0.00401096
0.00401921
0.00396921
0.00397144
0.00408783
0.00400042
0.00418707
0.00412536
0.00407897
0.00404859
0.00411717
0.00410228
0.00404395
0.00393055
0.00394185
0.00396125
0.00398842
0.00396438
0.00397767
0.00394537
0.00411554
0.00401044
0.00399332
0.0041715
0.00408246
0.00401977
0.00407257
0.00401185
0.018702
0.0180149
0.0177309
0.0107953
0.0172236
0.0180473
0.0166502
0.0171224
0.0169653
0.0159668
0.0164715
0.00945748
0.0151477
0.0161562
0.0147786
0.0154993
0.0175821
0.0171774
0.0170654
0.0103263
0.0165462
0.0174109
0.0158849
0.0164298
0.00544029
0.00595332
0.00676633
0.00426416
0.00507978
0.00631275
0.00520227
0.00612082
0.016354
0.0169753
0.00993471
0.0102405
0.0158381
0.0165067
0.0115697
0.010841
0.0171818
0.0101883
0.01724
0.0177944
0.0164166
0.016025
0.0173073
0.0163735
0.016468
0.00983616
0.0100399
0.0101479
0.0107482
0.0103386
0.0103004
0.0100571
0.0170038
0.0102728
0.00998005
0.0162695
0.01615
0.0103526
0.0157336
0.010124
0.0160609
0.0158923
0.0174952
0.00877915
0.0156338
0.0164862
0.0159763
0.0165338
0.0170106
0.0179424
0.0174447
0.00924506
0.0163043
0.0173355
0.0157048
0.0162849
0.0205462
0.0174983
0.0202234
0.0107579
0.0194477
0.0202061
0.0185954
0.0192739
0.0050701
0.00531276
0.00609544
0.00420733
0.00488979
0.00554699
0.00492019
0.0053705
0.0155781
0.0183458
0.0080509
0.00877827
0.0155555
0.0175926
0.00941486
0.00946457
0.0165262
0.00928694
0.0173234
0.0193141
0.0163013
0.0157744
0.0173141
0.016337
0.0183519
0.00801649
0.00900092
0.0107404
0.0100244
0.00897949
0.0107474
0.00978576
0.0197018
0.0108027
0.00914446
0.0162958
0.0187348
0.0107118
0.0157572
0.00919481
0.00414358
0.00410817
0.00417792
0.00398621
0.00411152
0.00414482
0.00412481
0.00413743
0.00405613
0.00400236
0.00409822
0.00393214
0.00401697
0.00404297
0.00403272
0.00405011
0.00420764
0.00419177
0.00428688
0.00402729
0.00415595
0.00423088
0.0041687
0.00423158
0.00389514
0.00386922
0.00391045
0.00383821
0.00387713
0.003889
0.00388425
0.00389398
0.00405737
0.00411938
0.00396605
0.00393698
0.00406929
0.00408695
0.00395778
0.00397862
0.00409655
0.00395519
0.00413947
0.00417302
0.0040883
0.00404955
0.00413146
0.00408625
0.00413103
0.00397487
0.00394889
0.00398855
0.00400186
0.00398254
0.00398028
0.00396078
0.00416344
0.00400558
0.0039611
0.00413965
0.00411977
0.0040022
0.00410142
0.00398022
0.00376313
0.00379927
0.00379134
0.00377557
0.00376858
0.00378282
0.00377326
0.00378548
0.0038668
0.00394695
0.00394599
0.00389842
0.00388455
0.00392801
0.0038957
0.00393525
0.0038501
0.00393441
0.00393152
0.00388367
0.00386651
0.00391142
0.00388195
0.00391747
0.00379291
0.00384486
0.00383462
0.00381389
0.00380228
0.00382033
0.00380967
0.00382373
0.00381201
0.00380237
0.00378366
0.00383414
0.00382121
0.00379474
0.00382201
0.00380111
0.00384327
0.00386712
0.00391621
0.00383152
0.00384798
0.0038618
0.00385313
0.00387019
0.00381029
0.00378998
0.00384328
0.0038312
0.00381088
0.00380442
0.00382171
0.00381431
0.00383636
0.0038546
0.00386854
0.00391904
0.00385011
0.00385177
0.0038812
0.00388398
0.00378895
0.003836
0.00383263
0.00381324
0.00379933
0.00381308
0.00380978
0.00382043
0.00390508
0.00401466
0.00398894
0.00396476
0.00393609
0.00395865
0.00395255
0.00397008
0.00388329
0.00395753
0.00394164
0.00390052
0.00389512
0.00391638
0.00390959
0.00392159
0.00383352
0.00390201
0.00386939
0.00384744
0.003842
0.00385935
0.00385099
0.00386167
0.003855
0.00384281
0.00382183
0.00389336
0.00386826
0.00383388
0.00387378
0.00383862
0.00387237
0.00391305
0.00392929
0.00386066
0.00388126
0.00389679
0.00389583
0.00390739
0.00385544
0.00383097
0.00390418
0.00387373
0.00385227
0.00384244
0.00386342
0.00385692
0.00386835
0.00388571
0.00391835
0.00393751
0.00388604
0.00388419
0.00392246
0.00392736
0.0177413
0.0182514
0.0184874
0.011
0.0165512
0.0186433
0.016093
0.0178939
0.0176668
0.0148796
0.0170537
0.0107789
0.0176477
0.0160666
0.0177337
0.0163767
0.0184204
0.0183194
0.0191334
0.0104664
0.0188912
0.0189917
0.0183641
0.0185375
0.00551877
0.00528364
0.0056747
0.00425007
0.00499725
0.00554452
0.00503492
0.00542237
0.0172465
0.0171061
0.0102045
0.00996236
0.0176975
0.0171551
0.0106074
0.0106722
0.0180554
0.0111695
0.0179782
0.0185706
0.0178942
0.0189541
0.0183419
0.0190445
0.0171214
0.0100702
0.00981394
0.00962899
0.0104906
0.0104275
0.00983985
0.00974053
0.0180346
0.0104405
0.0107947
0.017752
0.0185559
0.0107292
0.0185033
0.0108558
0.00376628
0.00376684
0.00376014
0.003799
0.00377712
0.00376553
0.00378212
0.00377716
0.00376685
0.0037649
0.00376217
0.00380036
0.00377729
0.0037649
0.00378588
0.00377869
0.00375639
0.00375729
0.0037538
0.00377721
0.00376265
0.00375629
0.00376505
0.00376145
0.00384763
0.00384356
0.00383043
0.00389747
0.00386332
0.00384873
0.00387363
0.00386563
0.00377813
0.00376885
0.00381758
0.00381839
0.00378741
0.00379324
0.00380122
0.0038048
0.00376581
0.00380556
0.00376117
0.00376043
0.00378145
0.00379556
0.00376196
0.0037711
0.0037734
0.00382649
0.00382716
0.00381014
0.00378937
0.00382084
0.00380391
0.00383743
0.00376949
0.00380371
0.00381908
0.00377057
0.00377958
0.00379084
0.00377633
0.00378815
0.00377557
0.00377239
0.00382096
0.00380282
0.00378496
0.00378339
0.00379431
0.00379382
0.003769
0.00377461
0.00382996
0.00379201
0.00377805
0.00378211
0.00378833
0.00379235
0.00388627
0.00390564
0.00398393
0.00395652
0.00392496
0.0039205
0.00394717
0.0039453
0.00382179
0.00381183
0.00389526
0.00383932
0.00382426
0.0038229
0.00383544
0.0038376
0.00377674
0.00383964
0.00380488
0.00379796
0.00378633
0.00379896
0.00379113
0.00380152
0.00377832
0.00380112
0.0038454
0.00383863
0.00378869
0.00379844
0.00382229
0.00384169
0.00385684
0.00381503
0.00380854
0.00389494
0.00386191
0.00381645
0.00387662
0.0038213
0.00385698
0.00389976
0.00381276
0.00386219
0.0038773
0.00388035
0.0038597
0.00386244
0.0037801
0.00382566
0.00378137
0.00382789
0.00379954
0.0038105
0.00380702
0.00382096
0.00387479
0.00393378
0.00386548
0.00395147
0.00390146
0.00391075
0.00391723
0.00393028
0.00377946
0.00381532
0.00377787
0.0038225
0.00379867
0.00380067
0.00380092
0.00380805
0.00389176
0.00396696
0.00388727
0.00400798
0.0039249
0.00393728
0.00393519
0.00395659
0.00384739
0.00380126
0.00385015
0.00391171
0.00386074
0.00383748
0.0038841
0.0038638
0.00385743
0.00392467
0.00384987
0.00380743
0.00387335
0.00389199
0.00382337
0.00384463
0.00380752
0.00386
0.00392513
0.00385726
0.00382794
0.00387645
0.00384925
0.00389654
0.00381615
0.00387192
0.00393953
0.0038605
0.00383184
0.00385981
0.0038544
0.00387726
0.00376798
0.00376544
0.00377036
0.00381697
0.00377928
0.00376889
0.00379707
0.00378709
0.00376509
0.00376504
0.0037649
0.0038099
0.0037762
0.00376762
0.00379081
0.00378209
0.00376933
0.0037633
0.00376751
0.00382297
0.0037814
0.00376645
0.0037983
0.00378076
0.00387568
0.00386972
0.00389205
0.00395824
0.00389135
0.00388134
0.00391826
0.00390667
0.00377682
0.00378298
0.00382953
0.00382416
0.0037931
0.00379814
0.00381191
0.00382043
0.00376798
0.00381584
0.00376545
0.0037691
0.00378471
0.00379522
0.00376645
0.00377854
0.00379968
0.00384981
0.0038439
0.00386088
0.00382452
0.00384109
0.00383865
0.00385391
0.00378739
0.00384274
0.00383456
0.00377913
0.00379751
0.00382245
0.00379135
0.00381383
0.0040509
0.00399991
0.00392971
0.0040344
0.0040218
0.0039766
0.00399225
0.00395286
0.00394822
0.0038891
0.00385452
0.00392582
0.00392825
0.00388466
0.00391499
0.00386816
0.00385064
0.00382232
0.00379269
0.00384027
0.00383642
0.00381651
0.00382479
0.00380338
0.00399591
0.00396114
0.00390282
0.00397784
0.00397474
0.00394399
0.00395384
0.00392346
0.0039798
0.00391468
0.00398779
0.00395819
0.00396176
0.00394028
0.00398041
0.00395909
0.00393155
0.00391695
0.00384814
0.00388406
0.00391263
0.00390162
0.0038946
0.00388216
0.00389733
0.00397138
0.00394156
0.00388331
0.00391663
0.00393726
0.0038993
0.00392354
0.00386719
0.00385615
0.00389881
0.00383366
0.00385678
0.00387282
0.00386935
0.00388372
0.00410981
0.00417457
0.00413685
0.00402152
0.0041027
0.00413377
0.0040676
0.0041105
0.00429445
0.00446371
0.00436754
0.00409734
0.00429118
0.00442113
0.00421287
0.00438788
0.00414039
0.00420281
0.00407596
0.00399664
0.00412863
0.00417069
0.00407335
0.00413142
0.00394336
0.00395598
0.00393159
0.00386996
0.00393087
0.00395412
0.00390602
0.00393666
0.00416494
0.00412427
0.00400765
0.00404337
0.0041199
0.00408104
0.00405983
0.00403019
0.00422548
0.00408073
0.00431752
0.00415981
0.00419801
0.00415531
0.00424263
0.00422765
0.00407974
0.00397881
0.00400794
0.00397708
0.0040249
0.00401192
0.00400921
0.00399066
0.00412656
0.00401198
0.00405765
0.0042726
0.00409414
0.00403447
0.00414571
0.00404014
0.00397485
0.00399271
0.00407206
0.00392147
0.00395681
0.00402176
0.00397542
0.00402124
0.00402631
0.00406408
0.00418665
0.00398176
0.00401025
0.00410989
0.00403499
0.00411014
0.00421466
0.0043515
0.00446001
0.00407728
0.004209
0.00438884
0.00423359
0.00436359
0.0038852
0.0039161
0.00394061
0.00385918
0.00388204
0.00391992
0.00389571
0.00392224
0.00397461
0.0040608
0.00391166
0.00394262
0.00399555
0.00402106
0.00394718
0.00395384
0.0040581
0.00399244
0.00426249
0.00415696
0.00405541
0.00405922
0.00410796
0.00410196
0.00408216
0.00392691
0.00395963
0.00399909
0.00398017
0.00395593
0.00398434
0.00396493
0.0041549
0.00404038
0.00399503
0.00425057
0.00415571
0.00403985
0.00412876
0.00402256
0.00409234
0.00399886
0.00410207
0.00407493
0.00407013
0.0040437
0.00409067
0.00407905
0.00392138
0.00385944
0.00393342
0.00389708
0.00390244
0.00388754
0.00391598
0.00390247
0.00410254
0.00400401
0.00405299
0.00404205
0.00407399
0.0040471
0.00406436
0.00403881
0.00404863
0.00395197
0.00405018
0.00402579
0.0040227
0.0039958
0.00403098
0.00401298
0.00397988
0.00407865
0.00404923
0.00395445
0.00399838
0.00404386
0.00397294
0.0040208
0.00395877
0.00393323
0.0039656
0.00405009
0.00398275
0.00395385
0.00400399
0.00398712
0.00409638
0.0040708
0.00396717
0.00405689
0.00407768
0.00405559
0.00405604
0.0040181
0.00408373
0.00402676
0.00395175
0.00398035
0.00404511
0.00402834
0.00399856
0.00398696
0.0167652
0.0159191
0.00675522
0.00643134
0.0163888
0.0166466
0.00906689
0.0104497
0.0151156
0.0143855
0.00794508
0.00834284
0.0148966
0.0147358
0.0115226
0.0117643
0.00440352
0.00456621
0.00402475
0.00403142
0.00445921
0.00449666
0.00407433
0.00412327
0.00438692
0.00472058
0.0040391
0.00408197
0.00447082
0.00451456
0.00411614
0.00418188
0.015619
0.00701729
0.00681291
0.00796314
0.0109776
0.0102035
0.00768998
0.00711051
0.0153878
0.00808242
0.00779829
0.00712112
0.0114299
0.0111436
0.00760398
0.00759795
0.00474358
0.00480192
0.00544988
0.00409133
0.00434624
0.00515812
0.0044693
0.00516331
0.00494311
0.00415085
0.00574463
0.00523205
0.00496676
0.00451571
0.00509357
0.00464907
0.0161124
0.0145792
0.00930186
0.00866168
0.0154007
0.0148141
0.010338
0.0107499
0.0134799
0.0126349
0.00927107
0.00996887
0.0129766
0.0126593
0.0102517
0.0101387
0.00518509
0.00575823
0.00412635
0.00419204
0.0053858
0.00541262
0.00426114
0.00441243
0.00469322
0.00517547
0.00417524
0.0041706
0.00477854
0.00481337
0.00422219
0.0043272
0.0140152
0.00965129
0.00902732
0.00978982
0.0106067
0.010574
0.00979355
0.00938887
0.0136463
0.00980938
0.00926321
0.00950335
0.010604
0.0104074
0.00948108
0.00938093
0.00608789
0.00525679
0.00622028
0.00422914
0.00481021
0.00582259
0.00489494
0.00578523
0.00707092
0.00431629
0.00665319
0.00878532
0.007754
0.0049972
0.00836437
0.00529652
0.0165797
0.00651736
0.0131583
0.0071659
0.012842
0.0133878
0.0129361
0.013014
0.00427443
0.00400166
0.00444939
0.00401297
0.00415358
0.00420336
0.00428446
0.00424179
0.0126487
0.00837373
0.0120262
0.00839234
0.0120945
0.0120394
0.0119046
0.0117579
0.00463506
0.004044
0.00468339
0.00407478
0.00440768
0.00446138
0.00453389
0.00450639
0.00552349
0.0126238
0.00621636
0.00433713
0.00644164
0.0125459
0.00457703
0.00704251
0.00592164
0.00442238
0.00745549
0.012702
0.00624284
0.00619001
0.00726214
0.0068378
0.0125117
0.00679958
0.00456336
0.00792895
0.00778274
0.00712453
0.0076366
0.00705702
0.0123729
0.0081914
0.00449509
0.00758604
0.0119618
0.00834548
0.00767581
0.00479736
0.00377959
0.00382324
0.00377748
0.00382273
0.00380066
0.00380937
0.00380937
0.00381851
0.0038673
0.00391771
0.00384494
0.00392471
0.00389375
0.00389843
0.00390305
0.00390751
0.00376791
0.00378933
0.00376096
0.00379558
0.00378072
0.00377698
0.0037817
0.00377899
0.0038736
0.00393077
0.00385991
0.00393518
0.00390014
0.00391115
0.00391382
0.00392108
0.00384645
0.00379753
0.0038458
0.00390193
0.00385769
0.00383189
0.00387701
0.003858
0.00385189
0.00390332
0.00382836
0.00379172
0.00386244
0.00387525
0.00380833
0.00382994
0.00379491
0.00385712
0.00390751
0.00384149
0.00381186
0.00386545
0.00383422
0.00387893
0.00379595
0.00383703
0.00391229
0.00382768
0.00380476
0.00383107
0.0038271
0.00384742
0.00515618
0.00466297
0.00715938
0.00476941
0.00498412
0.00497671
0.0049441
0.00500409
0.00448985
0.00415992
0.00587029
0.00423613
0.00444848
0.00460109
0.00438106
0.00457802
0.00947504
0.00901744
0.0118467
0.00983098
0.00966871
0.00948579
0.00996101
0.00987204
0.0044667
0.00422095
0.00532467
0.00421266
0.00439941
0.00448993
0.00434356
0.00448885
0.00464189
0.00671641
0.00468853
0.00436593
0.00456233
0.00487065
0.00440776
0.00474856
0.00489382
0.00442657
0.0095962
0.00750888
0.00489947
0.00468332
0.00717103
0.00713198
0.00662692
0.00462793
0.0043151
0.00579169
0.00628239
0.00476864
0.00603562
0.00462047
0.0072981
0.00696205
0.00442128
0.00911577
0.00702582
0.00667854
0.00658545
0.00538763
0.00401145
0.00398901
0.00392865
0.00400616
0.00399738
0.00397384
0.00397074
0.0039495
0.0039177
0.003848
0.00382465
0.00388262
0.00387308
0.00384377
0.00386462
0.00383121
0.00384554
0.00380434
0.00378459
0.00382805
0.00381737
0.00380015
0.0038094
0.00378873
0.00400712
0.00393699
0.00389541
0.0039953
0.00396771
0.00393006
0.00395166
0.00391224
0.00394735
0.00390004
0.00398768
0.00391617
0.00393455
0.00392299
0.00396924
0.00395769
0.00391204
0.00388179
0.00382147
0.00387333
0.00389291
0.00386181
0.00388141
0.00384737
0.00388547
0.00396599
0.00390569
0.00386692
0.00391877
0.00393665
0.00387931
0.00390035
0.00385465
0.00383931
0.00386811
0.00380978
0.00383134
0.00385382
0.00383797
0.00385682
0.00378064
0.00380373
0.00382913
0.00382392
0.00378959
0.00379828
0.00381097
0.00381547
0.00382999
0.00385976
0.00389829
0.00389917
0.00384306
0.00385682
0.00387139
0.00388111
0.00389957
0.00394511
0.00400492
0.00397803
0.00391841
0.00393913
0.00397477
0.00398706
0.00388697
0.00393509
0.00396315
0.0039592
0.00390679
0.00392598
0.00394482
0.00395819
0.00381532
0.00384375
0.00384002
0.00387908
0.00384026
0.00383037
0.00386176
0.00385457
0.00382556
0.00389434
0.00389454
0.00385912
0.00384699
0.00386078
0.0038648
0.00387876
0.00387828
0.0038708
0.00391075
0.00395275
0.00389223
0.00388097
0.00390994
0.00389884
0.00388831
0.00396565
0.00392206
0.00392634
0.00390623
0.00392967
0.003916
0.00393952
0.0130426
0.0163522
0.0115168
0.00772865
0.0120493
0.0136202
0.00921305
0.0106112
0.0248856
0.0692171
0.102292
0.0124863
0.0217314
0.0686194
0.0148834
0.0613726
0.0146953
0.049198
0.0276332
0.0114435
0.0143806
0.0295119
0.0127961
0.0208907
0.00568186
0.00750699
0.00682339
0.00455787
0.00559097
0.0068811
0.00488468
0.00604203
0.0147886
0.0109324
0.00751433
0.0092451
0.0107632
0.0106962
0.00949955
0.00891836
0.0193461
0.011595
0.0635734
0.0140382
0.0139797
0.0147199
0.0168379
0.0162693
0.00907028
0.00649822
0.00871074
0.00778987
0.00833522
0.00755947
0.00829129
0.00808644
0.0122856
0.0098794
0.0104576
0.032803
0.0131817
0.0110347
0.0136283
0.0120366
0.0286461
0.0492221
0.047977
0.0111557
0.0298824
0.0494238
0.0332648
0.0471649
0.092687
0.0707127
0.0473867
0.0126233
0.0637658
0.0740328
0.0543281
0.0567517
0.0431561
0.0303442
0.0218679
0.010174
0.0323835
0.0297596
0.025891
0.0232818
0.0068495
0.00775343
0.00804016
0.00466677
0.00665644
0.00785024
0.00679506
0.00762097
0.0489213
0.0491731
0.0103733
0.0108842
0.0505591
0.0460294
0.0117302
0.0117826
0.0910957
0.01252
0.0472213
0.0618659
0.0721239
0.0487044
0.0628743
0.047081
0.0438092
0.0101628
0.0105783
0.0100447
0.0108987
0.0110365
0.0103806
0.0102716
0.0493841
0.010337
0.0114804
0.0354434
0.0341004
0.0111949
0.0381642
0.0112672
0.0130715
0.0161009
0.0122696
0.00726418
0.0122227
0.014163
0.00927124
0.011159
0.0258271
0.0312347
0.0673682
0.0520626
0.0226578
0.0311953
0.0174626
0.0418933
0.0172457
0.0540342
0.0327182
2.1208
0.02694
0.0424079
0.0759253
0.0494496
0.00517943
0.0549594
0.189649
0.0046028
0.00629015
0.0475327
0.00642035
0.100672
0.0146009
0.0115333
0.00702981
0.0288464
0.0118349
0.0113714
0.0110783
0.0095806
0.0215796
0.0591198
0.0548665
0.0159766
0.0157838
0.0174196
0.0192443
0.0199694
0.00957263
0.00586231
0.0739633
0.318382
0.011104
0.0100132
0.111199
0.057924
0.0136533
2.8172
0.234026
0.0385056
0.0214019
0.333407
0.0238696
0.338637
0.0319292
0.0506648
0.17618
1.86618
0.0469219
0.047317
0.356111
0.239422
0.0619963
0.0411931
0.176748
0.318584
0.0536746
0.0540353
0.158141
0.119297
0.227616
0.324336
0.191024
0.579901
0.315795
0.309093
0.253988
0.270148
0.307367
0.114988
0.122929
0.00575937
0.173192
0.200965
0.102287
0.132151
0.0506583
0.306895
2.03945
0.821405
0.335486
0.4653
1.22201
1.94262
0.0526873
0.782848
0.262642
0.299255
0.226293
0.276609
0.251058
0.264961
0.339314
1.87332
0.969398
0.799394
1.41825
1.82773
1.39117
1.51298
0.313941
0.931481
0.891966
0.341319
0.436808
1.31133
0.405311
0.999395
0.0172816
0.0184633
0.0124822
0.00854592
0.0155286
0.0165981
0.010568
0.0116979
0.0274037
0.0428204
0.12075
0.0152187
0.0242435
0.0418468
0.0181688
0.0766943
0.0174948
0.0683198
0.0360863
0.015157
0.0176123
0.0430362
0.0161682
0.0282911
0.00590389
0.00839613
0.00786844
0.00463205
0.00578288
0.00765968
0.00500584
0.00675847
0.0162355
0.0122113
0.00819979
0.0106263
0.0121052
0.0118946
0.0108319
0.010128
0.0238343
0.0140442
0.0916027
0.0174216
0.0172826
0.0182016
0.0215238
0.020501
0.0111422
0.00697604
0.0102749
0.00926499
0.00972781
0.00867262
0.0099078
0.00946695
0.0153526
0.0128656
0.0131215
0.0468008
0.0164952
0.013958
0.0172211
0.0152531
0.0383949
0.0692557
0.0625017
0.0147485
0.0417136
0.0686068
0.0465234
0.0632053
0.104262
0.04332
0.039244
0.0154169
0.0727275
0.0501376
0.0570397
0.0423862
0.0477328
0.030296
0.0237034
0.01214
0.0336888
0.0299577
0.0278595
0.0250928
0.00778874
0.00865388
0.0086586
0.00474489
0.00740159
0.00877558
0.00756748
0.00843666
0.0636057
0.0601448
0.0133374
0.0135702
0.0632777
0.0578617
0.0147256
0.0147368
0.108279
0.0152604
0.0418926
0.0715273
0.0825009
0.0516093
0.0696277
0.0485126
0.0533131
0.0131563
0.0133252
0.0123043
0.0137094
0.0138722
0.0130527
0.0130487
0.055391
0.0125368
0.0141061
0.0343352
0.0360018
0.0135715
0.0394599
0.0136933
0.0160122
0.0139598
0.0179935
0.0109921
0.013217
0.0163059
0.0131498
0.015374
0.0173565
0.030678
0.0473993
0.0138964
0.0166061
0.0336543
0.0167046
0.0294665
0.0231557
0.0647979
0.0351095
0.0162196
0.0202705
0.0449931
0.019839
0.0372487
0.00796439
0.00836874
0.0101159
0.00540797
0.00683877
0.00910646
0.00701089
0.00871989
0.0125866
0.0156675
0.01003
0.0101089
0.0127399
0.0141559
0.0106736
0.0114543
0.0175199
0.0145564
0.0600882
0.0214836
0.0164336
0.0163395
0.0189954
0.0178844
0.015425
0.0102242
0.0107862
0.0118735
0.0121528
0.0111593
0.0116924
0.0109158
0.0199744
0.0146069
0.0137785
0.048495
0.0187378
0.0152751
0.017634
0.0148196
0.0209906
0.0248554
0.0312775
0.0137366
0.0211463
0.0244759
0.021394
0.0243062
0.0311002
0.0360975
0.0567783
0.0169227
0.0343359
0.0446485
0.0337479
0.0388583
0.0469552
0.0495671
0.0328199
0.0140705
0.0475092
0.0496927
0.0368915
0.0353335
0.0120632
0.0118506
0.00900346
0.00579059
0.0118406
0.0121549
0.00980743
0.00973836
0.0268344
0.0352624
0.0145239
0.0161095
0.0267177
0.0249407
0.0154435
0.015273
0.0316952
0.0167168
0.0634213
0.0440487
0.0305309
0.0311357
0.0435112
0.0505509
0.0378616
0.0141475
0.014918
0.0135317
0.0144388
0.01458
0.0144675
0.0146089
0.0448287
0.013898
0.0150284
0.0522344
0.0470227
0.0148374
0.0496799
0.0149551
0.00849517
0.00765865
0.00965378
0.00660272
0.00870629
0.00891075
0.00874612
0.0092005
0.00489582
0.00406669
0.00518362
0.00411011
0.00481248
0.0048227
0.0048082
0.00488991
0.0107505
0.00996981
0.0113639
0.0084516
0.0106877
0.0109417
0.010706
0.0113348
0.00438679
0.0040334
0.00441335
0.00405921
0.00431804
0.00433307
0.00430016
0.00430309
0.00768043
0.00976047
0.00657207
0.0048967
0.00765958
0.00892136
0.0049764
0.0067553
0.00785325
0.0049498
0.00923894
0.00989802
0.00830357
0.00783074
0.00895878
0.00897605
0.00982014
0.0064958
0.00486328
0.00729467
0.00741461
0.00693581
0.00741561
0.0066109
0.0102477
0.00789997
0.00498601
0.00971067
0.00982773
0.00762264
0.00882307
0.00526023
0.00410755
0.00411646
0.00417863
0.00409258
0.00411362
0.00413861
0.00413228
0.00415713
0.00411952
0.00409057
0.00423599
0.00412259
0.00410174
0.0041266
0.00414295
0.00419038
0.00424297
0.00435293
0.00443761
0.00436088
0.00426637
0.00434623
0.00430579
0.00439364
0.00406778
0.00413985
0.00429571
0.00412827
0.00406336
0.00411559
0.00410032
0.00421977
0.00412044
0.00417682
0.00409643
0.00407954
0.00413748
0.00415002
0.00409164
0.00412042
0.00414789
0.00412164
0.00425151
0.00420487
0.00416429
0.00415052
0.00418325
0.00418884
0.00419509
0.0041149
0.00411685
0.00420713
0.00417148
0.00414247
0.00416594
0.00414199
0.00422122
0.00429472
0.00418977
0.00430655
0.00423915
0.00423692
0.00423447
0.0042591
0.0225139
0.021194
0.0236587
0.0140021
0.0220046
0.0231942
0.02145
0.0223385
0.0193192
0.0193285
0.0195052
0.0128189
0.0178462
0.0189413
0.0170859
0.0177219
0.0211716
0.0200242
0.0199804
0.0132722
0.0202149
0.0202181
0.0193203
0.0194436
0.00596469
0.00535565
0.00513132
0.00411862
0.00534948
0.00574258
0.00485416
0.0048544
0.0197439
0.0229271
0.014322
0.012496
0.0191969
0.0222
0.0131292
0.014763
0.0209229
0.0126205
0.0196668
0.0233263
0.0198027
0.0193003
0.0211921
0.0198776
0.0217575
0.0142123
0.012047
0.0131416
0.015122
0.0144899
0.0143415
0.0140543
0.0224083
0.0123013
0.0119175
0.0186846
0.0224171
0.0135385
0.0194618
0.0129215
0.00410093
0.00408309
0.00401353
0.00407084
0.00407671
0.00407254
0.00406428
0.00404732
0.00406189
0.00402703
0.00396494
0.00400236
0.00404084
0.00402996
0.00402251
0.003997
0.00393662
0.00391113
0.00387139
0.00391301
0.0039187
0.00390515
0.00390893
0.00388776
0.00403105
0.00398513
0.00395523
0.00398325
0.00400684
0.00399577
0.00399518
0.00397238
0.00405863
0.00399296
0.00404727
0.00401524
0.00404637
0.0040412
0.00403843
0.00403879
0.00405409
0.00400474
0.00395456
0.00397836
0.00402314
0.00401502
0.00399045
0.00397026
0.00398048
0.00403629
0.00400122
0.0039551
0.00398802
0.0040152
0.00396812
0.0040053
0.0039623
0.00392999
0.00397696
0.00393345
0.00395579
0.00395318
0.00395754
0.00395642
0.00379973
0.00391677
0.00385818
0.00385832
0.00381311
0.00383015
0.00383137
0.00384303
0.00468446
0.0166192
0.00922357
0.00756712
0.00567293
0.0105704
0.00628989
0.00965907
0.00395591
0.00492742
0.00408275
0.00414289
0.0040094
0.00406406
0.00405005
0.00408813
0.00395177
0.00454093
0.00412191
0.00411322
0.00399984
0.00409354
0.00404115
0.00409724
0.00400206
0.00387902
0.00388114
0.0044496
0.00407466
0.0038735
0.00426403
0.00393053
0.00424343
0.0047143
0.00547824
0.00393292
0.00425056
0.00452233
0.00427993
0.00442055
0.00390272
0.00390663
0.00451607
0.00404305
0.0039525
0.00394092
0.00400246
0.00401635
0.00394202
0.00412082
0.00467722
0.00516697
0.0040275
0.00411081
0.00450381
0.00466176
0.0185339
0.0172238
0.0186406
0.0104695
0.0172857
0.0183845
0.0164086
0.0174839
0.0169071
0.0168192
0.0172951
0.0113224
0.0156178
0.0168352
0.0149639
0.0156866
0.0184041
0.0174235
0.0183387
0.0106292
0.0176381
0.0180892
0.0170579
0.0171402
0.00681784
0.00573023
0.00582342
0.00409416
0.00619739
0.00630655
0.00565177
0.00553198
0.015907
0.0179153
0.0103742
0.0112805
0.0151884
0.0168492
0.011084
0.0104611
0.0170711
0.0114235
0.0172439
0.0186365
0.0159676
0.0154217
0.0172987
0.0162363
0.0171891
0.0104993
0.0113143
0.0102973
0.0105899
0.0104963
0.010488
0.0105006
0.0178337
0.0103051
0.0113613
0.0160634
0.0170849
0.0109156
0.0156073
0.0119207
0.0155483
0.0164047
0.0172242
0.00959145
0.0134572
0.0173393
0.0128262
0.0163417
0.0171119
0.0184904
0.0194083
0.00921857
0.0163414
0.0192538
0.0161082
0.0184343
0.0173668
0.0197894
0.019716
0.00946416
0.0172463
0.020294
0.0163649
0.0190097
0.00535709
0.0052026
0.00585073
0.00410639
0.00478744
0.0056042
0.00483848
0.00556002
0.0145237
0.0140379
0.0093251
0.00931679
0.0147369
0.0140807
0.00967236
0.00968942
0.0176437
0.00969197
0.0201536
0.0180581
0.0173629
0.0173957
0.0179772
0.017668
0.0137724
0.00920913
0.00940877
0.00896727
0.00943938
0.00943398
0.00915895
0.00925662
0.0170996
0.00948622
0.00955856
0.0191034
0.0166961
0.00971889
0.0168815
0.00969402
0.0177223
0.0201832
0.0183466
0.011299
0.0151209
0.0192318
0.0151185
0.0186691
0.0243247
0.0269494
0.025042
0.0192714
0.0303856
0.0262986
0.029498
0.0246903
0.0193547
0.0232054
0.021036
0.0134037
0.0190641
0.0221242
0.0183581
0.0208833
0.0048815
0.00604499
0.00460602
0.00406533
0.00452916
0.00544209
0.00433264
0.00461916
0.0235044
0.0175364
0.0130675
0.0213043
0.0233138
0.0225627
0.0173139
0.0162956
0.0236292
0.0191242
0.0241787
0.0203538
0.0224123
0.0305811
0.0210941
0.0251876
0.0168371
0.0107388
0.0207579
0.00917231
0.0132082
0.0148898
0.0117761
0.0179599
0.0195129
0.0134944
0.017402
0.0226271
0.0251438
0.0167113
0.0244666
0.0175843
0.0081166
0.00691569
0.00735845
0.00646719
0.00786328
0.00722245
0.00795127
0.00717894
0.00539359
0.00444115
0.00439448
0.00443824
0.00465211
0.00447579
0.0046041
0.00439719
0.00486967
0.00431021
0.00407409
0.00414868
0.00465745
0.00431694
0.0046522
0.00420725
0.00442707
0.00424942
0.00407349
0.00408504
0.00432397
0.00423699
0.00428494
0.00415109
0.00610169
0.00685142
0.0059104
0.00459407
0.00606603
0.00636605
0.00520067
0.00530103
0.00554745
0.00447068
0.00442436
0.00552841
0.00538093
0.00463871
0.00535503
0.00464092
0.00688332
0.00592659
0.00454242
0.00469918
0.00499943
0.00512338
0.00471558
0.00460428
0.00522241
0.00428862
0.00439937
0.00434299
0.004627
0.004409
0.00459063
0.00438784
0.0148145
0.0163273
0.0157033
0.00981815
0.0137603
0.0156841
0.0136707
0.0153382
0.0181052
0.0199518
0.0195817
0.0106342
0.0171721
0.0192298
0.0169891
0.018797
0.0167948
0.0193334
0.0191095
0.00868738
0.0152122
0.0187812
0.0153061
0.0186424
0.00456189
0.00473974
0.00431318
0.00405121
0.00435346
0.00457673
0.00423249
0.00437022
0.0159285
0.0146094
0.00950001
0.00941794
0.0158692
0.0160876
0.00993862
0.00953168
0.01745
0.0101589
0.0190436
0.0166385
0.016876
0.0171341
0.0172539
0.0164423
0.0143848
0.00765741
0.00894098
0.00643227
0.00885941
0.00891568
0.00733197
0.00849229
0.0162071
0.00861029
0.00979454
0.0187695
0.0164473
0.0093325
0.0165236
0.00999107
0.00377111
0.00381506
0.00377759
0.0038125
0.00380534
0.00380299
0.00379808
0.00379933
0.00388134
0.00398005
0.00390354
0.00396387
0.00396293
0.00395244
0.00394503
0.0039344
0.00378075
0.00383664
0.00378231
0.00382926
0.0038236
0.00381711
0.00381182
0.00380489
0.00387349
0.00394472
0.00388221
0.00394595
0.00393023
0.00391814
0.00391721
0.00390806
0.00386764
0.00381788
0.00385923
0.00393971
0.00385683
0.0038273
0.00387475
0.00385215
0.00386146
0.0039306
0.00387891
0.0038126
0.00385338
0.0039025
0.00382832
0.0038864
0.00380933
0.0038541
0.00392468
0.00386082
0.00382589
0.00384931
0.00387272
0.00388741
0.00380366
0.00385296
0.00391448
0.00386279
0.00383397
0.00386231
0.00387065
0.00388773
0.00484395
0.00447385
0.00601269
0.00470624
0.0048291
0.00474945
0.0048977
0.00500078
0.00423637