/*--------------------------------*- C++ -*----------------------------------*\
| =========                 |                                                 |
| \\      /  F ield         | OpenFOAM: The Open Source CFD Toolbox           |
|  \\    /   O peration     | Version:  2412                                  |
|   \\  /    A nd           | Website:  www.openfoam.com                      |
|    \\/     M anipulation  |                                                 |
\*---------------------------------------------------------------------------*/
FoamFile
{
    version     2.0;
    format      ascii;
    arch        "LSB;label=32;scalar=64";
    class       volScalarField;
    location    "10000";
    object      nut;
}
// * * * * * * * * * * * * * * * * * * * * * * * * * * * * * * * * * * * * * //

dimensions      [0 2 -1 0 0 0 0];

internalField   nonuniform List<scalar> 
43136
(
2.7307e-05
2.8453e-05
2.83461e-05
5.86317e-05
3.66382e-05
3.02717e-05
4.68019e-05
4.14623e-05
3.20222e-05
2.75509e-05
3.38583e-05
7.80924e-05
3.63143e-05
3.4683e-05
4.44419e-05
5.06924e-05
4.13698e-05
3.06915e-05
6.23546e-05
5.81457e-05
5.05085e-05
4.34777e-05
5.54024e-05
5.75503e-05
8.36855e-05
0.000118921
6.47567e-05
9.37023e-05
7.02187e-05
7.77999e-05
6.89206e-05
7.70289e-05
5.17848e-05
5.22554e-05
4.86778e-05
5.95284e-05
4.64314e-05
7.54288e-05
6.07311e-05
5.19832e-05
3.26108e-05
5.06824e-05
4.00434e-05
3.53365e-05
5.94437e-05
6.64249e-05
3.37131e-05
7.47424e-05
5.51781e-05
5.92355e-05
6.43659e-05
6.42714e-05
6.70725e-05
5.91782e-05
6.97604e-05
9.67668e-05
4.84775e-05
6.7714e-05
6.7284e-05
7.31956e-05
7.05734e-05
6.78452e-05
5.56128e-05
4.83638e-05
8.1806e-05
5.0281e-05
8.60672e-05
7.93495e-05
0.000111796
8.22945e-05
8.58547e-05
0.000127643
3.65169e-05
2.8322e-05
4.02505e-05
4.31658e-05
3.17093e-05
2.38468e-05
2.47626e-05
3.3045e-05
6.34065e-05
4.58963e-05
4.71306e-05
5.97742e-05
3.79095e-05
3.35651e-05
3.67132e-05
3.70302e-05
7.53077e-05
5.8157e-05
6.8169e-05
6.72675e-05
7.44333e-05
5.04961e-05
5.97978e-05
7.88032e-05
5.57151e-05
7.3398e-05
8.93125e-05
5.32249e-05
3.84284e-05
7.4737e-05
5.68553e-05
4.98631e-05
4.39445e-05
3.47567e-05
3.34586e-05
5.72391e-05
5.79511e-05
4.89652e-05
5.86997e-05
4.34141e-05
6.2175e-05
6.98209e-05
3.88468e-05
4.98748e-05
7.53447e-05
8.43429e-05
6.76097e-05
6.99844e-05
6.37305e-05
6.25901e-05
5.53107e-05
4.10729e-05
6.62702e-05
4.17421e-05
3.09729e-05
5.18711e-05
9.00197e-05
6.73702e-05
6.24883e-05
7.31413e-05
6.16432e-05
5.83975e-05
4.79534e-05
5.14046e-05
6.63408e-05
5.87363e-05
5.46029e-05
7.39159e-05
5.90836e-05
4.54563e-05
6.51892e-05
4.3796e-05
5.67678e-05
5.49823e-05
4.65449e-05
6.40193e-05
4.61524e-05
3.632e-05
4.00994e-05
4.52532e-05
8.67301e-05
9.66001e-05
7.91472e-05
9.16192e-05
8.56862e-05
7.1108e-05
5.63487e-05
7.38619e-05
6.48971e-05
5.47799e-05
7.44424e-05
5.56309e-05
7.34851e-05
7.38209e-05
8.03677e-05
8.17712e-05
5.85025e-05
7.68999e-05
3.64513e-05
5.19199e-05
5.25397e-05
9.85461e-05
5.61947e-05
4.68473e-05
5.62414e-05
4.75391e-05
4.40384e-05
5.18727e-05
6.86383e-05
8.39349e-05
6.67009e-05
7.31165e-05
4.75672e-05
6.89253e-05
5.83736e-05
5.10428e-05
7.36173e-05
6.15279e-05
5.17792e-05
8.40276e-05
2.09377e-06
2.04273e-06
3.24298e-06
8.56028e-06
7.01078e-06
4.27387e-06
7.01859e-06
7.92655e-06
1.88972e-06
1.57698e-06
2.32118e-06
8.36159e-06
7.52738e-06
4.78891e-06
7.58248e-06
7.84484e-06
3.26857e-06
2.54313e-06
3.2278e-06
9.12129e-06
8.53984e-06
4.76794e-06
8.52471e-06
8.52142e-06
6.05927e-06
4.98946e-06
1.41097e-05
1.57004e-05
3.25971e-06
6.96014e-06
6.68302e-06
7.97637e-06
7.57331e-06
8.28385e-06
9.1599e-06
8.98112e-06
7.59292e-06
7.9219e-06
8.76972e-06
8.85612e-06
4.95199e-06
8.74965e-06
4.68686e-06
4.606e-06
8.06065e-06
8.11226e-06
2.83903e-06
8.28785e-06
8.30358e-06
9.26177e-06
9.02369e-06
9.13575e-06
9.00973e-06
9.01336e-06
9.05822e-06
9.04137e-06
8.53361e-06
9.13359e-06
8.85348e-06
8.37679e-06
8.48619e-06
8.99931e-06
8.28462e-06
8.84345e-06
1.56508e-06
1.54374e-06
2.89201e-06
9.22538e-06
4.18559e-06
4.44529e-06
7.59679e-06
6.67087e-06
1.77537e-06
1.85353e-06
1.73121e-06
1.10456e-05
8.24067e-06
4.57964e-06
8.24601e-06
8.37964e-06
3.3705e-06
1.81905e-06
2.44794e-06
1.21344e-05
9.40559e-06
4.47029e-06
9.42641e-06
9.62357e-06
9.92566e-06
6.59678e-06
6.34281e-06
1.0111e-05
4.33675e-06
7.48018e-06
1.14404e-05
6.20276e-06
7.79425e-06
3.83357e-06
1.04715e-05
1.13166e-05
7.95809e-06
8.40768e-06
6.41618e-06
1.0632e-05
5.4777e-06
1.10757e-05
4.36311e-06
3.07558e-06
7.08306e-06
8.19113e-06
2.40191e-06
8.35341e-06
8.51227e-06
1.06185e-05
1.16098e-05
1.19718e-05
1.06531e-05
1.07613e-05
1.17858e-05
1.16818e-05
5.04946e-06
1.20959e-05
1.13456e-05
8.44744e-06
8.90418e-06
1.19191e-05
8.39382e-06
1.14031e-05
7.44819e-05
4.17128e-05
5.99956e-05
6.76841e-05
4.36097e-05
5.84576e-05
4.45891e-05
5.98128e-05
4.07213e-05
2.37835e-05
2.86573e-05
4.64087e-05
6.08873e-05
3.44095e-05
4.09309e-05
4.19264e-05
5.27111e-05
3.2266e-05
3.55744e-05
6.26303e-05
4.33755e-05
4.10696e-05
4.72155e-05
4.00653e-05
7.06907e-05
6.98671e-05
7.10669e-05
7.05574e-05
8.10669e-05
5.60087e-05
7.80957e-05
7.73222e-05
7.33535e-05
4.94256e-05
6.08753e-05
6.01295e-05
4.69948e-05
7.2313e-05
4.9235e-05
6.09636e-05
4.46955e-05
4.39054e-05
3.62395e-05
5.18557e-05
6.09932e-05
6.86087e-05
3.69292e-05
4.72121e-05
4.81191e-05
6.29576e-05
4.31653e-05
6.4832e-05
7.15929e-05
7.50723e-05
7.06684e-05
8.44215e-05
5.90436e-05
7.15461e-05
6.24209e-05
4.40234e-05
6.10728e-05
5.46341e-05
4.2333e-05
6.87102e-05
0.000184679
9.72337e-05
0.000140059
0.000160105
0.000165306
0.000121448
0.000140913
0.000131847
6.82657e-05
5.8162e-05
4.45878e-05
7.12558e-05
4.85816e-05
4.78704e-05
4.0842e-05
4.55838e-05
8.10678e-05
6.07518e-05
3.92525e-05
6.11303e-05
5.10745e-05
5.18374e-05
5.16815e-05
5.34418e-05
0.000131
9.18581e-05
8.57118e-05
0.000124782
0.000106163
8.44023e-05
9.94211e-05
0.000118693
7.62278e-05
8.35622e-05
0.000121061
8.20824e-05
6.26459e-05
0.000116225
0.000106369
8.50227e-05
6.50233e-05
5.87626e-05
4.48206e-05
7.4721e-05
6.85547e-05
7.58975e-05
8.32075e-05
5.09574e-05
8.79491e-05
0.000108008
5.92802e-05
8.18088e-05
0.000122676
0.000110962
8.88125e-05
0.000107825
6.98226e-05
9.05745e-05
9.00567e-05
6.16231e-05
7.73922e-05
7.43431e-05
4.63744e-05
6.80887e-05
6.29903e-05
5.65847e-05
5.78557e-05
7.43331e-05
7.22942e-05
7.01743e-05
7.03062e-05
6.15061e-05
3.2036e-05
1.84865e-05
2.9438e-05
6.02936e-05
3.29191e-05
3.33969e-05
2.89458e-05
3.81658e-05
4.09788e-05
3.23739e-05
5.05903e-05
5.70199e-05
3.88803e-05
3.80179e-05
4.40868e-05
6.24793e-05
6.60747e-05
8.09316e-05
7.25738e-05
7.81912e-05
7.68097e-05
6.58636e-05
6.51347e-05
8.40844e-05
3.85485e-05
4.47526e-05
7.61666e-05
5.49263e-05
3.62912e-05
7.48288e-05
6.01316e-05
6.61427e-05
4.11056e-05
4.43903e-05
3.75365e-05
4.94216e-05
4.01186e-05
6.25939e-05
4.6756e-05
3.93624e-05
5.42908e-05
7.01266e-05
4.68742e-05
5.91157e-05
7.22568e-05
7.15877e-05
6.34768e-05
7.20451e-05
4.92633e-05
8.53474e-05
5.89431e-05
4.87125e-05
5.45202e-05
5.68511e-05
3.83918e-05
6.23649e-05
4.31641e-06
4.81313e-06
2.38566e-06
1.29947e-05
1.1176e-05
3.62403e-06
1.11925e-05
1.19654e-05
4.54967e-06
1.7641e-06
3.43004e-06
1.02633e-05
5.96497e-06
2.34391e-06
1.05222e-05
1.0168e-05
2.50535e-06
3.59397e-06
2.73166e-06
1.15369e-05
9.30641e-06
3.62176e-06
1.20271e-05
1.22463e-05
7.1322e-06
1.70392e-05
1.39417e-05
9.74587e-06
1.03761e-05
1.83246e-05
2.55598e-05
2.54111e-05
1.12602e-05
1.17657e-05
1.28634e-05
1.2326e-05
1.16199e-05
1.16465e-05
1.22042e-05
1.22866e-05
3.76935e-06
1.06546e-05
3.23338e-06
4.89422e-06
1.18044e-05
1.12644e-05
3.30024e-06
1.01389e-05
1.19682e-05
1.29335e-05
1.23919e-05
1.25302e-05
1.24995e-05
1.23841e-05
1.25072e-05
1.24415e-05
1.20468e-05
1.13764e-05
1.0881e-05
1.16945e-05
1.18147e-05
1.11576e-05
1.15263e-05
1.09753e-05
6.06787e-05
4.74298e-05
0.000105311
7.89318e-05
6.71902e-05
5.64057e-05
8.2102e-05
9.3698e-05
3.90851e-05
2.86737e-05
7.78114e-05
7.04994e-05
4.90954e-05
3.81081e-05
4.47106e-05
6.23903e-05
0.000156741
0.000128032
0.000217077
9.8206e-05
0.000118768
0.000124971
0.000141893
0.000145542
4.38898e-05
6.34052e-05
5.71582e-05
3.56738e-05
3.54507e-05
3.19588e-05
5.40252e-05
3.3753e-05
5.74174e-05
9.62005e-05
4.90833e-05
4.31665e-05
5.42141e-05
7.13734e-05
9.78499e-05
3.9281e-05
4.54711e-05
3.22572e-05
7.49811e-05
8.89097e-05
6.76348e-05
4.498e-05
8.32134e-05
8.16227e-05
0.000113676
6.40568e-05
3.78156e-05
7.38477e-05
8.23315e-05
5.54177e-05
6.1764e-05
3.816e-05
0.000108959
6.5031e-05
4.44839e-05
8.77218e-05
0.000107241
5.45876e-05
7.61688e-05
0.00010758
7.1859e-05
8.53729e-05
6.06045e-05
6.22882e-05
9.29746e-05
8.48675e-05
0.000100421
9.71427e-05
0.000107313
7.91421e-05
4.43705e-05
8.52109e-05
0.000149349
0.000114791
0.000104558
9.83193e-05
4.43066e-05
2.58409e-05
2.80559e-05
4.35126e-05
3.2181e-05
3.19959e-05
3.28552e-05
3.00643e-05
5.59212e-05
7.79042e-05
4.88147e-05
5.78659e-05
7.23027e-05
8.96398e-05
9.39968e-05
7.15997e-05
0.000156662
4.77185e-05
7.77432e-05
0.000113953
0.000102975
8.41623e-05
9.11297e-05
8.86888e-05
0.000118134
9.24341e-05
5.79428e-05
4.6503e-05
0.000101646
9.70953e-05
5.05781e-05
6.46771e-05
4.96856e-05
0.000100682
0.000102983
6.19655e-05
4.62284e-05
6.82036e-05
4.56058e-05
8.77455e-05
5.08388e-05
4.53183e-05
9.1887e-05
5.99049e-05
4.94483e-05
5.34424e-05
5.57897e-05
4.41125e-05
4.21543e-05
2.36673e-05
4.5958e-05
2.86369e-05
3.85756e-05
3.46108e-05
3.48966e-05
5.10839e-05
2.09501e-05
2.31259e-05
3.97094e-05
2.92097e-05
3.05597e-05
3.31992e-05
3.5189e-05
4.09741e-05
5.88372e-05
6.14951e-05
6.48818e-05
4.20256e-05
5.84592e-05
7.73453e-05
7.30139e-05
7.84785e-05
2.78592e-05
2.36884e-05
2.49272e-05
1.47607e-05
2.16692e-05
2.51912e-05
2.77415e-05
3.25786e-05
2.83926e-05
3.91848e-05
2.60494e-05
2.95751e-05
3.39472e-05
4.18751e-05
2.12864e-05
3.23079e-05
3.71323e-05
3.65585e-05
5.57825e-05
6.95467e-05
4.25965e-05
4.01818e-05
4.10565e-05
3.75735e-05
5.06616e-05
2.91768e-05
2.96065e-05
4.40234e-05
3.61304e-05
4.78592e-05
3.36338e-05
2.74085e-05
7.01342e-05
4.66619e-05
4.70377e-05
6.40821e-05
4.84404e-05
4.87614e-05
5.26195e-05
3.57974e-05
4.47488e-05
5.44687e-05
4.79133e-05
3.19887e-05
3.73243e-05
4.85533e-05
3.0219e-05
3.82249e-05
6.45541e-05
6.50681e-05
6.95637e-05
5.55615e-05
5.65925e-05
6.02874e-05
6.77727e-05
7.14344e-05
6.09136e-05
8.32085e-05
6.78589e-05
4.09293e-05
5.75985e-05
8.64468e-05
4.47204e-05
0.000103669
1.8469e-05
3.27927e-05
2.74795e-05
1.71678e-05
1.85825e-05
2.84213e-05
1.8663e-05
3.33162e-05
4.42841e-05
4.80103e-05
2.8114e-05
3.55345e-05
5.54844e-05
4.35629e-05
6.20026e-05
2.46568e-05
5.26981e-05
2.94416e-05
8.83343e-05
6.92561e-05
4.80279e-05
5.57317e-05
5.95035e-05
6.41293e-05
6.18882e-05
3.01983e-05
3.9981e-05
2.09463e-05
3.22004e-05
3.08802e-05
3.75716e-05
3.57301e-05
5.50757e-05
6.25825e-05
4.11148e-05
8.47397e-05
6.30743e-05
5.30273e-05
8.22444e-05
4.40654e-05
1.63225e-05
3.63242e-05
4.0672e-05
1.69413e-05
1.78744e-05
2.53581e-05
2.29256e-05
2.51814e-05
4.34355e-05
8.2501e-05
7.89125e-05
6.01742e-05
4.45753e-05
5.04735e-05
5.24065e-05
5.72329e-05
5.90444e-05
8.52956e-05
7.57849e-05
5.01107e-05
5.79327e-05
6.5817e-05
7.01369e-05
7.54506e-05
2.25723e-05
4.29537e-05
3.36132e-05
2.94609e-05
3.84328e-05
2.91837e-05
2.99289e-05
3.5569e-05
3.10494e-05
2.85632e-05
3.71452e-05
3.79097e-05
3.64548e-05
4.39749e-05
2.77744e-05
2.91924e-05
3.66108e-05
4.03587e-05
6.19799e-05
4.07619e-05
3.8739e-05
6.09569e-05
6.95846e-05
4.53894e-05
3.44652e-05
3.15177e-05
4.48148e-05
4.54564e-05
3.82042e-05
3.4642e-05
3.54295e-05
4.74762e-05
5.25349e-05
4.71225e-05
4.77134e-05
7.04481e-05
5.85549e-05
4.74039e-05
6.47044e-05
5.54353e-05
7.15954e-05
5.90413e-05
5.32025e-05
5.63268e-05
4.25544e-05
5.59994e-05
5.07559e-05
2.93543e-05
7.20595e-05
6.12643e-05
3.47756e-05
4.36389e-05
3.16176e-05
3.27967e-05
4.32259e-05
2.80328e-05
4.82051e-05
4.31809e-05
5.32632e-05
6.14812e-05
2.03826e-05
2.61794e-05
2.73554e-05
2.02231e-05
6.16241e-05
5.9608e-05
5.98911e-05
7.53891e-05
5.90881e-05
5.804e-05
5.75114e-05
5.17081e-05
4.39998e-05
3.15867e-05
4.8525e-05
4.51078e-05
5.48766e-05
4.25023e-05
4.85703e-05
7.69174e-05
5.52722e-05
4.99131e-05
2.43231e-05
4.65027e-05
2.42288e-05
3.07824e-05
4.19688e-05
2.06259e-05
4.22621e-05
6.39868e-05
4.7923e-05
4.08459e-05
5.30281e-05
3.50855e-05
3.52445e-05
4.59137e-05
2.2508e-05
3.46956e-05
3.88867e-05
2.17969e-05
3.28647e-05
4.60004e-05
3.345e-05
5.5295e-05
3.62088e-05
2.22947e-05
3.31495e-05
6.20748e-05
3.57261e-05
2.43712e-05
4.25567e-05
3.00938e-05
2.12606e-05
1.8115e-05
2.03556e-05
0.000100309
2.07745e-05
1.51209e-05
2.86285e-05
1.65355e-05
3.38514e-05
2.19307e-05
2.12223e-05
5.94152e-05
2.29162e-05
1.65e-05
3.37202e-05
2.11886e-05
8.26058e-05
0.000120303
9.32985e-05
0.000134972
5.74096e-05
5.45586e-05
5.9615e-05
4.95485e-05
2.70235e-05
2.65195e-05
4.58162e-05
3.92805e-05
3.49625e-05
7.2639e-05
6.55758e-05
5.33142e-05
2.00204e-05
4.02395e-05
1.67895e-05
2.01243e-05
2.23627e-05
6.21616e-05
3.74433e-05
2.22726e-05
3.89316e-05
4.91683e-05
4.20718e-05
5.4339e-05
8.75447e-05
4.69523e-05
4.61475e-05
9.17193e-05
2.14371e-05
3.59422e-05
3.43747e-05
1.84043e-05
6.12716e-05
4.20696e-05
3.28192e-05
7.67522e-05
5.09718e-05
6.94397e-05
5.31765e-05
4.55632e-05
3.4926e-05
4.29367e-05
6.82383e-05
3.74644e-05
6.86811e-05
9.039e-05
5.64949e-05
7.99498e-05
6.95858e-05
6.52597e-05
6.29271e-05
5.28369e-05
4.19035e-05
5.75994e-05
2.34938e-05
3.42815e-05
1.9833e-05
2.58223e-05
3.25451e-05
1.79656e-05
4.75978e-05
7.57174e-05
3.37302e-05
3.48134e-05
2.67563e-05
3.62064e-05
4.7589e-05
2.45959e-05
5.22374e-05
2.67456e-05
3.06679e-05
4.93622e-05
5.43362e-05
4.75378e-05
7.53726e-05
3.76398e-05
4.7431e-05
5.20037e-05
5.05573e-05
3.76827e-05
4.34977e-05
5.9952e-05
7.2557e-05
3.80154e-05
5.92712e-05
5.18855e-05
5.77795e-05
2.84688e-05
4.69845e-05
2.94785e-05
1.91283e-05
4.15393e-05
3.06455e-05
2.08964e-05
3.63101e-05
3.69394e-05
3.98631e-05
2.39242e-05
4.93557e-05
5.76664e-05
4.16116e-06
6.55585e-06
7.52708e-06
8.33339e-06
6.34849e-06
6.58338e-06
9.91965e-06
9.62725e-06
6.85913e-06
7.12181e-06
1.43801e-05
1.42093e-05
6.96804e-06
7.09094e-06
1.0022e-05
1.01091e-05
1.26663e-05
2.84174e-05
2.50595e-05
2.88119e-05
1.26744e-05
1.81694e-05
1.37697e-05
1.44955e-05
9.22903e-06
1.50572e-05
2.93567e-05
2.18558e-05
1.34311e-05
1.2653e-05
1.11008e-05
1.04491e-05
6.65961e-06
1.26609e-05
1.03804e-05
1.40455e-05
9.81818e-06
9.71018e-06
8.83207e-06
1.16178e-05
6.77128e-06
1.42121e-05
1.45704e-05
1.50717e-05
9.81894e-06
9.90064e-06
7.87962e-06
1.44044e-05
7.81052e-06
4.89194e-06
8.99727e-06
9.95625e-06
1.7856e-05
4.98328e-06
8.256e-06
1.64339e-05
7.15358e-06
1.00399e-05
9.16249e-06
9.42825e-06
1.31694e-05
1.15882e-05
1.26134e-05
1.70689e-05
5.14305e-06
5.52207e-06
8.61579e-06
1.12116e-05
5.27393e-06
5.39305e-06
7.3889e-06
6.97595e-06
5.86557e-06
6.15007e-06
8.30621e-06
1.11107e-05
5.92995e-06
6.00064e-06
6.68839e-06
6.61735e-06
1.05948e-05
1.15903e-05
2.63929e-05
2.02848e-05
1.9368e-05
1.4199e-05
9.81467e-06
9.3128e-06
1.17417e-05
8.73633e-06
2.04056e-05
1.67149e-05
1.44174e-05
1.40512e-05
1.20497e-05
1.17136e-05
5.63154e-06
8.66171e-06
1.12822e-05
1.10948e-05
6.84312e-06
7.05033e-06
1.11843e-05
1.13735e-05
5.73347e-06
1.11697e-05
8.42356e-06
8.69666e-06
6.69872e-06
6.76296e-06
8.48721e-06
8.3552e-06
8.53375e-06
8.59763e-06
1.55417e-05
1.67072e-05
2.61042e-05
8.85875e-06
1.9575e-05
2.17785e-05
1.08474e-05
2.1062e-05
1.72037e-05
1.41409e-05
1.48112e-05
1.29712e-05
1.48946e-05
7.92992e-06
6.54289e-06
3.99164e-06
7.952e-06
1.36311e-05
7.40976e-06
7.65676e-06
7.76705e-06
7.73082e-06
7.16939e-06
2.76569e-05
1.24509e-05
1.95208e-05
1.76035e-05
1.51855e-05
1.26887e-05
4.8669e-05
8.21255e-06
9.73377e-06
8.38312e-06
1.56744e-05
8.09283e-06
8.17988e-06
8.21742e-06
8.17931e-06
1.71107e-05
1.63328e-05
1.17821e-05
1.32279e-05
1.14481e-05
1.60574e-05
1.58609e-05
2.04521e-05
5.55916e-06
7.83484e-06
1.17623e-05
1.18849e-05
8.16529e-06
7.73513e-06
4.40931e-06
1.11843e-05
6.55061e-06
1.19276e-05
1.08105e-05
7.96126e-06
1.4744e-05
1.78637e-05
8.48892e-06
1.61597e-05
8.05492e-06
1.62395e-05
1.4584e-05
1.61809e-05
1.27941e-05
1.40674e-05
1.62493e-05
1.6855e-05
7.98976e-06
1.64296e-05
2.81071e-05
1.58317e-05
7.99857e-06
1.58125e-05
1.33299e-05
9.24558e-06
5.17807e-05
2.25292e-05
4.58671e-05
3.04025e-05
5.24578e-05
4.04528e-05
4.05307e-05
5.10252e-05
1.98733e-05
2.44725e-05
4.62102e-05
3.86163e-05
3.22258e-05
4.59356e-05
5.06546e-05
4.90544e-05
8.665e-05
8.06865e-05
0.000135207
7.02871e-05
8.81736e-05
0.00011915
9.65598e-05
0.000139259
2.01251e-05
3.52474e-05
4.0692e-05
2.04855e-05
3.19418e-05
4.2456e-05
4.10241e-05
4.97874e-05
3.73281e-05
4.95185e-05
3.62739e-05
3.53852e-05
5.08031e-05
5.16097e-05
2.09702e-05
4.4999e-05
4.92805e-05
5.86967e-05
6.70772e-05
0.000111456
4.44203e-05
4.66847e-05
4.45595e-05
4.58001e-05
9.26671e-05
4.34173e-05
4.91179e-05
5.61106e-05
4.74782e-05
4.70491e-05
4.54404e-05
4.67442e-05
9.29214e-05
7.8943e-05
4.63132e-05
8.2689e-05
6.99146e-05
6.77298e-05
7.34318e-05
4.73067e-05
1.02017e-05
2.90792e-05
1.86004e-05
1.66465e-05
1.71403e-05
2.52994e-05
1.00566e-05
1.82847e-05
2.33543e-05
2.96009e-05
2.00022e-05
2.18206e-05
2.71852e-05
8.74803e-06
1.68324e-05
9.65229e-06
9.43011e-06
8.35329e-06
6.12983e-06
1.12465e-05
9.31801e-06
6.95677e-06
1.00122e-05
6.68781e-06
2.01859e-05
2.14957e-05
9.65119e-06
2.18995e-05
2.03318e-05
2.12531e-05
1.42723e-05
9.96339e-06
3.06301e-05
2.23656e-05
1.72778e-05
2.53478e-05
2.20619e-05
1.44979e-05
2.25924e-05
2.14492e-05
1.65123e-05
2.19024e-05
1.58277e-05
1.92626e-05
1.58822e-05
1.2748e-05
2.00415e-05
1.97143e-05
2.28206e-05
1.23377e-05
2.04781e-05
1.12393e-05
1.1429e-05
1.39561e-05
1.80893e-05
1.5234e-05
1.85607e-05
1.79738e-05
1.63697e-05
1.39906e-05
1.86655e-05
1.92359e-05
1.3554e-05
1.38395e-05
1.87176e-05
4.06197e-05
3.83994e-05
2.14985e-05
2.24098e-05
3.25404e-05
2.82252e-05
3.22073e-05
5.73624e-05
8.56307e-05
8.76916e-05
8.10762e-05
5.75328e-05
7.86882e-05
6.54285e-05
9.19242e-05
6.32857e-05
8.83885e-05
7.89723e-05
5.08195e-05
6.65433e-05
7.88588e-05
6.41948e-05
0.000119225
2.41111e-05
5.15072e-05
3.68955e-05
3.88651e-05
2.61566e-05
4.77405e-05
3.55481e-05
3.23915e-05
4.28524e-05
3.58596e-05
2.98444e-05
3.7543e-05
3.85338e-05
3.99444e-05
3.21654e-05
3.79093e-05
5.05377e-05
6.29259e-05
7.86256e-05
4.69325e-05
5.60523e-05
7.47639e-05
5.66834e-05
5.7042e-05
3.37107e-05
3.69826e-05
5.8985e-05
4.17178e-05
2.52447e-05
3.3584e-05
3.34396e-05
4.7234e-05
5.96234e-05
5.79537e-05
6.01931e-05
0.000106847
7.27809e-05
5.55443e-05
6.36233e-05
7.60607e-05
8.55e-05
0.000104078
5.95455e-05
7.23722e-05
0.000103046
9.02963e-05
8.65958e-05
9.56002e-05
0.000100223
0.000104901
9.24894e-05
8.46551e-05
7.05077e-05
6.2185e-05
5.6346e-05
6.08391e-05
5.38792e-05
8.32147e-05
4.32464e-05
6.43358e-05
3.03379e-05
3.30048e-05
3.09692e-05
2.86656e-05
5.58489e-05
7.69101e-05
5.79458e-05
6.07894e-05
3.32888e-05
3.20109e-05
3.17606e-05
3.3429e-05
7.58882e-05
5.3149e-05
5.56562e-05
5.64082e-05
6.33403e-05
7.04828e-05
7.83151e-05
6.03353e-05
7.96661e-05
4.83891e-05
4.63396e-05
5.34051e-05
7.37157e-05
8.03536e-05
8.20065e-05
5.65628e-05
4.80745e-05
5.26598e-05
4.48219e-05
3.71548e-05
5.43234e-05
5.09617e-05
3.89636e-05
5.94672e-05
4.89418e-05
3.43728e-05
4.78326e-05
4.59104e-05
5.72587e-05
3.60191e-05
4.39552e-05
7.10954e-05
2.83036e-06
3.2269e-06
4.72034e-06
6.86523e-06
3.0311e-06
3.29987e-06
5.31977e-06
5.00609e-06
4.29929e-06
8.98323e-06
1.99232e-05
5.91477e-06
4.42514e-06
1.17043e-05
5.30004e-06
1.53454e-05
6.10585e-06
1.44752e-05
1.03908e-05
8.49744e-06
6.40822e-06
1.07819e-05
7.8185e-06
9.63581e-06
8.70411e-06
1.27636e-05
1.61886e-05
8.02315e-06
9.61541e-06
9.13356e-06
1.9553e-05
9.76627e-06
3.42707e-06
4.99819e-06
7.47312e-06
6.64221e-06
5.08143e-06
5.04734e-06
6.10943e-06
6.60458e-06
3.9347e-06
6.20331e-06
1.52032e-05
5.23919e-06
5.07098e-06
5.20458e-06
5.05719e-06
5.36902e-06
7.11642e-06
6.42671e-06
1.03667e-05
1.33754e-05
8.71752e-06
9.9484e-06
9.36227e-06
9.96027e-06
6.43846e-06
9.81466e-06
8.46032e-06
1.19201e-05
6.48194e-06
8.05561e-06
6.66554e-06
7.67077e-06
1.1038e-05
1.48217e-05
1.52514e-05
8.74007e-06
1.1928e-05
1.49866e-05
1.30088e-05
1.49604e-05
1.91993e-05
1.07343e-05
1.22642e-05
5.83708e-06
1.5015e-05
1.2341e-05
1.36702e-05
1.23282e-05
1.34873e-05
1.01973e-05
7.34879e-06
6.27996e-06
1.11181e-05
1.01773e-05
1.00317e-05
8.79975e-06
1.62492e-05
1.21603e-05
1.13047e-05
5.41697e-06
1.6471e-05
1.22563e-05
1.65808e-05
1.35193e-05
1.49461e-05
1.52752e-05
9.00852e-06
7.38763e-06
1.53675e-05
1.49975e-05
7.66147e-06
7.72657e-06
1.9353e-05
5.86063e-06
1.23637e-05
1.60866e-05
1.71846e-05
1.32043e-05
1.59781e-05
1.29811e-05
1.45463e-05
8.86627e-06
7.16069e-06
7.11767e-06
7.45049e-06
7.60906e-06
6.95983e-06
7.45723e-06
1.44213e-05
6.20972e-06
5.98569e-06
1.07883e-05
1.1408e-05
6.02681e-06
1.18517e-05
6.00135e-06
2.97022e-06
3.32189e-06
4.77384e-06
1.00649e-05
3.65239e-06
3.52097e-06
4.59429e-06
5.57477e-06
4.74988e-06
6.17887e-06
1.54167e-05
2.23332e-05
4.99068e-06
6.57098e-06
6.19096e-06
1.18356e-05
6.51347e-06
1.56168e-05
9.86813e-06
0.000185062
1.04789e-05
1.38282e-05
1.83281e-05
1.88577e-05
3.01232e-06
4.97211e-05
6.56076e-05
2.92846e-06
7.1801e-06
2.97238e-05
3.74183e-06
6.16931e-05
3.62946e-06
5.17258e-06
1.13847e-05
2.07379e-05
5.63401e-06
5.48354e-06
8.13887e-06
8.94188e-06
4.58539e-06
2.73896e-05
1.38448e-05
5.49731e-06
5.67255e-06
6.09844e-06
5.60103e-06
6.49357e-06
7.92888e-06
3.0648e-06
4.25283e-05
7.22555e-05
1.21631e-05
1.37543e-05
5.39169e-05
3.6982e-05
6.91159e-06
0.000201846
7.53009e-05
1.36779e-05
9.69887e-06
4.9061e-05
1.0833e-05
8.00596e-05
7.15869e-06
1.5818e-05
4.1261e-05
0.000100559
1.70506e-05
1.76359e-05
9.30954e-05
7.08307e-05
1.59125e-05
9.21868e-06
5.03338e-05
9.55353e-05
1.45729e-05
1.48543e-05
4.43143e-05
3.36969e-05
7.67851e-05
9.41622e-05
7.36713e-05
0.000138043
9.81803e-05
9.6381e-05
8.89761e-05
9.21828e-05
9.60722e-05
6.63508e-05
6.50563e-05
5.66768e-06
7.50948e-05
7.81508e-05
6.10917e-05
6.80876e-05
1.6753e-05
8.92862e-05
0.000212216
0.000154819
8.70674e-05
0.000111428
0.000161941
0.00021232
1.71459e-05
0.000152809
7.53368e-05
8.70705e-05
6.40227e-05
7.59784e-05
7.18024e-05
7.57685e-05
0.000100466
0.000216679
0.000173043
0.000159129
0.000196319
0.000213776
0.000196967
0.000202945
8.6797e-05
0.000171233
0.000166501
9.44919e-05
0.000116252
0.000193977
0.000106946
0.000176417
3.58358e-06
3.30794e-06
4.93589e-06
7.36799e-06
3.81959e-06
3.53207e-06
6.00981e-06
5.28423e-06
4.53105e-06
6.35483e-06
2.30436e-05
6.64398e-06
4.82728e-06
8.41265e-06
5.9444e-06
1.8078e-05
6.71313e-06
1.7213e-05
1.25428e-05
9.4333e-06
7.20054e-06
1.26688e-05
8.55265e-06
1.15617e-05
1.11955e-05
1.31663e-05
1.53259e-05
9.00505e-06
1.04708e-05
1.19126e-05
9.69746e-06
1.55866e-05
3.57663e-06
5.40806e-06
8.10549e-06
7.31127e-06
5.4691e-06
5.39603e-06
6.62375e-06
7.17502e-06
4.50572e-06
6.94818e-06
1.94058e-05
5.58846e-06
5.6868e-06
5.87212e-06
5.79048e-06
6.18117e-06
7.92836e-06
7.8242e-06
1.09649e-05
1.22705e-05
9.24311e-06
1.03016e-05
1.00897e-05
1.04827e-05
7.16558e-06
1.03887e-05
9.21802e-06
1.4506e-05
7.27544e-06
8.93433e-06
7.53386e-06
8.57196e-06
1.34575e-05
1.80045e-05
1.81174e-05
9.6639e-06
1.45252e-05
1.81409e-05
1.57349e-05
1.78667e-05
2.15807e-05
7.44241e-06
7.45414e-06
6.57797e-06
1.65502e-05
8.84325e-06
1.4116e-05
9.72807e-06
1.45485e-05
1.05063e-05
9.67839e-06
7.02635e-06
1.13612e-05
1.04732e-05
1.06087e-05
9.9359e-06
1.54766e-05
1.24985e-05
1.31596e-05
6.7399e-06
1.58198e-05
1.26023e-05
1.61052e-05
1.38331e-05
1.75842e-05
1.75571e-05
9.66097e-06
8.11093e-06
1.7823e-05
1.74022e-05
8.50421e-06
8.56354e-06
2.26847e-05
6.60064e-06
6.64643e-06
1.81908e-05
1.94684e-05
1.37116e-05
1.75717e-05
1.30419e-05
1.66051e-05
9.54118e-06
7.86656e-06
7.67662e-06
8.22641e-06
8.39385e-06
7.6687e-06
8.17328e-06
1.58006e-05
6.8434e-06
6.70279e-06
1.04436e-05
1.15692e-05
6.74631e-06
1.18841e-05
6.724e-06
3.48742e-06
5.257e-06
3.75282e-06
6.68694e-06
4.3208e-06
4.02043e-06
4.35546e-06
4.12916e-06
6.57784e-06
1.12741e-05
1.42659e-05
8.31559e-06
7.40271e-06
1.13575e-05
7.46923e-06
1.06446e-05
4.37579e-06
1.60638e-05
7.00869e-06
5.97615e-06
4.86904e-06
9.50734e-06
4.86634e-06
8.37515e-06
1.33867e-05
1.30984e-05
1.03866e-05
1.61319e-05
1.41311e-05
1.17755e-05
1.76294e-05
1.2724e-05
6.19341e-06
4.22647e-06
8.85201e-06
9.90213e-06
6.26885e-06
4.74498e-06
8.11456e-06
6.64748e-06
5.83998e-06
8.14637e-06
1.5165e-05
4.65601e-06
5.95141e-06
6.52376e-06
5.61429e-06
6.21869e-06
4.2427e-06
9.01055e-06
1.02965e-05
6.99711e-06
5.80669e-06
7.06594e-06
6.88529e-06
8.09381e-06
4.6329e-06
6.60019e-06
8.51821e-06
1.33847e-05
5.20418e-06
6.45779e-06
6.20704e-06
7.5697e-06
8.25912e-06
9.29279e-06
1.01404e-05
7.2986e-06
9.07631e-06
9.27751e-06
8.56587e-06
8.60332e-06
8.91598e-06
8.06626e-06
1.38679e-05
6.22165e-06
8.2455e-06
7.42942e-06
8.3434e-06
8.64911e-06
1.40567e-05
1.44412e-05
1.17137e-05
8.3046e-06
1.41464e-05
1.46364e-05
1.2668e-05
1.2088e-05
1.25229e-05
1.08976e-05
1.2716e-05
1.0763e-05
1.27393e-05
1.10967e-05
1.29068e-05
1.21617e-05
8.99578e-06
1.06633e-05
7.15261e-06
6.64186e-06
8.4498e-06
8.34546e-06
6.7484e-06
6.76444e-06
9.10891e-06
6.2383e-06
1.52399e-05
1.20151e-05
8.51297e-06
8.23245e-06
1.16634e-05
1.28408e-05
1.1901e-05
7.27859e-06
6.7543e-06
7.8784e-06
7.04592e-06
6.89841e-06
7.08631e-06
6.96958e-06
1.3016e-05
8.01477e-06
6.47188e-06
1.40349e-05
1.35605e-05
7.20833e-06
1.36797e-05
7.17758e-06
9.86365e-06
1.46139e-05
8.48925e-06
2.02344e-05
9.86184e-06
9.57634e-06
1.01395e-05
9.17624e-06
1.61318e-05
2.19754e-05
1.14692e-05
1.5917e-05
3.9045e-05
1.84037e-05
1.75189e-05
2.24806e-05
7.23632e-06
1.1457e-05
6.69123e-06
1.52366e-05
7.0759e-06
6.88533e-06
7.19595e-06
6.59366e-06
2.3257e-05
1.67496e-05
1.55384e-05
2.19637e-05
4.07017e-05
1.9723e-05
1.96897e-05
2.54152e-05
1.45786e-05
8.40226e-06
2.0376e-05
4.22856e-05
1.47796e-05
9.69559e-06
1.85905e-05
1.93853e-05
1.43446e-05
1.90783e-05
1.22081e-05
8.11254e-06
1.35647e-05
1.44178e-05
1.25014e-05
1.24242e-05
8.62421e-06
2.12694e-05
1.84162e-05
1.74044e-05
1.67802e-05
1.8664e-05
1.68694e-05
2.01953e-05
7.77794e-06
1.56719e-05
1.84474e-05
1.16673e-05
8.13541e-06
1.62001e-05
1.25113e-05
1.32804e-05
5.98319e-05
6.91178e-05
4.17351e-05
5.29305e-05
3.52206e-05
3.85129e-05
3.7295e-05
3.48073e-05
5.54502e-05
4.88177e-05
2.99042e-05
1.56955e-05
2.00423e-05
2.19598e-05
2.44251e-05
1.93472e-05
4.38243e-05
3.13223e-05
3.54368e-05
1.79012e-05
2.7962e-05
3.06743e-05
3.49583e-05
2.6668e-05
5.01547e-05
4.92494e-05
1.99076e-05
1.6997e-05
2.67813e-05
2.85346e-05
3.3221e-05
3.08789e-05
3.55316e-05
3.39396e-05
3.0651e-05
4.25286e-05
3.79325e-05
6.25982e-05
6.56042e-05
3.25892e-05
3.16382e-05
3.62202e-05
2.39014e-05
3.74246e-05
3.65826e-05
9.11094e-05
4.89977e-05
2.28038e-05
4.32423e-05
3.63525e-05
4.25423e-05
4.19454e-05
3.16994e-05
2.9653e-05
4.30791e-05
3.60834e-05
4.0026e-05
3.14247e-05
2.76161e-05
2.17461e-05
8.18291e-05
3.6323e-05
2.74209e-05
1.7177e-05
2.29416e-06
1.80177e-06
3.63059e-06
1.26187e-05
9.73835e-06
5.96886e-06
9.74097e-06
9.70091e-06
1.59283e-06
1.74931e-06
1.968e-06
1.15005e-05
7.99138e-06
3.87193e-06
7.82313e-06
7.80235e-06
3.16502e-06
2.09555e-06
1.88555e-06
7.81106e-06
6.70436e-06
4.41144e-06
7.23197e-06
3.82825e-06
1.38326e-05
6.6911e-06
2.91596e-05
1.73103e-05
7.90724e-06
7.42585e-06
2.14272e-05
7.2247e-06
8.78047e-06
8.31528e-06
1.26157e-05
1.20627e-05
8.69329e-06
9.5858e-06
1.2302e-05
1.25057e-05
4.18689e-06
1.17719e-05
3.73265e-06
4.64957e-06
8.62785e-06
8.34741e-06
2.65997e-06
6.59522e-06
9.01068e-06
1.26346e-05
1.20225e-05
1.2637e-05
1.22303e-05
1.2472e-05
1.25232e-05
1.267e-05
6.84809e-06
1.13281e-05
1.17191e-05
5.15765e-06
8.69735e-06
1.14458e-05
8.0351e-06
9.47466e-06
3.24882e-05
3.63633e-05
3.35228e-05
2.78662e-05
7.00305e-05
5.77469e-05
9.69047e-05
4.44028e-05
4.49243e-05
4.19763e-05
4.96674e-05
3.8514e-05
4.61611e-05
3.57248e-05
3.82505e-05
3.83328e-05
4.0151e-05
7.61796e-05
8.79001e-05
7.21156e-05
5.56794e-05
7.81046e-05
7.37753e-05
6.81968e-05
2.24002e-05
4.55675e-05
4.92201e-05
3.11706e-05
4.84695e-05
4.69586e-05
5.06481e-05
4.23993e-05
7.80535e-05
4.69018e-05
5.95925e-05
5.59638e-05
5.19934e-05
3.70156e-05
3.86521e-05
5.20712e-05
4.49334e-05
4.24789e-05
6.89046e-05
9.99935e-05
4.00313e-05
3.41816e-05
3.53659e-05
4.23849e-05
9.62073e-05
6.06693e-05
4.34222e-05
5.85164e-05
3.825e-05
3.93059e-05
4.54526e-05
3.97315e-05
5.34814e-05
6.47923e-05
4.93223e-05
5.68081e-05
4.54281e-05
5.50523e-05
5.76803e-05
5.91232e-05
3.46122e-05
1.48075e-05
3.52853e-05
2.35236e-05
2.86445e-05
2.1431e-05
2.69665e-05
4.10201e-05
1.25426e-05
4.86023e-06
8.88424e-06
1.1676e-05
4.19817e-06
7.24313e-06
5.56811e-06
8.23846e-06
2.74045e-05
1.45204e-05
2.40723e-05
1.63085e-05
2.14615e-05
1.03239e-05
2.16091e-05
2.03904e-05
1.5134e-05
1.26387e-05
2.01588e-05
1.70139e-05
1.5006e-05
1.21066e-05
1.42004e-05
2.61475e-05
7.67999e-06
3.04627e-05
2.10754e-05
1.11211e-05
7.03377e-06
1.78048e-05
1.01698e-05
1.51391e-05
5.78146e-06
1.67203e-05
5.5234e-06
9.51452e-06
9.89093e-06
1.11877e-05
1.00439e-05
1.8066e-05
2.45949e-05
2.19609e-05
1.31688e-05
1.57181e-05
2.55462e-05
3.15953e-05
1.68384e-05
1.67865e-05
2.43913e-05
1.70485e-05
1.55433e-05
2.27718e-05
1.4071e-05
1.22325e-05
1.16567e-05
1.31958e-05
1.96024e-06
1.62178e-06
3.25067e-06
8.79737e-06
7.89207e-06
4.51577e-06
7.8753e-06
7.92694e-06
1.61518e-06
1.71265e-06
1.61329e-06
9.23558e-06
7.11428e-06
4.00518e-06
6.99456e-06
7.00507e-06
3.21996e-06
1.59582e-06
1.78484e-06
7.7048e-06
7.57461e-06
4.95456e-06
7.26665e-06
5.22098e-06
7.81571e-06
6.10169e-06
6.01427e-06
1.85422e-05
7.11429e-06
6.11252e-06
9.63557e-06
4.52204e-06
7.32861e-06
7.94494e-06
8.60616e-06
9.27871e-06
7.31783e-06
7.87926e-06
9.27173e-06
8.53505e-06
3.91857e-06
9.18711e-06
4.83012e-06
4.33714e-06
7.31845e-06
7.24649e-06
2.51508e-06
7.27881e-06
7.83499e-06
8.62441e-06
9.30546e-06
8.34001e-06
8.29561e-06
8.44757e-06
8.32268e-06
8.51006e-06
7.70692e-06
8.17356e-06
9.16096e-06
7.0714e-06
7.62164e-06
8.29408e-06
7.12486e-06
8.92824e-06
2.80989e-06
3.32193e-06
1.99375e-06
8.20753e-06
6.2234e-06
2.34705e-06
6.22684e-06
7.27363e-06
3.54813e-06
1.72163e-06
2.69581e-06
7.87617e-06
4.96411e-06