/*--------------------------------*- C++ -*----------------------------------*\
| =========                 |                                                 |
| \\      /  F ield         | OpenFOAM: The Open Source CFD Toolbox           |
|  \\    /   O peration     | Version:  2412                                  |
|   \\  /    A nd           | Website:  www.openfoam.com                      |
|    \\/     M anipulation  |                                                 |
\*---------------------------------------------------------------------------*/
FoamFile
{
    version     2.0;
    format      ascii;
    arch        "LSB;label=32;scalar=64";
    class       volScalarField;
    location    "10000";
    object      p;
}
// * * * * * * * * * * * * * * * * * * * * * * * * * * * * * * * * * * * * * //

dimensions      [0 2 -2 0 0 0 0];

internalField   nonuniform List<scalar> 
43136
(
0.0397627
0.0553081
0.0278608
0.0591271
0.0504106
0.0412028
0.0492225
0.0402436
0.0568621
0.0758102
0.0380141
0.0688103
0.0684787
0.0604643
0.0665158
0.0586831
0.0166352
0.018086
0.00535394
0.0226521
0.0222535
0.0166935
0.0208032
0.018025
0.0650107
0.0665261
0.0446404
0.0661194
0.0665394
0.0630609
0.0615581
0.0568844
0.0558662
0.0337203
0.062745
0.0676798
0.0557218
0.047308
0.0652669
0.0576786
0.0490301
0.063724
0.0364254
0.0250525
0.0460306
0.0535838
0.0320579
0.040747
0.0345678
0.0579449
0.0635715
0.0427289
0.0428401
0.0520551
0.0468299
0.0566906
0.0269691
0.0376198
0.0582791
0.0360737
0.0311755
0.0424182
0.0388503
0.0415628
0.168988
0.189745
0.167607
0.153112
0.172156
0.18008
0.164206
0.16867
0.198094
0.186011
0.160059
0.154549
0.191612
0.197011
0.179045
0.172477
0.151376
0.135662
0.117925
0.120795
0.143362
0.14019
0.133842
0.122439
0.130603
0.125496
0.115026
0.105339
0.122611
0.125831
0.11675
0.114587
0.189163
0.164821
0.149848
0.151078
0.174686
0.164963
0.15909
0.155624
0.196931
0.156684
0.16606
0.17002
0.176672
0.169699
0.170054
0.164227
0.156049
0.142008
0.14053
0.125826
0.142001
0.142367
0.133756
0.1355
0.154446
0.122217
0.138198
0.146847
0.145389
0.135263
0.15203
0.133495
0.00434175
0.00402827
0.00533504
0.0208977
0.0102305
0.00552017
0.0111008
0.0101443
0.00404482
0.00594154
0.00943123
0.0193018
0.00623582
0.00540641
0.00713962
0.00865658
0.00456304
0.0111802
0.00826466
0.0210538
0.00958579
0.0061884
0.010102
0.00773609
0.0401767
0.0394095
0.0386148
0.0594169
0.0481107
0.0422041
0.0500068
0.0471202
0.00687395
0.00988036
0.0303207
0.0252938
0.00980945
0.0138159
0.0204456
0.0241589
0.00542116
0.0235098
0.00623563
0.00464816
0.0104965
0.012151
0.0053618
0.00801565
0.0117695
0.0308163
0.0277693
0.0289692
0.01857
0.0294435
0.0282556
0.0324215
0.00931666
0.0272268
0.0281296
0.00819196
0.0132933
0.0224894
0.0099356
0.0208951
-1.70121
-1.05898
-0.644659
0.146842
-0.456246
-0.771767
0.161437
-0.21458
-0.8143
-0.507331
-0.292864
0.0719214
-0.221664
-0.404271
0.104473
-0.168105
-0.260197
-0.19858
-0.26455
-0.0903685
-0.22672
-0.238115
-0.236265
-0.189108
0.265712
0.269203
0.12709
0.182575
0.226684
0.211766
0.164867
0.169662
-0.381235
-0.376742
0.0946211
0.0858765
0.165352
0.0757171
0.0751052
0.0459633
-0.663715
0.0622099
-0.32427
-0.544254
-0.226036
0.0876548
-0.539358
-0.220872
-0.224874
0.234278
0.157545
0.171116
-0.107861
0.0699748
0.0218147
0.139696
-0.179135
0.0942152
0.119875
-0.157506
-0.12339
-0.048925
-0.111573
-0.0121124
-2.18266
-1.60363
-0.802999
0.210256
-0.633323
-1.39814
0.282478
-0.382725
-0.811343
-0.492625
-0.282091
-0.220273
-0.363858
-0.471905
-0.186175
-0.318517
-0.12658
-0.180512
-0.165761
-0.219642
-0.245313
-0.150805
-0.355517
-0.324177
0.210879
0.116532
0.0702214
0.1319
0.107569
0.109911
0.0738048
0.0868866
-0.401164
-0.412408
0.0151678
-0.0677471
0.139301
0.093881
-0.079231
-0.0984331
-0.706498
-0.257334
-0.223107
-0.527817
-0.284354
-0.234287
-0.467142
-0.327491
-0.394493
0.14546
0.133962
0.0121703
-0.227044
-0.0256318
-0.0938013
0.12656
-0.284185
-0.03806
-0.0327358
-0.427733
-0.361033
-0.266644
-0.414553
-0.221447
0.00456788
0.0174631
0.00309369
0.0206154
0.0155151
0.0126106
0.0147837
0.0149526
0.0359432
0.07326
0.0423512
0.064951
0.0551306
0.0555311
0.0573379
0.0569014
0.00549838
0.0226733
0.00510831
0.0233416
0.0169595
0.0168115
0.0166256
0.0210231
0.0421691
0.0638139
0.0428435
0.0642792
0.0557903
0.0549814
0.055892
0.0564572
0.0330214
0.0154046
0.0359891
0.0554325
0.0342052
0.0222835
0.0389146
0.0332797
0.0314586
0.054365
0.033916
0.014841
0.0322719
0.0444379
0.0180478
0.0360025
0.0159282
0.036335
0.0578805
0.0344407
0.0226147
0.0348119
0.0350486
0.0431745
0.0186297
0.0370534
0.0562232
0.0368392
0.0258624
0.0365264
0.0375939
0.0430374
0.117499
0.118987
0.108493
0.105158
0.116291
0.117881
0.111047
0.109747
0.111367
0.0906485
0.0728785
0.0818322
0.0986211
0.0941182
0.0908153
0.082504
0.08952
0.0681684
0.0559131
0.0688372
0.0775135
0.0718774
0.0739877
0.0611792
0.0898323
0.0765058
0.0734031
0.0749839
0.082837
0.080229
0.0783693
0.0747209
0.113308
0.101949
0.0995734
0.0890062
0.105193
0.104147
0.0975939
0.0989927
0.113938
0.0861661
0.0803288
0.101215
0.100723
0.0904821
0.0981909
0.085539
0.0971723
0.0945705
0.0826605
0.0781604
0.0905946
0.0913421
0.0815339
0.0837118
0.0922568
0.0723216
0.0773951
0.0679586
0.0818549
0.0797797
0.0788304
0.0750027
0.160443
0.164855
0.147474
0.132367
0.154012
0.158073
0.143078
0.14316
0.160703
0.133994
0.112538
0.109071
0.143665
0.14141
0.125063
0.118451
0.117227
0.0881523
0.0804364
0.0903985
0.0964062
0.0928973
0.0893448
0.0803331
0.107227
0.0914663
0.0885179
0.0843014
0.0983833
0.0983402
0.0922928
0.0882474
0.151329
0.130543
0.123057
0.115341
0.133925
0.132009
0.121692
0.124203
0.151217
0.116689
0.114005
0.130449
0.130149
0.120877
0.133005
0.115354
0.119702
0.115804
0.104779
0.0932548
0.113361
0.11219
0.101654
0.104062
0.113251
0.088534
0.100065
0.0960679
0.104225
0.101573
0.102821
0.0952866
-0.439152
-0.546797
-0.389979
-0.0766636
-0.290552
-0.449887
-0.117206
-0.245338
-1.05301
-1.56773
-0.676283
-0.118248
-0.562638
-0.987969
0.071003
-0.286643
-0.311543
-0.290415
-0.281689
-0.124632
-0.181183
-0.335784
-0.128828
-0.20076
0.0841042
0.108785
0.068152
0.0894328
0.116228
0.112379
0.116662
0.102151
-0.417754
-0.252774
0.0292272
-0.00449021
-0.232418
-0.185342
-0.140859
-0.0558715
-0.490219
-0.116834
-0.69767
-0.490078
-0.236427
-0.104684
-0.449781
-0.288223
-0.110728
0.131973
0.114831
0.0244368
-0.131634
0.00664215
-0.0249907
0.0828184
-0.171524
-0.0478167
-0.00521053
-0.202289
-0.0659268
-0.120464
-0.0790559
-0.0965926
0.163315
0.17381
0.148514
0.160975
0.164641
0.161048
0.157381
0.156472
0.189394
0.216263
0.171487
0.192613
0.190882
0.187775
0.179404
0.179542
0.136101
0.1449
0.126918
0.136263
0.138039
0.135309
0.131482
0.131472
0.14657
0.161683
0.136154
0.11608
0.137295
0.141573
0.121621
0.131542
0.174093
0.150308
0.159576
0.170713
0.166085
0.158554
0.176075
0.159391
0.17059
0.171464
0.157655
0.146303
0.165814
0.169924
0.158453
0.161066
0.14218
0.14807
0.156567
0.13556
0.148219
0.15226
0.147591
0.151624
0.141164
0.13939
0.162144
0.150505
0.143436
0.146616
0.150634
0.161886
0.160149
0.151294
0.167237
0.135484
0.150733
0.158677
0.148837
0.156803
0.143304
0.137948
0.154052
0.124568
0.137707
0.143763
0.137202
0.144916
0.167714
0.161969
0.151768
0.122489
0.155386
0.16505
0.13917
0.14816
0.111397
0.106998
0.0993101
0.0894194
0.103565
0.105964
0.0958344
0.0998362
0.144072
0.155789
0.12617
0.122383
0.142511
0.148426
0.129021
0.130726
0.150255
0.125884
0.158745
0.166032
0.150403
0.142629
0.161397
0.152444
0.146823
0.119809
0.116639
0.111662
0.129249
0.125195
0.120738
0.117957
0.156706
0.118649
0.120757
0.153226
0.146901
0.127146
0.144963
0.127554
0.271224
0.235013
0.235898
0.272557
0.266591
0.249749
0.263467
0.250037
0.180602
0.127688
0.167495
0.153963
0.162589
0.155538
0.160493
0.160063
0.204271
0.181969
0.181627
0.209336
0.197156
0.18596
0.196849
0.186629
0.244374
0.184198
0.22678
0.228936
0.230968
0.219103
0.230333
0.222065
0.215083
0.226522
0.254048
0.187224
0.214868
0.235533
0.211408
0.238299
0.204171
0.178432
0.17946
0.213098
0.207659
0.186339
0.204554
0.189288
0.225216
0.253598
0.192513
0.221409
0.236921
0.243717
0.220922
0.22292
0.215031
0.210774
0.184413
0.180975
0.20388
0.206887
0.188708
0.189137
0.240764
0.206368
0.205256
0.242908
0.238802
0.213936
0.238506
0.216466
0.184196
0.171681
0.164524
0.182676
0.183423
0.172675
0.179807
0.171668
0.170593
0.155131
0.149552
0.173765
0.166708
0.156032
0.164879
0.153819
0.216644
0.185948
0.189362
0.177019
0.202844
0.191418
0.192264
0.186149
0.20508
0.198493
0.234424
0.198496
0.203567
0.208092
0.204268
0.211222
0.1894
0.185658
0.164383
0.183056
0.190644
0.183493
0.180314
0.175763
0.197442
0.23002
0.190962
0.186703
0.202743
0.212753
0.193714
0.198495
0.183056
0.17563
0.183105
0.162596
0.17466
0.181111
0.172682
0.180169
0.193507
0.161325
0.206823
0.160814
0.171218
0.181407
0.178045
0.189386
0.129677
0.106518
0.131194
0.115085
0.115657
0.115508
0.121547
0.120186
0.195459
0.154615
0.173532
0.174213
0.17846
0.167697
0.178571
0.169143
0.142156
0.124346
0.163301
0.132522
0.131458
0.137894
0.137048
0.14507
0.141043
0.191122
0.154899
0.12418
0.14684
0.170001
0.137519
0.161873
0.144411
0.126956
0.142967
0.181762
0.149314
0.13456
0.162514
0.147128
0.193666
0.160346
0.131186
0.170601
0.182012
0.166127
0.167322
0.148306
0.186286
0.165713
0.131804
0.146431
0.166779
0.160844
0.152212
0.146752
0.0109374
0.00938856
0.0368094
0.0328026
0.0197683
0.0164077
0.0277405
0.0276039
0.00920152
0.00878381
0.0325699
0.0295331
0.0162564
0.0111511
0.022744
0.0328238
0.0669257
0.0630208
0.102953
0.091251
0.079828
0.0724947
0.0957532
0.0983832
0.0528854
0.0551645
0.0784539
0.0717882
0.0597577
0.0610685
0.0702728
0.0762416
0.0192915
0.0472698
0.040569
0.040797
0.0268787
0.0332682
0.032439
0.037707
0.0141287
0.0369258
0.0385246
0.0423885
0.0225309
0.0289785
0.0336223
0.0473575
0.0558927
0.0489724
0.0498354
0.0784745
0.0576802
0.0518117
0.0662933
0.0580548
0.0529734
0.0855009
0.0548296
0.0605119
0.0602327
0.0646737
0.0588717
0.0557643
0.0707894
0.0794892
0.0413655
0.0784894
0.0737077
0.0660366
0.0697128
0.0584244
0.09677
0.11164
0.0627392
0.0958843
0.102169
0.109436
0.0911767
0.0882886
0.0242843
0.0291476
0.00570586
0.0313709
0.0329189
0.0266818
0.0256066
0.0286214
0.0783525
0.0813381
0.0576339
0.0745477
0.0796858
0.0841321
0.0725685
0.0717595
0.0815672
0.0494934
0.0797429
0.0891193
0.076079
0.0658598
0.0842569
0.0799735
0.0802788
0.0933447
0.0678411
0.0447167
0.0686272
0.0751114
0.0479385
0.0629526
0.0481905
0.0738979
0.0796214
0.0521704
0.056625
0.0695347
0.0602472
0.0731341
0.042707
0.0498683
0.0781127
0.0538166
0.0427791
0.0605688
0.0545368
0.0568056
0.01434
0.0369334
0.0417796
0.0391766
0.0277935
0.0334621
0.0343815
0.0436894
0.0572575
0.0746901
0.0849638
0.0802401
0.0673215
0.073499
0.0751969
0.0831126
0.075559
0.100357
0.110713
0.110743
0.085689
0.0945909
0.0992308
0.115114
0.0644969
0.0835911
0.100363
0.0939261
0.0713003
0.0801159
0.0873901
0.0989389
0.0487796
0.054287
0.0495155
0.0707317
0.056425
0.0529788
0.0590558
0.0564346
0.0552798
0.0785612
0.0837687
0.0586816
0.0640701
0.073149
0.0620582
0.076614
0.0649111
0.0611063
0.0813843
0.0951331
0.072477
0.0728409
0.0765304
0.080297
0.0754785
0.115326
0.0906979
0.0989392
0.0884344
0.0865301
0.0872348
0.093119
-0.532526
-0.585251
-0.0524167
-0.0716691
0.259664
-0.0549603
-0.039733
-0.102645
-0.169414
-0.178299
-0.132525
-0.134287
-0.247219
-0.15298
-0.185703
-0.145181
0.0397493
0.0162995
0.0665611
0.0782649
0.0554934
0.0322938
0.0740851
0.0590072
0.0863593
0.0657903
0.120921
0.125405
0.0935765
0.0772208
0.146955
0.125834
-0.342588
-0.037729
0.0158709
0.0126133
-0.191669
-0.148603
-0.192894
-0.077675
-0.127972
-0.0144938
-0.0669038
-0.0743912
-0.113618
-0.0987099
-0.136478
-0.0230322
0.0370061
0.0793663
0.0415468
0.111811
0.0634631
0.0972387
0.081517
0.0727324
0.0391103
0.077286
0.0282128
0.0115125
0.0414757
0.0391135
0.00977818
0.0211481
-0.637797
-0.451957
0.0413511
0.0623253
-0.106897
-0.247216
-0.228089
-0.15911
-0.186042
-0.05007
-0.0372989
-0.0855274
-0.207537
-0.0451772
-0.213551
-0.192893
0.088528
0.0653175
0.105712
0.122798
0.123227
0.0909124
0.133649
0.109214
0.160142
0.126544
0.162903
0.195282
0.173381
0.156069
0.187839
0.173301
-0.257961
0.144065
0.124976
0.104619
-0.241604
0.01368
-0.0909087
0.0568112
-0.0724894
0.0163641
-0.011641
0.0302645
-0.166132
0.00118466
-0.075571
0.0728888
0.00113293
0.158225
0.0809953
0.131748
0.111252
0.154039
0.145362
0.0955506
0.11392
0.12194
0.0706204
0.00986158
0.0990056
0.116332
0.0249211
0.0982586
-0.693124
0.195656
-0.0756802
0.0505524
0.0486525
0.243365
0.337202
0.0904695
0.065804
0.0734837
0.0516286
0.0875163
0.0714916
0.0432847
0.0875781
0.0563095
-0.00227478
-0.169072
-0.103346
-0.0571085
0.0102283
0.0527608
-0.0648367
-0.0153567
0.115727
0.0961579
0.0647124
0.0921638
0.091923
0.0694567
0.121859
0.0871739
-0.0245216
0.0759583
0.0334653
0.0863611
-0.0757204
0.0257477
0.0297451
0.0108385
-0.01699
0.0687361
-0.0181059
0.0646206
-0.0248048
0.0461933
0.0128901
-0.0493193
0.0264153
0.064498
0.0916769
0.0292679
-0.0152607
0.0214711
0.0071484
0.0447055
0.00669034
-0.00118364
0.0535391
-0.0487456
-0.0709049
-0.0279285
-0.0780012
0.0229729
0.172055
0.142854
0.154363
0.156867
0.165838
0.15682
0.163848
0.157617
0.0983302
0.0595296
0.0967268
0.0686328
0.0792844
0.0814249
0.0825277
0.0857706
0.134564
0.116383
0.12465
0.129633
0.127933
0.122694
0.128543
0.123805
0.128552
0.0791928
0.123533
0.0948278
0.107058
0.103161
0.115007
0.112475
0.122796
0.142457
0.13742
0.0909094
0.121468
0.138725
0.111084
0.131439
0.118345
0.0893126
0.109981
0.135489
0.120653
0.100888
0.127436
0.113059
0.140955
0.142433
0.0943593
0.130518
0.141459
0.136674
0.127652
0.115824
0.136638
0.125177
0.0960657
0.111372
0.125693
0.120545
0.112774
0.106175
0.00286372
0.0615634
0.00281136
0.0615969
0.0281599
0.0477849
0.0163884
0.0686357
0.0788818
0.101126
0.0904412
0.114631
0.102127
0.0754726
0.0951445
0.0877749
-0.027644
0.0695316
-0.0523122
0.0192601
0.0822126
0.0441696
0.0522363
0.0497018
0.133401
0.145219
0.137816
0.193625
0.138463
0.138763
0.168838
0.141851
0.076524
0.0372826
0.0789672
0.12305
0.0777511
0.0704977
0.0913399
0.0929076
0.046481
0.118797
-0.00463517
0.00305186
0.103201
0.0925263
0.0887176
0.11663
-0.014323
0.104183
0.128404
0.067058
0.0646339
0.0887677
0.102999
0.105054
0.0789617
0.0692295
0.117341
0.090674
0.0520491
0.0770245
0.10691
0.0802276
0.143694
0.11602
0.155065
0.126195
0.129656
0.130084
0.13254
0.136846
0.0958748
0.0835611
0.102639
0.0899391
0.0914846
0.0912638
0.0947192
0.0949352
0.152282
0.12185
0.13771
0.138284
0.140191
0.134668
0.14165
0.136747
0.116615
0.0982334
0.126253
0.101155
0.104547
0.108564
0.106965
0.113675
0.108245
0.143042
0.126769
0.0972749
0.114394
0.129538
0.107459
0.124744
0.106959
0.0986999
0.112652
0.140563
0.113065
0.10447
0.124867
0.114483
0.150014
0.130497
0.102906
0.13205
0.144467
0.129254
0.127992
0.115487
0.14579
0.13151
0.103091
0.115935
0.132276
0.127013
0.119006
0.115223
0.165397
0.14662
0.170511
0.169213
0.164722
0.159488
0.170045
0.16449
0.123546
0.0989457
0.112819
0.110952
0.115332
0.110451
0.116907
0.109374
0.166317
0.126875
0.138395
0.149788
0.15247
0.141959
0.15544
0.139678
0.161982
0.127028
0.145706
0.139415
0.153853
0.145458
0.154401
0.145795
0.141348
0.166278
0.165188
0.131611
0.145452
0.156236
0.140534
0.15672
0.135574
0.125963
0.125766
0.159651
0.136887
0.126918
0.142974
0.132992
0.171912
0.170012
0.1336
0.158004
0.164768
0.160927
0.155862
0.147534
0.160509
0.147617
0.124829
0.124906
0.146504
0.147509
0.135457
0.128659
-1.34933
-0.685017
-0.188882
0.0300904
-0.171245
-0.313353
-0.321247
-0.428177
-0.586004
-0.79361
-0.533534
-0.0239493
-0.477808
-0.7284
-0.521506
-0.0811456
0.0310359
-0.358957
0.398415
0.00979066
0.0659983
-0.38518
-0.337483
-0.417116
0.154946
0.211361
0.154979
0.220136
0.250004
0.185285
0.127314
0.135031
-0.463916
-0.0777455
0.251078
0.247132
-0.516435
-0.257601
-0.0138457
-0.0198303
-0.502099
-0.00996016
-0.168164
-0.391977
-0.341995
-0.195159
-0.477452
-0.0302742
-0.286274
-0.0516611
-0.00916814
-0.0481933
0.143437
0.141746
0.203741
0.153496
-0.215485
0.0981714
0.188573
-0.52903
-0.0796841
0.05973
-0.298179
0.0665277
0.241291
-0.403
-0.12806
0.0876147
-0.0934023
-0.26777
0.132479
0.17626
-0.353315
-0.364843
-0.291486
0.15511
0.11739
-0.958823
-0.17429
-1.0367
-0.0755154
-0.234183
-0.21533
-0.076313
0.0518078
-0.258764
-0.078741
-0.171766
0.147146
0.302195
0.129097
0.222302
0.151826
0.364886
0.165102
0.169553
-0.481842
-0.292162
0.145117
0.230952
-0.0952862
-0.042556
0.285892
0.35496
-1.0462
0.217333
-0.500097
-0.337444
-0.652201
-0.116495
-0.327185
0.114426
-0.0887929
0.264387
0.174589
0.0743579
0.102258
0.267091
0.00452624
0.058733
-0.045833
0.0330801
0.108599
-0.0870909
-0.125236
0.00592636
-0.0436978
-0.055433
-0.910937
-0.417778
0.314594
0.0658992
0.677684
-0.0240309
-0.109752
-0.0329757
-0.453837
-0.82268
-1.30366
-0.218069
-0.421413
-0.749105
0.261936
-0.0730558
0.186065
-0.736287
0.162308
-5.96497
-0.256383
-0.702504
-0.251852
-0.438505
-0.028402
-0.197102
-0.505899
0.0409537
0.0194015
-0.232921
-0.0452438
0.0777083
0.0932105
0.43934
0.139842
0.0960487
0.137641
0.401935
-0.0610825
-0.0920346
-0.306652
-0.428471
-1.09942
-0.310653
0.0606799
0.558458
-0.528379
-0.190257
-0.280131
0.0746759
0.107955
0.973168
-0.749455
-0.168656
-0.231155
-0.00476143
0.085206
-3.16216
-0.680622
-0.233149
0.630818
-1.59743
0.351156
-0.0768597
0.137525
-0.571677
-0.296222
-7.23594
0.176605
0.271858
1.25403
0.994005
-1.14768
-0.691912
0.613375
0.0899751
-0.304466
-0.727503
0.0968141
-0.229606
-0.108152
0.169667
-0.285436
0.253073
0.187977
0.0822122
-0.0753035
0.0106068
-1.15535
-0.413898
0.406522
0.160861
-0.390507
-0.815987
0.651102
0.026625
0.0285548
0.612028
-0.268591
0.109937
1.20959
1.11671
0.31286
2.32094
-0.703515
-0.117285
0.761222
0.309327
0.383601
0.538697
0.390187
0.663764
0.414848
-0.325913
0.077021
0.749647
-0.106288
0.70593
0.0732873
0.237309
0.320948
0.318046
0.107919
0.281329
0.460873
-0.301943
-0.0783937
-0.156071
-1.03125
-0.403012
0.312488
0.210351
0.351376
0.0250102
-0.129198
0.178735
-0.559109
-0.44982
-0.535115
0.270362
-0.517587
-0.740253
0.0282599
0.296365
0.469226
-0.20081
0.568086
0.0173048
0.255328
-0.156039
-0.378383
-0.237686
0.301904
0.376284
0.176791
0.286455
0.392265
0.34291
0.222438
0.234918
-0.0366717
0.20083
0.419255
0.428377
0.0528595
0.264798
0.188856
0.147798
-0.359543
0.272512
-0.493705
-0.0387869
-0.00328486
0.243448
-0.220402
-0.231475
-0.183669
0.140289
0.119776
0.0744422
0.213879
0.230652
0.269561
0.226465
-0.0381881
0.180511
0.255044
-0.00824092
0.230201
0.243145
-0.116556
0.244003
0.382396
0.0471643
0.0932592
0.00761875
0.211245
-0.371635
0.133941
0.191708
0.18929
-0.110048
0.327437
0.417435
0.608959
-0.620628
-0.0552967
-0.968956
0.155732
0.177019
0.289076
0.116014
0.142968
0.273546
0.0499319
0.133699
0.19518
0.437405
0.25978
0.297866
0.297521
0.467962
0.252968
0.305756
0.31029
0.175714
0.299801
0.212682
0.105021
0.00281463
0.401478
0.404393
-0.388131
0.441383
0.326916
-0.228034
-0.65773
0.0691592
0.0152897
0.278347
-0.0708076
0.23532
0.32631
0.102617
0.22077
0.352383
0.123468
0.257277
0.0404915
0.249113
0.167495
-0.412117
0.111685
0.224366
0.0359352
0.258646
-1.02251
0.827823
-0.257611
0.192072
0.549748
0.105688
0.67722
0.415741
0.32359
0.153017
-0.137635
-0.0404028
0.169494
-0.54871
0.651621
-0.301536
-0.482017
-0.0443
-0.361365
0.191243
0.198589
-0.985826
0.557763
-0.199861
0.283561
0.232739
0.173707
0.265456
0.267413
0.302922
0.249355
0.273179
0.460025
0.324212
0.369446
0.288191
0.438705
0.483673
0.125531
0.372596
0.151612
0.211335
-0.92674
-0.0469114
0.340561
0.558809
-0.200221
0.29172
0.447778
0.377977
0.284033
0.290035
0.183577
0.335817
0.346822
0.212214
0.229715
0.338949
0.23881
-0.215981
0.513326
0.221523
0.560763
0.051198
0.158982
0.137467
0.085517
0.0759922
-0.0563403
0.0189834
-0.191109
-0.110222
0.0820422
-0.16726
0.0675786
0.539009
-0.286884
-0.376102
-0.335469
-0.945005
-0.0783788
-0.238682
0.168932
-0.111866
-0.232934
-0.33937
-0.43599
-0.519234
0.193529
0.259083
0.201436
0.260277
0.20446
0.405404
0.238648
0.247811
-0.218487
-0.158317
0.13978
0.195485
-0.29411
-0.116625
0.123695
0.138657
-0.131116
0.601022
-0.116007
-0.334241
-0.206726
-0.099489
-0.0742341
-0.557965
-0.420463
0.0593957
0.279093
0.260553
0.0942161
0.0926155
0.0718478
0.217897
-0.483366
0.155021
0.28213
-1.10747
-0.0775899
0.122409
-0.381796
0.0816394
-0.0349586
-0.0507202
-0.0697539
-0.0470254
0.0023411
0.00242873
-0.0273554
-0.00434524
-0.0398484
0.036527
-0.0714216
0.0303083
0.00258817
0.0112887
-0.0189749
0.00755071
-0.136323
-0.254775
-0.618058
-0.258334
-0.121305
-0.185531
-0.291553
-0.147865
-0.00627714
0.0452226
-0.0388086
0.0706334
0.0286727
0.0342941
0.035926
0.0454
-0.013047
-0.0520936
-0.0100098
0.000698008
-0.016901
-0.0601905
-0.0205633
-0.00838448
-0.0312009
-0.00843982
-0.0789755
-0.0874944
-0.0170965
-0.0351333
-0.0882996
-0.0422109
-0.0701391
-0.0230034
0.0177479
-0.0416121
-0.0867022
-0.0149802
-0.0292226
0.00611328
-0.0727979
-0.0398079
0.00416738
-0.0721959
-0.179665
-0.0931655
-0.124393
-0.115387
0.0114889
0.0360574
0.0110934
0.0350022
0.0259389
0.0258014
0.0235278
0.0261553
0.0708795
0.0949513
0.0733659
0.0933704
0.0903765
0.089727
0.0885881
0.086039
0.0127186
0.0439525
0.016043
0.0359869
0.0314325
0.0323174
0.0299152
0.0299263
0.0596255
0.08365
0.0626154
0.0902755
0.0751819
0.0787024
0.074901
0.0776085
0.0525469
0.0260326
0.0513025
0.0831258
0.0532413
0.0399465
0.0640456
0.05134
0.0551305
0.0844104
0.0618733
0.027152
0.0559668
0.0766158
0.038045
0.0618446
0.0251805
0.0487387
0.0842495
0.0508855
0.0352813
0.0511881
0.0523744
0.0708865
0.0272019
0.0523087
0.0817806
0.0589873
0.0429039
0.0534528
0.0606385
0.0696079
-0.181395
-0.0475807
-0.0783995
-0.209342
-0.0964223
-0.0120463
-0.130867
-0.113006
-0.0669553
-0.290983
-0.810189
-0.219159
-0.136948
-0.230395
0.0158819
-0.257721
-0.558494
-1.52101
-2.22405
-0.0869075
-0.441783
-1.2295
-0.0592161
-0.801574
0.0325238
0.0304142
0.0515019
0.0474902
0.021055
0.0339324
0.0200392
0.0358142
-0.220063
-0.173889
-0.0802808
-0.116418
-0.177456
-0.160701
-0.224887
-0.222495
-0.0465894
-0.204642
-0.636989
-0.354115
-0.112686
-0.0350654
-0.293525
-0.158753
-0.183908
-0.0126436
-0.0758653
0.0581121
-0.209792
-0.165826
-0.037003
-0.0825367
-0.206678
-0.0632928
-0.155579
-0.416977
0.112309
0.000873255
0.223151
-0.0512055
0.0247154
0.0509545
0.0479435
0.0555418
0.04248
0.0425298
0.0473901
0.0520731
0.0859548
0.126609
0.112887
0.135497
0.10979
0.111473
0.11723
0.12057
0.0695666
0.101474
0.087549
0.0980962
0.0873124
0.0906938
0.0902266
0.0937086
0.0840778
0.131437
0.109705
0.119086
0.107431
0.115524
0.110836
0.116181
0.07469
0.066836
0.0717038
0.113618
0.0785594
0.072887
0.0923205
0.0769797
0.0752005
0.118574
0.101614
0.0688341
0.0837979
0.109348
0.0797433
0.0995063
0.070085
0.0763163
0.119031
0.101971
0.0795067
0.0828339
0.0982999
0.109304
0.0745766
0.105767
0.122958
0.106712
0.0953238
0.103447
0.10395
0.114392
0.304194
0.333135
0.257037
0.293596
0.304867
0.300639
0.283335
0.266424
0.401929
0.235342
0.212757
0.0818518
0.341847
0.334589
0.110466
0.0320783
0.182743
0.124156
0.119421
0.140555
0.155917
0.144457
0.150909
0.117253
0.259057
0.20721
0.18154
0.222403
0.242198
0.206576
0.219383
0.187312
0.330972
0.238514
0.276242
0.207647
0.263637
0.266526
0.253362
0.273347
0.309333
0.157475
0.217709
0.247512
0.203394
0.132677
0.258638
0.189182
0.211418
0.253748
0.224204
0.175729
0.221623
0.22998
0.202365
0.235443
0.189965
0.139961
0.188382
0.165355
0.18656
0.179942
0.184241
0.174465
-0.746943
-0.595432
-0.38934
-0.400237
-0.669242
-0.578295
-0.533249
-0.467022
-0.521817
-0.650008
-0.93032
-0.395964
-0.54948
-0.622182
-0.450611
-0.523059
-0.678063
-1.47924
-2.19046
-0.068027
-0.496424
-1.33184
-0.212182
-0.861499
-0.0706201
-0.0247814
0.085322
0.0091898
-0.0646915
-0.0441298
-0.044543
-0.00202265
-0.579744
-0.456519
-0.267099
-0.252003
-0.543531
-0.513689
-0.415872
-0.47097
-0.51471
-0.445345
-0.82894
-0.583004
-0.50208
-0.463776
-0.572811
-0.481814
-0.499145
-0.149733
-0.0651529
-0.0783086
-0.457696
-0.321019
-0.292371
-0.0947717
-0.507244
-0.218342
-0.221389
-0.596217
-0.240056
-0.365948
-0.23072
-0.351875
-0.488353
-0.638616
-0.336831
-0.208548
-0.382013
-0.507066
-0.236298
-0.315009
-1.19011
-1.70907
-0.72535
-0.258989
-0.820141
-1.19579
-0.282608
-0.452931
-0.240477
-0.25385
-0.150583
-0.120814
-0.186011
-0.266314
-0.158929
-0.143012
0.0509122
0.0769133
0.0186604
0.0890876
0.0597498
0.0591039
0.0544579
0.0360997
-0.553685
-0.29071
-0.0487744
-0.0602729
-0.416945
-0.310913
-0.244611
-0.114969
-0.576947
-0.257175
-0.688575
-0.464744
-0.339074
-0.323819
-0.43047
-0.391295
-0.14367
0.0961725
0.144463
-0.00750349
-0.176649
-0.0233323
-0.0767915
0.0709411
-0.187364
-0.0892877
-0.0340869
-0.227291
-0.178638
-0.203708
-0.277897
-0.211329
-0.282116
-0.436082
-0.570098
-0.149919
-0.178028
-0.299567
-0.211968
-0.298302
-0.393781
-0.294809
-0.414637
-0.0592599
-0.139865
-0.290323
-0.102338
-0.211675
-1.133
-0.809287
-2.1895
-0.065626
-0.572154
-1.11854
-0.196394
-0.704927
-0.00211195
0.0712719
0.025434
0.0758273
0.0289871
0.0687039
0.045021
0.0567831
-0.156338
-0.37711
-0.107817
-0.117908
-0.136638
-0.192805
-0.0835512
-0.193356
-0.289418
-0.122745
-0.550223
-0.529012
-0.249973
-0.1181
-0.415247
-0.240585
-0.178007
-0.0805996
-0.0862885
-0.187974
-0.088492
-0.127753
-0.124694
-0.049542
-0.431326
-0.152
-0.08918
-0.351168
-0.0412753
-0.10371
-0.0548597
-0.0254441
-0.010854
-0.00188744
-0.0278702
-0.0334654
0.0187636
-0.00861944
0.00988729
-0.02441
-0.000790814
-0.000485708
0.0108111
0.0140627
0.0054979
0.000250018
0.0137871
0.00921702
-0.0202487
0.0217047
0.0295083
0.0464079
0.0049684
0.0140448
0.0347627
0.0260368
0.00373043
0.0322022
0.0384999
0.0706137
0.0278715
0.0302755
0.0500173
0.041735
0.00431452
-0.00198151
-0.00615308
0.0122754
0.011259
0.00405523
0.00561025
-0.00580369
-0.00504015
0.0104703
0.00651507
-0.00804004
-0.00423916
0.00594132
-0.00731107
0.00333473
0.00941804
0.00813515
0.0222122
0.0253651
-0.00550333
-0.00332975
0.0135131
0.0197666
-0.00909795
0.0270188
0.0190362
0.0158076
0.00834976
0.0169601
0.0212768
0.0250944
-0.596375
-0.70393
-0.759617
-0.205743
-0.386487
-0.546504
-0.413199
-0.494173
-0.659485
-0.711482
-0.627721
-0.2629
-0.485875
-0.598899
-0.378952
-0.477755
-1.13569
-0.808723
-1.62273
-0.189564
-0.576944
-0.989297
-0.193551
-0.623732
-0.0663243
-0.0346208
0.00116237
0.0755403
-0.0204762
-0.0266702
0.046337
0.0214702
-0.399831
-0.502265
-0.0960872
-0.159144
-0.319163
-0.315196
-0.206902
-0.201349
-0.564035
-0.242956
-0.62393
-0.663986
-0.457759
-0.314548
-0.611703
-0.383028
-0.272976
-0.0277608
-0.0764775
-0.0344137
-0.0332977
-0.081691
-0.0525465
-0.0273016
-0.515895
-0.057821
-0.127748
-0.435582
-0.15697
-0.106617
-0.234235
-0.122041
0.179518
0.189847
0.204779
0.186181
0.182631
0.188131
0.186731
0.193876
0.186183
0.155776
0.211471
0.172704
0.182595
0.181104
0.182807
0.188148
0.241013
0.252408
0.28071
0.254409
0.256253
0.26121
0.261167
0.268581
0.182623
0.172639
0.210947
0.156563
0.179568
0.182113
0.177036
0.186731
0.190392
0.214011
0.186706
0.183223
0.192466
0.198564
0.186295
0.19104
0.19346
0.18382
0.226596
0.219387
0.201094
0.198454
0.220626
0.224836
0.218241
0.190397
0.18435
0.222662
0.215279
0.197766
0.220167
0.195984
0.226964
0.231314
0.189442
0.234213
0.23592
0.22459
0.228448
0.213197
0.00596697
0.0250612
-0.0143016
0.0269966
0.00769145
0.0199663
0.0150865
0.00907137
0.0388052
0.0613585
0.00667863
0.0636631
0.0513072
0.0513155
0.0403476
0.0441767
-0.074392
-0.0632036
-0.0447348
-0.034569
-0.032057
-0.0869971
-0.00350244
-0.0349865
0.0637069
0.0800834
0.0573776
0.108175
0.0879826
0.0815098
0.0962352
0.0932973
0.0298764
-0.00373571
0.0412144
0.0584519
0.0296406
0.00082535
0.0468575
0.0403978
0.0355306
0.0489039
0.00355317
0.00326125
0.0249738
0.0175776
0.00838583
0.0191317
0.0124757
0.0490224
0.0469308
0.00674851
0.0208471
0.0501843
0.0244184
0.0401143
-0.0172991
-0.00576229
0.0494899
-0.00838772
-0.0218705
0.00268442
0.0168599
0.0212445
0.297227
0.262435
0.28414
0.265979
0.285747
0.276822
0.284137
0.271166
0.211616
0.153037
0.180341
0.168889
0.187808
0.171635
0.179897
0.174303
0.250795
0.203492
0.223467
0.201319
0.227607
0.215856
0.223209
0.215929
0.214126
0.170488
0.176462
0.152346
0.185286
0.178318
0.169275
0.171151
0.244964
0.262053
0.240122
0.191221
0.239409
0.249163
0.221091
0.234054
0.234209
0.181969
0.195889
0.252303
0.233837
0.199729
0.240064
0.21091
0.256807
0.229691
0.182911
0.196973
0.236535
0.229046
0.209115
0.199016
0.240218
0.196109
0.177862
0.198448
0.216618
0.199448
0.202183
0.183637
-0.679546
-0.320118
-0.309558
-0.273937
-0.217947
-0.37072
-0.17976
-0.263135
-0.0560171
0.027544
0.0906983
0.0543418
-0.00668488
-0.046428
0.0599313
0.018418
-0.556349
0.0515531
-0.87317
-0.0743457
-0.172769
0.129443
-0.177438
-0.00776689
-0.0273557
0.0527262
0.0441482
0.061618
0.0265453
0.00599033
0.0533795
0.044442
-0.0535626
-0.219625
-0.0468743
-0.00669439
-0.060609
-0.163908
-0.0903638
-0.0952506
-0.0798951
0.0949217
-0.0254972
-0.397741
-0.115732
0.0317733
-0.325671
-0.115488
0.0590232
-0.00727826
0.0357747
0.0142972
-0.0277872
-0.0563163
-0.0442337
-0.0211817
-0.167543
0.00977917
0.0908548
-0.0655431
-0.0358615
-0.0234129
-0.108258
0.0365821
0.0250798
0.0681362
0.0573785
0.0546328
0.0406543
0.0507784
0.0498175
0.0589243
0.119409
0.191523
0.177292
0.162894
0.145347
0.161758
0.158097
0.174125
0.0910961
0.154456
0.137185
0.137317
0.121613
0.130155
0.128599
0.140851
0.0874935
0.14176
0.136991
0.121784
0.112919
0.131833
0.126079
0.142163
0.0883921
0.0781859
0.075749
0.126525
0.0999978
0.0872811
0.102925
0.0923945
0.0993727
0.147046
0.144671
0.0858566
0.11159
0.14342
0.109025
0.134675
0.0888777
0.0870928
0.140379
0.132661
0.0992621
0.10143
0.121775
0.125791
0.0983153
0.14696
0.159711
0.1589
0.127714
0.136028
0.144498
0.155769
-0.0162462
0.0104668
0.000227616
-0.0398927
0.00558457
0.00728998
-0.000736112
0.00852965
0.00445584
0.00637596
0.00528946
0.02584
0.00872387
0.00296649
0.0145999
0.00926842
-0.00112483
0.00383576
0.00440596
0.0155516
0.00438577