/*--------------------------------*- C++ -*----------------------------------*\
| =========                 |                                                 |
| \\      /  F ield         | OpenFOAM: The Open Source CFD Toolbox           |
|  \\    /   O peration     | Version:  2412                                  |
|   \\  /    A nd           | Website:  www.openfoam.com                      |
|    \\/     M anipulation  |                                                 |
\*---------------------------------------------------------------------------*/
FoamFile
{
    version     2.0;
    format      ascii;
    arch        "LSB;label=32;scalar=64";
    class       surfaceScalarField;
    location    "10000";
    object      phi;
}
// * * * * * * * * * * * * * * * * * * * * * * * * * * * * * * * * * * * * * //

dimensions      [0 3 -1 0 0 0 0];

oriented        oriented;

internalField   nonuniform List<scalar> 
82592
(
4.09054e-06
-6.12473e-06
7.53884e-07
1.2803e-06
1.43279e-06
4.07818e-06
-6.10806e-06
5.97092e-07
-6.17095e-06
4.07104e-06
7.83729e-07
1.31618e-06
6.8672e-07
3.98405e-06
-5.95291e-06
1.28214e-06
4.74618e-06
5.4051e-06
-6.06074e-06
5.45502e-06
7.23948e-07
4.79319e-06
1.29863e-06
4.07726e-06
4.02396e-06
1.50997e-06
-6.15829e-06
6.24366e-07
1.65168e-06
4.0244e-06
-6.20831e-06
5.32239e-07
-6.22097e-06
1.54753e-06
4.01789e-06
6.55544e-07
5.83773e-07
1.47193e-06
3.9577e-06
-6.0134e-06
4.59535e-06
5.54731e-06
-6.1187e-06
5.6255e-06
6.21528e-07
4.62604e-06
1.50504e-06
4.03056e-06
4.07526e-06
-6.23311e-06
8.12768e-07
1.34508e-06
1.47359e-06
-6.23017e-06
4.03218e-06
7.24399e-07
-6.2288e-06
4.05829e-06
7.92665e-07
1.37785e-06
7.11376e-07
-6.06591e-06
4.00523e-06
1.3493e-06
4.81262e-06
5.47548e-06
-6.21283e-06
5.48926e-06
7.96948e-07
4.81088e-06
1.37597e-06
4.07134e-06
3.89274e-06
6.76612e-07
-5.85679e-06
1.28745e-06
1.35777e-06
6.53652e-07
3.87989e-06
-5.89132e-06
-5.9186e-06
6.86697e-07
3.91986e-06
1.31204e-06
7.00989e-07
3.84249e-06
-5.82653e-06
1.28305e-06
4.56302e-06
5.17095e-06
-5.84123e-06
5.25134e-06
6.69461e-07
4.57789e-06
1.29404e-06
3.91062e-06
5.49301e-06
4.67475e-06
-6.08957e-06
-6.16896e-06
4.7919e-06
5.44811e-06
4.62858e-06
5.2628e-06
-5.90733e-06
-3.92376e-06
4.55314e-06
5.30107e-06
-5.93045e-06
1.41624e-06
-6.44192e-07
4.72095e-06
-6.75463e-07
1.38389e-06
-5.95184e-06
5.33701e-06
5.53931e-06
6.45409e-07
6.28744e-07
5.39632e-06
-4.71365e-06
5.55519e-06
7.0599e-07
-1.45977e-06
5.47783e-06
7.73841e-07
4.05839e-06
6.20188e-06
6.19217e-06
4.05625e-06
6.85858e-07
5.53477e-06
-7.15511e-07
4.82577e-06
1.33785e-06
4.64924e-06
1.29017e-06
1.37551e-06
4.57921e-06
-5.32789e-06
4.67968e-06
1.3349e-06
-6.02904e-06
3.99049e-06
1.32304e-06
3.9572e-06
-6.00217e-06
4.66477e-06
4.07048e-06
-5.38897e-06
4.00275e-06
6.02345e-06
3.95209e-06
-4.72804e-06
4.05306e-06
-6.88064e-07
-1.45429e-06
-1.41227e-06
-6.47556e-07
3.96362e-06
6.03726e-06
-4.63629e-06
-4.42922e-07
-9.58055e-07
-8.38301e-07
6.14468e-06
-4.87879e-06
-4.27596e-07
-4.06745e-07
6.12911e-06
-4.82806e-06
-8.94302e-07
-4.78569e-06
6.1123e-06
-4.22822e-07
-9.03793e-07
1.30631e-06
5.16258e-06
-4.31633e-07
5.23556e-06
-4.76755e-06
1.29415e-06
-9.17252e-07
6.12297e-06
6.45035e-06
-6.48071e-07
-5.39071e-06
-4.11564e-07
-3.6578e-07
-6.37892e-06
-3.75446e-07
7.12014e-06
-4.15706e-07
-5.84821e-07
-5.78815e-06
6.78867e-06
-5.6751e-06
-6.15705e-07
-3.7354e-07
6.66434e-06
8.68238e-07
5.98234e-06
-4.0023e-07
6.30892e-06
-5.80647e-06
9.09863e-07
-6.02624e-07
6.80308e-06
6.30777e-06
-3.64021e-07
-5.07934e-06
-8.6441e-07
-7.29817e-07
-3.83158e-07
-5.55841e-06
6.67139e-06
-3.85785e-07
-5.36758e-06
-8.88901e-07
6.64227e-06
-5.21111e-06
-3.83958e-07
-8.67178e-07
6.46225e-06
1.14061e-06
5.54492e-06
-3.77757e-07
5.79685e-06
-5.38606e-06
1.1941e-06
-8.60297e-07
6.60517e-06
6.22078e-06
-4.93481e-06
-4.0979e-07
-8.76175e-07
-7.63411e-07
-5.29762e-06
-3.93533e-07
6.45457e-06
-3.93276e-07
-5.12471e-06
-8.60317e-07
6.3783e-06
-5.0703e-06
-4.08115e-07
-8.69168e-07
6.34758e-06
1.20662e-06
5.42307e-06
-4.08923e-07
5.53216e-06
-5.08895e-06
1.21818e-06
-8.65401e-07
6.35707e-06
5.4364e-06
1.12282e-06
-4.14531e-07
-3.95705e-07
1.20007e-06
5.32474e-06
1.23555e-06
5.29322e-06
-4.16479e-07
-6.30489e-06
1.07804e-06
5.63759e-06
-4.10739e-07
-7.9422e-07
5.10156e-06
1.12906e-06
4.93304e-06
-7.80167e-07
-4.23164e-07
5.38843e-06
5.60418e-06
-5.12944e-06
-5.34484e-06
5.80717e-06
-1.03941e-06
5.96465e-06
-5.51006e-06
7.67154e-07
5.45906e-06
-5.02614e-06
6.3466e-06
3.86641e-07
3.99139e-07
6.34954e-06
-5.19574e-06
5.70926e-06
4.98586e-06
1.20921e-06
-8.70334e-07
1.23969e-06
-8.81278e-07
-7.53428e-07
1.0934e-06
-5.46409e-06
1.19855e-06
-8.59168e-07
-3.90024e-07
6.24141e-06
-8.65529e-07
6.2381e-06
-3.95718e-07
1.17304e-06
6.30425e-06
-5.61854e-06
6.43314e-06
3.96127e-07
6.50444e-06
-1.0701e-06
6.65159e-06
5.18764e-06
7.38849e-07
7.42143e-07
5.37802e-06
6.51629e-06
-3.61399e-06
1.9182e-06
-1.00085e-06
-1.01323e-06
-3.59355e-06
1.91238e-06
1.97933e-06
-3.68268e-06
-1.03524e-06
2.63774e-06
-3.51029e-06
1.82405e-06
-9.51506e-07
-9.31589e-07
-4.56374e-06
1.88134e-06
-4.66498e-06
-9.25792e-07
-1.00021e-06
-3.61145e-06
-3.57977e-06
-1.0098e-06
1.89694e-06
-1.00675e-06
-3.57861e-06
1.88092e-06
1.9498e-06
-1.06169e-06
-3.63552e-06
2.64486e-06
-9.53196e-07
-3.5182e-06
1.82654e-06
-9.09566e-07
-4.52549e-06
1.85529e-06
-4.65477e-06
-9.01483e-07
-9.79149e-07
-3.60645e-06
-3.74485e-06
2.0509e-06
-1.08666e-06
-1.11229e-06
2.03739e-06
-3.72134e-06
2.13416e-06
-3.80798e-06
-1.16866e-06
2.71758e-06
1.9475e-06
-3.63356e-06
-1.03152e-06
-9.78475e-07
-4.77159e-06
2.00522e-06
-4.91435e-06
-9.70983e-07
-1.08303e-06
-3.75116e-06
-3.43898e-06
2.58258e-06
1.77772e-06
-9.21314e-07
-9.20221e-07
2.58229e-06
-3.44187e-06
1.77979e-06
1.82244e-06
2.61337e-06
-3.48402e-06
-9.51785e-07
2.53702e-06
-3.37253e-06
1.73598e-06
-9.00466e-07
-8.76175e-07
-4.34337e-06
1.78056e-06
-4.40188e-06
2.60548e-06
-8.73358e-07
-9.32994e-07
-3.4528e-06
-4.544e-06
-9.19523e-07
1.86997e-06
1.93766e-06
-9.59241e-07
-4.66111e-06
-8.97147e-07
-4.44308e-06
1.82994e-06
3.51545e-06
-9.07459e-07
-4.42486e-06
1.81687e-06
-9.88032e-07
-2.64302e-06
-9.12953e-07
-2.66182e-06
-9.612e-07
1.83363e-06
-4.52017e-06
-4.64824e-06
2.66635e-06
-4.52701e-06
9.35619e-07
-4.77762e-06
1.05523e-06
-4.77248e-06
-3.59979e-06
-1.96141e-06
-1.91258e-06
-3.64869e-06
-4.62565e-06
-2.67484e-06
-9.56544e-07
-1.02972e-06
-8.93786e-07
-9.66716e-07
-9.48531e-07
-8.94032e-07
4.51963e-06
-9.15818e-07
-9.90443e-07
1.88178e-06
-3.57037e-06
-9.86241e-07
-3.53218e-06
1.87523e-06
-9.25971e-07
-3.67813e-06
4.61455e-06
-3.58287e-06
-1.88124e-06
-3.53979e-06
9.28238e-07
-3.66847e-06
-2.69546e-06
1.02256e-06
9.93119e-07
-2.67486e-06
-3.56298e-06
2.37762e-06
7.8097e-07
-3.15859e-06
7.86721e-07
2.38196e-06
-3.16868e-06
-2.55924e-06
2.54568e-06
1.35645e-08
-4.77167e-07
2.58037e-06
1.17093e-06
-3.27413e-06
2.10092e-06
4.12853e-06
-3.85183e-06
2.88764e-06
2.42854e-06
1.22283e-06
2.75693e-06
2.39448e-06
7.87782e-07
-3.18227e-06
6.91775e-07
2.54088e-06
-3.23265e-06
-3.02572e-06
4.23997e-07
2.60173e-06
-1.94263e-07
9.54082e-07
2.32788e-06
-3.08769e-06
2.32173e-06
3.42497e-06
-3.35221e-06
3.0135e-06
2.64268e-06
5.88022e-07
2.63046e-06
2.40002e-06
-2.62388e-06
2.23863e-07
4.33315e-07
-2.94554e-06
2.51223e-06
-2.78092e-06
4.43468e-07
2.33745e-06
-1.25373e-07
-3.1176e-06
7.39088e-07
2.50389e-06
2.39893e-06
2.9617e-06
-2.96061e-06
2.83225e-06
2.469e-06
3.67334e-07
2.52032e-06
1.67404e-06
-2.73869e-07
8.71393e-07
-2.27157e-06
1.12094e-06
-2.76355e-07
1.65933e-06
-2.50391e-06
-2.70556e-06
-2.89169e-07
1.08252e-06
1.91221e-06
-2.04714e-07
9.5367e-07
1.58932e-06
-2.33828e-06
1.55892e-06
2.43507e-06
-2.31995e-06
2.96611e-06
-2.86249e-07
1.37354e-06
8.56815e-07
1.63409e-06
3.74934e-06
2.18243e-06
-3.54981e-06
-3.27206e-06
2.43962e-06
3.37812e-06
2.13846e-06
3.3319e-06
-2.88999e-06
-2.40212e-06
2.14321e-06
3.26369e-06
-3.00477e-06
8.23907e-07
3.12969e-07
2.61247e-06
3.08773e-07
9.99414e-07
-3.08857e-06
3.44665e-06
2.97021e-06
-1.6528e-07
3.26257e-06
-2.45699e-06
2.88099e-06
-3.62512e-07
2.80214e-06
2.68689e-06
2.89579e-06
3.10963e-06
2.53328e-06
3.18592e-06
2.61638e-07
2.46039e-06
6.56094e-07
2.1974e-06
8.60633e-07
9.22611e-07
2.06472e-06
-3.39684e-06
2.28183e-06
8.25847e-07
-3.17064e-06
2.57508e-06
8.57196e-07
2.47341e-06
-3.10977e-06
2.28801e-06
2.63864e-06
-3.21878e-06
2.38301e-06
3.09073e-06
2.23657e-06
-2.59912e-06
2.53457e-06
1.16322e-07
-4.38292e-07
-8.14451e-07
1.48506e-07
2.42478e-06
3.20402e-06
9.17279e-07
-4.1213e-06
7.32587e-07
2.52544e-06
-3.25802e-06
-2.9658e-06
2.99042e-06
-2.46238e-08
-5.19106e-07
2.39723e-06
9.56498e-07
-2.83462e-06
2.35144e-06
4.50662e-06
-3.65404e-06
3.08403e-06
3.11091e-06
8.76604e-07
3.22913e-06
2.8205e-06
3.02216e-07
-3.12271e-06
2.86038e-07
2.86858e-06
-3.15462e-06
-3.06062e-06
1.15437e-07
2.94518e-06
-1.63169e-07
8.86141e-07
2.32945e-06
-3.05243e-06
2.74751e-06
3.28426e-06
-3.21127e-06
3.03354e-06
2.92108e-06
2.00007e-07
2.89401e-06
2.86103e-06
-2.96666e-06
1.05624e-07
7.57171e-08
-2.93478e-06
2.85907e-06
-3.0056e-06
1.16442e-07
2.88916e-06
3.96279e-08
-2.86996e-06
3.94662e-07
2.43567e-06
2.81781e-06
3.05999e-06
-3.01677e-06
2.89353e-06
3.05276e-06
4.68605e-08
2.94068e-06
1.78719e-06
-2.37114e-07
6.90634e-07
-2.24071e-06
7.91151e-07
-2.49945e-07
1.90555e-06
-2.44675e-06
-2.46646e-06
-2.51355e-07
7.21599e-07
1.99622e-06
-1.48149e-07
7.3775e-07
1.60042e-06
-2.19002e-06
1.71916e-06
2.40819e-06
-2.34016e-06
2.73251e-06
-2.22199e-07
1.58953e-06
6.7051e-07
1.85558e-06
3.3034e-06
2.40005e-06
-3.17801e-06
-3.31261e-06
2.83783e-06
3.46521e-06
2.1686e-06
3.10918e-06
-2.88056e-06
-2.31582e-06
2.09551e-06
3.22405e-06
-3.00374e-06
2.68361e-07
1.92595e-07
2.84244e-06
1.84885e-07
8.10168e-07
-2.93339e-06
3.16366e-06
2.70226e-06
-1.07698e-07
3.08935e-06
-2.78592e-06
2.90135e-06
3.5994e-09
2.83423e-06
2.88282e-06
2.66189e-06
2.97513e-06
2.66548e-06
2.8547e-06
2.44835e-07
3.11437e-06
1.06004e-07
2.0767e-06
7.9537e-07
8.66625e-07
2.10748e-06
-3.23203e-06
2.3238e-06
6.56877e-07
-2.97873e-06
2.673e-06
5.50562e-07
2.26163e-06
-2.90605e-06
2.34702e-06
2.98194e-06
-2.93605e-06
2.38989e-06
2.88547e-06
2.31135e-06
-2.8563e-06
2.82288e-06
-2.48795e-08
-9.94872e-09
-6.13911e-07
-1.15571e-08
2.26001e-06
5.22679e-07
-4.29981e-08
3.61762e-06
4.94688e-07
-8.01259e-08
-4.0742e-06
4.85213e-07
-4.65424e-08
-6.52195e-08
5.52249e-07
4.50115e-07
4.1439e-06
4.12111e-06
-5.33748e-08
4.7223e-07
5.19139e-07
4.71889e-07
3.65989e-06
-1.13883e-07
3.72607e-06
-1.94479e-07
4.92809e-07
-4.08852e-06
3.7709e-06
-1.28835e-07
4.46453e-07
-1.25459e-07
3.5601e-06
5.23063e-07
3.48597e-07
4.15385e-06
4.21791e-06
-1.43246e-07
3.54107e-07
3.67429e-06
4.83503e-07
4.60373e-07
-4.11375e-06
-6.79633e-08
3.79351e-06
-4.11947e-06
-1.03714e-07
4.29675e-07
-4.14356e-06
-8.18884e-08
4.17466e-07
-1.03765e-07
-4.04542e-06
5.15628e-07
3.41803e-07
4.21159e-06
-4.09302e-06
4.22206e-06
-8.67496e-08
3.56665e-07
4.35163e-07
5.52102e-07
-7.41033e-08
3.43759e-06
-8.96124e-08
5.31917e-07
-3.9346e-06
-8.36848e-08
5.34267e-07
-6.27187e-08
5.32679e-07
4.71729e-07
3.991e-06
3.99426e-06
-8.49395e-08
4.75481e-07
5.35137e-07
4.14779e-06
3.99958e-07
-4.07964e-06
4.06658e-07
4.15819e-06
4.66106e-07
4.08889e-06
-5.25302e-07
4.24024e-07
4.05336e-06
3.64523e-06
9.30274e-08
4.09532e-07
8.47369e-08
3.53135e-06
4.08219e-06
4.15985e-06
-1.00002e-07
-1.14967e-07
4.09909e-06
-3.45625e-07
4.22812e-06
-1.11594e-07
-3.70581e-06
4.18821e-06
-7.57399e-08
4.82798e-07
4.08659e-06
4.04212e-06
4.67169e-07
-8.63919e-08
4.16366e-06
7.72105e-08
4.12505e-07
4.74992e-07
3.53666e-06
4.27093e-07
-4.09762e-06
4.31066e-07
-4.01736e-06
5.31588e-07
5.39828e-07
-3.99155e-06
4.25516e-07
4.86964e-07
-4.12602e-06
5.11662e-07
4.0004e-06
5.25779e-07
-3.47968e-07
4.56616e-07
1.02387e-07
-3.70845e-06
-3.59811e-06
1.07246e-07
5.09535e-07
5.64417e-06
-3.46963e-06
-1.76751e-06
-4.07031e-07
-1.7248e-06
5.72704e-06
-3.57614e-06
-4.26105e-07
-4.02938e-07
5.71804e-06
-3.55426e-06
-1.76085e-06
-3.50895e-06
5.6913e-06
-1.75841e-06
-4.23933e-07
2.15285e-06
3.91115e-06
-4.19828e-07
3.95236e-06
-3.5243e-06
2.16032e-06
-1.75813e-06
5.70975e-06
5.91926e-06
-1.67522e-06
-3.77527e-06
-4.68777e-07
-1.64901e-06
-4.01127e-06
-5.48026e-07
-4.81294e-07
-1.73358e-06
-3.94341e-06
-3.80495e-06
-1.7085e-06
-4.99956e-07
2.14053e-06
4.27364e-06
-4.94912e-07
4.44331e-06
-3.95179e-06
2.15668e-06
-1.68799e-06
5.8755e-06
-3.78303e-07
-3.68995e-06
-1.80725e-06
-1.81084e-06
-4.3588e-07
-3.86134e-06
-3.87463e-07
-3.81964e-06
-1.91762e-06
-3.69444e-06
-4.06821e-07
-1.85165e-06
2.20203e-06
4.07408e-06
-4.00613e-07
4.21313e-06
-3.82194e-06
2.23507e-06
-1.85544e-06
5.75748e-06
-3.54343e-06
-1.77143e-06
-4.4262e-07
-1.76057e-06
-3.65793e-06
-4.72822e-07
-4.34487e-07
-3.61449e-06
-1.80782e-06
-3.57441e-06
-1.79338e-06
-4.58746e-07
2.20771e-06
4.0084e-06
-4.58632e-07
4.0519e-06
-3.60476e-06
2.22382e-06
-1.78983e-06
4.04736e-06
2.12677e-06
-4.47092e-07
-4.12709e-07
2.15046e-06
3.98029e-06
2.16836e-06
3.96151e-06
-4.3857e-07
-5.80774e-06
2.17397e-06
4.10163e-06
-4.67853e-07
-1.7238e-06
3.62495e-06
2.14621e-06
3.57324e-06
-1.73182e-06
-4.50978e-07
4.00978e-06
4.14268e-06
-3.69112e-06
-3.73254e-06
4.19801e-06
-2.16841e-06
4.31364e-06
-3.87881e-06
1.74976e-06
4.06284e-06
-3.66214e-06
5.86595e-06
4.22939e-07
4.45414e-07
5.89093e-06
-3.71823e-06
4.16793e-06
3.58972e-06
2.1649e-06
-1.77433e-06
2.18371e-06
-1.76563e-06
-1.74694e-06
2.19064e-06
-4.0216e-06
2.21337e-06
-1.80626e-06
-4.14907e-07
5.78417e-06
-1.77955e-06
5.77859e-06
-4.26894e-07
2.18946e-06
5.84944e-06
-4.10077e-06
4.58202e-07
-2.21181e-06
3.68228e-06
1.76655e-06
1.77097e-06
3.72267e-06
6.36395e-06
-4.38204e-06
-1.1684e-06
-8.13508e-07
-1.08125e-06
6.49345e-06
-4.41892e-06
-9.93272e-07
-4.41743e-06
6.5141e-06
-1.14702e-06
-9.49653e-07
-8.59441e-07
6.44256e-06
-4.43093e-06
-1.15218e-06
5.50584e-06
5.25716e-06
-4.39905e-06
5.32578e-06
-9.0119e-07
5.55333e-06
-1.15562e-06
6.46169e-06
6.77459e-06
-9.46455e-07
-4.59817e-06
-1.22996e-06
-8.02256e-07
-4.99076e-06
7.37824e-06
-1.58522e-06
-4.80567e-06
-9.40228e-07
7.03642e-06
-1.29052e-06
-1.19707e-06
-9.48165e-07
-4.81383e-06
6.95906e-06
5.59902e-06
5.904e-06
-4.72843e-06
6.11503e-06
-1.31826e-06
5.68324e-06
-9.76303e-07
6.99259e-06
6.71999e-06
-4.50959e-06
-1.17528e-06
-1.03512e-06
-1.10052e-06
-4.7188e-06
6.91546e-06
-1.09614e-06
-4.65196e-06
6.91075e-06
-1.233e-06
-1.02578e-06
-9.57093e-07
-4.56331e-06
6.70756e-06
-1.18716e-06
5.75742e-06
5.54693e-06
-4.58437e-06
5.69269e-06
-1.03578e-06
5.79733e-06
-1.20749e-06
6.83806e-06
6.51065e-06
-8.7764e-07
-4.47266e-06
-1.16035e-06
-1.08063e-06
-1.01198e-06
-4.61667e-06
6.70928e-06
-4.52697e-06
-9.17141e-07
6.62324e-06
-1.17913e-06
-8.87215e-07
-4.51459e-06
6.58509e-06
-1.18328e-06
5.61662e-06
5.38247e-06
-4.48844e-06
5.4577e-06
-9.21701e-07
5.66696e-06
-1.1717e-06
6.59769e-06
5.5019e-06
5.48703e-06
-4.49548e-06
-4.45791e-06
5.58143e-06
5.39058e-06
5.5547e-06
5.33568e-06
-4.44782e-06
-6.62338e-06
5.59755e-06
5.61126e-06
-4.58543e-06
-1.08673e-06
9.8426e-07
5.60438e-06
9.17041e-07
-1.07065e-06
-4.56847e-06
5.40109e-06
5.63146e-06
-1.09088e-06
-1.06687e-06
5.71625e-06
-5.66855e-06
5.86131e-06
-1.13299e-06
1.06628e-06
5.5158e-06
-1.00066e-06
6.65856e-06
4.57727e-06
4.61539e-06
6.74691e-06
-1.10336e-06
5.69375e-06
9.20001e-07
5.63265e-06
-1.16207e-06
5.61234e-06
-1.1543e-06
-1.0846e-06
5.68388e-06
-5.4336e-06
5.69555e-06
-1.17909e-06
-4.4831e-06
6.56822e-06
-1.16512e-06
6.53033e-06
-4.52403e-06
5.65865e-06
6.63887e-06
-5.54056e-06
6.67281e-06
4.6546e-06
6.74554e-06
-5.74503e-06
6.88755e-06
9.58356e-07
1.09614e-06
1.07644e-06
1.04487e-06
6.77591e-06
4.06717e-07
-3.50609e-06
3.09937e-06
3.02618e-06
4.33843e-07
-3.46003e-06
-3.36606e-06
4.41547e-07
2.92451e-06
-7.86446e-08
4.4666e-07
-2.99252e-06
2.6245e-06
4.01634e-07
3.58399e-06
-3.57891e-06
3.42781e-06
2.73088e-07
3.23226e-06
3.34841e-07
8.10978e-07
2.64347e-06
-3.45445e-06
3.53038e-06
6.94108e-07
-4.22449e-06
-3.67248e-06
3.2087e-06
4.63778e-07
-2.33023e-07
2.58231e-06
3.86421e-07
-2.73571e-06
6.92249e-07
4.02807e-06
-3.90935e-06
4.22263e-06
4.24301e-07
3.37075e-06
9.74458e-07
2.10787e-07
-2.86436e-06
2.65357e-06
3.10327e-06
-3.35661e-06
2.5334e-07
-3.30739e-06
1.24559e-07
3.18284e-06
1.32712e-08
-2.91457e-06
2.38712e-07
2.66259e-06
2.7499e-07
3.44724e-06
-3.51145e-06
3.37826e-06
2.12402e-07
3.24811e-06
2.83266e-07
5.44889e-07
-1.17456e-07
-2.47834e-06
2.05091e-06
2.11368e-06
-1.44504e-07
5.21129e-07
-2.49031e-06
-2.59163e-06
-9.8751e-08
5.01333e-07
2.18904e-06
-1.43179e-07
3.50548e-07
-2.24592e-06
2.03855e-06
4.3745e-07
2.68022e-06
-2.57278e-06
2.69624e-06
-1.45104e-07
4.82183e-07
2.05486e-06
5.86795e-07
3.64035e-06
4.10687e-07
-3.61719e-06
-3.47178e-06
4.70139e-07
3.44318e-06
3.34729e-07
3.06877e-06
-2.95684e-06
-3.85307e-07
2.40363e-07
2.9715e-06
-2.82656e-06
3.23845e-06
1.26695e-07
2.75204e-07
1.01508e-07
2.59953e-06
-2.85814e-06
3.03577e-06
3.05416e-06
-1.4951e-07
2.97218e-06
-4.4201e-07
3.65071e-06
-2.43688e-06
2.90702e-06
4.21217e-07
2.90815e-06
3.64246e-06
4.71263e-07
3.67171e-06
1.87902e-08
2.55685e-07
3.16871e-06
3.52728e-07
2.59859e-06
2.53797e-06
2.89031e-07
-2.96818e-06
2.6829e-07
2.60114e-06
-2.93868e-06
3.76347e-07
2.58113e-06
4.49813e-07
-2.84268e-06
2.50843e-07
2.98349e-07
-2.96052e-06
3.14233e-07
2.85998e-06
4.0123e-07
-3.29788e-07
6.23888e-07
4.96732e-08
-3.26277e-06
-2.66e-06
7.91515e-08
2.79135e-07
-5.89474e-07
2.89397e-06
3.35699e-07
2.90144e-06
-5.90053e-07
3.28803e-07
3.4361e-07
-5.98559e-07
2.89514e-06
-2.65794e-06
-5.94171e-07
2.99145e-06
2.60654e-07
-3.23818e-06
2.3357e-06
3.13006e-07
2.30346e-06
-3.24827e-06
2.92603e-06
-6.012e-07
-5.98464e-07
2.9148e-06
3.23859e-07
2.93383e-06
-6.08212e-07
3.14575e-07
3.45299e-07
2.90354e-06
-6.08642e-07
-2.6623e-06
3.05985e-06
-6.31892e-07
2.3435e-07
-3.26201e-06
2.3617e-06
3.01845e-07
2.31201e-06
-3.27082e-06
2.97021e-06
-6.13507e-07
-6.02397e-07
3.50926e-07
2.89166e-06
2.89243e-06
3.54854e-07
-6.07089e-07
3.57424e-07
-6.06249e-07
2.88902e-06
-2.65176e-06
3.13336e-07
-6.16538e-07
2.95496e-06
-3.24488e-06
2.3082e-06
3.3428e-07
2.28774e-06
-3.25281e-06
2.90925e-06
-6.07642e-07
-6.28e-07
-2.7206e-06
3.15425e-06
1.94349e-07
3.21657e-06
-2.72812e-06
-6.5649e-07
1.68041e-07
2.41205e-07
-2.70356e-06
-6.3796e-07
3.10032e-06
-2.81122e-06
-6.63526e-07
3.33438e-06
1.40364e-07
-3.414e-06
2.60333e-06
1.82677e-07
2.54374e-06
-2.74117e-06
-3.43696e-06
3.22907e-06
-6.52015e-07
2.34794e-06
-3.24477e-06
3.06783e-07
3.21116e-07
-3.24278e-06
2.32311e-06
-3.28581e-06
2.45824e-06
2.33404e-07
6.05891e-07
-3.31164e-06
2.48038e-06
2.25368e-07
2.94627e-06
2.6651e-06
-3.26343e-06
2.66618e-06
3.03039e-06
2.40601e-07
2.41076e-06
2.31022e-06
-2.67497e-06
2.42318e-06
3.25027e-06
2.29346e-06
-2.9001e-06
2.29751e-06
-6.10433e-07
-3.42783e-07
-3.15192e-07
-6.02686e-07
2.33239e-06
2.65427e-06
-3.2495e-06
2.91834e-06
-3.31699e-06
3.05463e-06
3.09626e-06
-3.344e-06
-2.41991e-06
-3.31207e-06
3.02842e-06
2.86963e-07
-6.06631e-07
2.97394e-06
-6.19264e-07
2.64178e-07
-3.29072e-06
-6.01071e-07
-2.37383e-06
-6.24903e-07
-2.85986e-07
-6.34828e-07
3.25869e-06
-6.10375e-07
2.66115e-06
-2.92794e-06
-3.0034e-06
2.66313e-06
-6.26252e-07
6.28706e-07
-3.43338e-06
-1.57737e-06
4.40024e-06
6.18859e-07
-3.44223e-06
-1.57687e-06
-1.50647e-06
6.63836e-07
-3.57629e-06
-3.52126e-06
6.48636e-07
-1.55831e-06
-2.83809e-06
5.0322e-06
-1.5654e-06
5.03823e-06
-3.47608e-06
-2.88811e-06
6.43653e-07
6.12967e-07
4.40592e-06
-3.44217e-06
-1.57672e-06
4.40934e-06
-3.44849e-06
6.15502e-07
-1.57635e-06
-1.51572e-06
4.47708e-06
-3.59212e-06
6.30758e-07
-3.49894e-06
4.42741e-06
6.2934e-07
-1.55781e-06
-2.84978e-06
5.02946e-06
-1.56672e-06
5.02661e-06
-3.46705e-06
-2.87933e-06
4.40984e-06
6.31566e-07
6.84115e-07
-1.41795e-06
-3.86434e-06
4.67507e-06
-1.43944e-06
-3.89093e-06
6.55297e-07
-1.34763e-06
-4.40672e-06
7.63583e-07
-4.06076e-06
-1.43866e-06
6.85594e-07
-3.26122e-06
5.37626e-06
-1.43093e-06
5.44309e-06
-4.02923e-06
-3.41293e-06
6.82527e-07
6.60537e-07
-3.5718e-06
-1.5614e-06
4.46144e-06
-3.54888e-06
6.48471e-07
-1.56103e-06
-1.52092e-06
-3.76652e-06
6.70771e-07
-3.60598e-06
6.72887e-07
-1.5815e-06
-2.9068e-06
5.13858e-06
-1.57125e-06
5.14011e-06
-3.58547e-06
-2.95584e-06
6.63353e-07
5.03525e-06
-2.85053e-06
-1.56586e-06
-1.50995e-06
-2.96543e-06
5.13921e-06
-2.88098e-06
5.08754e-06
-1.55792e-06
-6.34298e-07
-2.88557e-06
5.07907e-06
-1.55921e-06
4.41098e-06
3.50143e-06
-2.87717e-06
3.54468e-06
4.42545e-06
-1.55831e-06
5.08915e-06
5.03003e-06
-3.47463e-06
-3.53183e-06
5.07367e-06
2.99774e-06
5.15002e-06
-3.67068e-06
-4.46822e-06
5.15522e-06
-3.65242e-06
6.36507e-07
1.51636e-06
1.51452e-06
6.35856e-07
-3.58772e-06
5.14812e-06
3.7214e-06
-3.07766e-06
-2.93208e-06
4.44651e-06
-2.91631e-06
-5.22221e-06
-3.12974e-06
-1.49938e-06
6.52305e-07
6.57685e-07
-1.51872e-06
-3.05119e-06
6.59603e-07
-5.23912e-06
6.70718e-07
1.51185e-06
6.45516e-07
3.0527e-06
6.57886e-07
3.75685e-06
-4.52817e-06
-4.53346e-06
3.67265e-06
6.51036e-07
4.75098e-06
2.98511e-07
-2.82274e-06
-2.22675e-06
-2.90883e-06
5.06246e-06
6.46238e-08
-2.21825e-06
3.27567e-07
4.70741e-06
-2.81388e-06
-2.2211e-06
-2.17961e-06
5.11171e-06
5.47956e-08
-2.98689e-06
2.65576e-06
1.94642e-06
1.48791e-07
1.96207e-06
-2.21514e-06
2.64318e-06
-2.87637e-06
4.93282e-06
5.26215e-06
-3.05254e-06
5.60806e-08
-2.26569e-06
-3.15597e-06
1.41554e-07
-2.35317e-06
1.60654e-07
-2.98507e-06
-2.25492e-06
-2.28455e-06
-3.22407e-06
-4.97928e-08
3.03527e-06
2.2173e-06
9.58048e-09
2.18945e-06
-2.31015e-06
3.03596e-06
-3.1032e-06
4.66955e-06
3.70324e-07
-2.81238e-06
-2.2275e-06
-2.87739e-06
2.70485e-07
-2.22115e-06
4.0001e-07
-2.80876e-06
-2.22754e-06
-2.1966e-06
2.15826e-07
-2.89801e-06
2.51467e-06
1.85336e-06
3.01529e-07
1.86067e-06
-2.2234e-06
2.50686e-06
-2.8501e-06
5.56711e-06
-2.1631e-06
-1.25154e-07
-3.27885e-06
-3.38187e-06
-2.2265e-06
-1.79771e-07
-7.41352e-08
-2.16941e-06
-3.14717e-06
-2.16458e-06
-5.23211e-07
-3.69113e-06
3.518e-06
2.33524e-06
-2.86135e-07
2.30811e-06
-2.17198e-06
3.57249e-06
-3.40182e-06
2.13188e-06
2.92283e-06
7.75202e-09
2.28213e-07
2.58682e-06
1.89238e-06
3.03506e-06
2.13292e-06
-5.62714e-08
-5.38611e-06
3.20875e-06
2.23768e-06
-6.03179e-08
-2.97441e-06
2.21525e-06
2.89105e-06
2.18662e-06
-3.10597e-06
-6.48987e-08
2.11571e-06
2.1197e-06
-2.24942e-06
-2.24218e-06
2.22686e-06
-2.75772e-06
2.00836e-06
-2.2357e-06
2.89603e-06
1.9111e-06
-2.22031e-06
5.21504e-06
-2.04295e-07
-1.30337e-07
4.90217e-06
-2.21044e-06
2.01411e-06
2.18769e-06
2.56862e-06
-2.86392e-06
3.05076e-06
-3.08094e-06
-3.20187e-06
3.21305e-06
-2.03266e-06
2.87797e-06
-3.01472e-06
1.47753e-07
4.97544e-06
-2.93551e-06
5.31422e-06
5.96309e-08
2.88315e-06
4.85004e-06
-2.03564e-06
-7.01559e-08
-2.7473e-06
2.19978e-06
2.95179e-06
3.04729e-06
2.21861e-06
3.46163e-06
-8.74014e-07
-1.72408e-07
-8.60236e-07
3.4489e-06
-1.73462e-07
-1.81353e-07
3.45663e-06
-8.60072e-07
-2.44776e-06
3.68502e-06
-9.33593e-07
-3.03665e-07
1.04509e-06
2.64446e-06
-2.2792e-07
2.60006e-06
1.09671e-06
-9.00012e-07
3.51542e-06
3.44027e-06
-8.57597e-07
-1.67468e-07
-8.47967e-07
-1.70204e-07
-1.76822e-07
-8.50201e-07
-2.43068e-06
-8.74505e-07
-2.71102e-07
1.02681e-06
2.61988e-06
-2.06414e-07
2.59405e-06
1.05885e-06
-8.69656e-07
3.44867e-06
-1.77765e-07
-8.55697e-07
-8.5499e-07
-1.71976e-07
-1.71264e-07
-8.62017e-07
-2.42644e-06
-2.57395e-07
-9.08292e-07
1.03406e-06
2.60167e-06
-1.87056e-07
2.59427e-06
1.04404e-06
-8.6881e-07
4.00796e-06
-2.54314e-06
-1.02724e-06
-4.37574e-07
-9.68075e-07
-2.49871e-06
-3.97552e-07
-3.80059e-07
-2.50344e-06
-1.00743e-06
-2.68327e-06
-1.13243e-06
-5.91027e-07
1.41304e-06
3.066e-06
-4.71074e-07
2.96085e-06
-2.51589e-06
1.44844e-06
-1.06571e-06
2.63551e-06
1.03434e-06
-2.20947e-07
-2.06834e-07
1.03336e-06
2.6301e-06
1.19206e-06
2.85078e-06
-3.57821e-07
-3.60292e-06
1.1517e-06
2.77696e-06
-3.25737e-07
-8.76129e-07
2.43212e-06
1.07952e-06
2.43245e-06
-8.90572e-07
-2.80234e-07
2.73394e-06
2.59195e-06
-2.43133e-06
2.70853e-06
-1.02679e-06
2.59179e-06
8.53223e-07
2.59535e-06
3.49489e-06
1.76582e-07
1.93899e-07
3.44501e-06
2.61212e-06
2.44262e-06
1.08829e-06
-9.00806e-07
1.28752e-06
-9.79877e-07
-9.30901e-07
1.20915e-06
-2.74518e-06
1.195e-06
-9.53262e-07
-2.79937e-07
3.62986e-06
-9.07299e-07
3.74152e-06
-2.94735e-07
1.17941e-06
3.50587e-06
-2.73307e-06
2.65257e-07
-1.05482e-06
2.44297e-06
8.75846e-07
8.89308e-07
2.43315e-06
-4.8609e-07
-4.12765e-06
4.23829e-06
-3.73144e-06
-6.44758e-07
4.00266e-06
3.88993e-06
-6.68562e-07
-3.63293e-06
3.65361e-07
-6.09876e-07
-3.92147e-06
4.16598e-06
-2.20585e-07
-4.39292e-06
4.12742e-06
-4.35225e-06
-1.89745e-07
-3.83782e-06
-6.52069e-07
-7.59682e-07
-3.49926e-06
3.86541e-06
-3.36399e-06
-8.35344e-07
3.79122e-06
3.72364e-06
-3.29645e-06
-8.36979e-07
4.09259e-07
-3.43145e-06
-8.10013e-07
3.83221e-06
-3.93495e-07
-4.19899e-06
3.8328e-06
-4.16641e-06
-3.87856e-07
-3.40187e-06
-8.3063e-07
-8.09331e-07
3.69272e-06
-3.31098e-06
-3.22071e-06
3.65967e-06
-8.61782e-07
3.61098e-06
-3.14501e-06
-9.08888e-07
4.36773e-07
3.67282e-06
-3.26328e-06
-8.46314e-07
-4.11745e-07
-4.06911e-06
3.67153e-06
-4.06409e-06
-4.23723e-07
-3.20862e-06
-8.76835e-07
-7.00528e-07
3.91585e-07
-3.80421e-06
4.11316e-06
-3.54505e-06
4.04813e-07
-7.82668e-07
3.92291e-06
3.82921e-06
4.35916e-07
-3.47046e-06
-7.94657e-07
4.03329e-07
-3.71595e-06
-7.5843e-07
4.07105e-06
-3.28661e-07
-4.38863e-06
4.01677e-06
-4.28223e-06
4.08513e-07
-3.33832e-07
-3.65147e-06
-7.86852e-07
-4.28154e-06
-3.16851e-07
3.95363e-06
3.83539e-06
-3.1384e-07
-4.19011e-06
-2.71538e-07
-4.39562e-06
4.05728e-06
7.19958e-07
-3.61456e-07
-4.26675e-06
3.90825e-06
-3.59077e-06
-3.86417e-07
-3.04345e-07
-4.07452e-07
-3.62036e-06
3.9539e-06
-4.29935e-06
-4.22685e-06
4.08087e-07
-4.201e-06
3.92304e-07
-4.10523e-06
3.42681e-06
-4.15518e-06
-7.53867e-07
-3.77732e-06
-3.74765e-06
-7.73684e-07
-4.12903e-06
-4.26362e-07
-3.20219e-07
-3.44353e-06
-2.69497e-07
-3.73453e-06
-3.50484e-06
-3.57094e-07
4.18862e-06
-3.62615e-07
-3.39009e-06
3.85658e-06
-7.34985e-07
-3.54795e-06
-7.12275e-07
3.80861e-06
-3.54973e-07
-7.82675e-07
4.13555e-06
-8.25343e-07
-3.75395e-06
-8.04142e-07
3.98245e-07
-8.43803e-07
-4.18875e-07
3.30773e-06
3.3617e-06
-4.23064e-07
-8.15313e-07
-4.94714e-06
5.81092e-07
3.39053e-06
9.75513e-07
5.46492e-07
-4.97297e-06
3.41027e-06
1.01621e-06
1.06897e-06
-4.98773e-06
5.76381e-07
3.34237e-06
3.32461e-06
-4.82149e-06
5.78934e-07
9.17946e-07
-1.58377e-06
-4.31985e-06
9.5648e-07
-4.3985e-06
3.36122e-06
-1.5694e-06
5.74164e-07
-4.89893e-06
-4.98453e-06
5.01958e-07
3.42974e-06
1.05283e-06
3.82785e-07
-5.00647e-06
3.47226e-06
1.15142e-06
1.20866e-06
4.48854e-07
-5.05279e-06
3.39527e-06
3.3534e-06
5.32299e-07
-4.84718e-06
9.61486e-07
-1.57461e-06
-4.43833e-06
1.02841e-06
-4.61946e-06
3.42763e-06
-1.59253e-06
5.07594e-07
-5.00332e-06
-5.08519e-06
1.17835e-06
5.99144e-07
3.30771e-06
5.30767e-07
1.26678e-06
-5.13103e-06
3.33347e-06
1.29851e-06
-5.17606e-06
6.26681e-07
3.25087e-06
3.18715e-06
1.08698e-06
-4.80043e-06
5.26303e-07
-1.8306e-06
-4.41253e-06
1.15793e-06
-4.60702e-06
3.30719e-06
-1.80064e-06
5.75259e-07
-5.10915e-06
-4.69999e-06
3.2634e-06
5.68817e-07
8.67776e-07
5.57693e-07
3.2576e-06
-4.69939e-06
8.8409e-07
9.24522e-07
3.18399e-06
-4.63981e-06
5.31296e-07
3.20562e-06
-4.56176e-06
5.39157e-07
8.16983e-07
-1.46484e-06
-4.09792e-06
8.62767e-07
-4.1495e-06
3.24235e-06
-1.45115e-06
5.58862e-07
-4.67613e-06
-4.38133e-06
-1.58479e-06
9.93148e-07
1.05392e-06
-1.68572e-06
-4.35593e-06
-1.52275e-06
-4.20641e-06
9.07671e-07
4.84182e-06
-1.53867e-06
-4.24525e-06
9.42107e-07
5.39435e-07
-3.33376e-06
-1.587e-06
-3.30557e-06
5.61079e-07
9.46976e-07
-4.26724e-06
-4.46398e-06
3.38115e-06
3.33031e-06
-4.33668e-06
1.71588e-06
-4.65151e-06
3.38448e-06
-5.5059e-07
-4.45914e-06
3.32401e-06
-4.93691e-06
-1.11407e-06
-1.09901e-06
-5.03801e-06
3.37335e-06
-4.42114e-06
-3.2566e-06
-1.65938e-06
5.60055e-07
-1.50589e-06
5.62875e-07
5.39721e-07
-1.52737e-06
4.21509e-06
-1.57542e-06
5.44323e-07
1.00157e-06
-4.81321e-06
5.55037e-07
-4.77156e-06
9.89481e-07
-1.5876e-06
-4.94018e-06
4.31753e-06
-4.80597e-06
-1.03612e-06
-4.82793e-06
1.70276e-06
-5.08748e-06
-3.24881e-06
-5.33427e-07
-5.18891e-07
-3.2518e-06
-4.80681e-06
4.84186e-06
-7.92946e-07
2.86184e-06
3.04382e-06
4.78881e-06
-9.17178e-07
-7.12041e-06
4.89785e-06
-7.45085e-07
2.96764e-06
-7.26616e-07
4.66698e-06
2.7672e-06
4.06011e-06
7.6198e-06
7.87275e-06
-7.68812e-07
4.06456e-06
2.82863e-06
4.8169e-06
4.87482e-06
3.30119e-06
-1.13959e-06
3.68226e-06
-1.48008e-06
-7.50331e-06
3.6126e-06
-1.24032e-06
-1.00398e-06
3.16262e-06
3.84777e-06
8.01965e-06
8.76459e-06
-1.23456e-06
3.84787e-06
3.1678e-06
4.94778e-06
-7.35673e-06
-7.25554e-07
3.1345e-06
3.52069e-06
-7.53668e-06
-1.0368e-06
-7.54399e-06
-7.90268e-07
3.32779e-06
-8.03362e-07
-7.05587e-06
3.01205e-06
4.12242e-06
8.00538e-06
-7.18001e-06
8.42667e-06
-7.83555e-07
4.12065e-06
3.08137e-06
4.59556e-06
-6.96073e-07
2.72375e-06
2.87335e-06
-8.03873e-07
-6.77444e-06
-7.66795e-07
2.84185e-06
-6.77489e-07
2.70082e-06
3.87931e-06
7.31394e-06
7.54e-06
-7.87346e-07
3.91057e-06
2.72589e-06
7.74689e-06
3.92947e-06
-6.99088e-06
4.11752e-06
7.77121e-06
3.92847e-06
7.41131e-06
-4.67208e-06
3.83262e-06
7.585e-06
2.96107e-06
8.24832e-07
3.96098e-06
7.87094e-07
2.92866e-06
7.64423e-06
8.17081e-06
-9.40151e-07
-9.41135e-07
7.93637e-06
-3.9829e-06
8.65651e-06
-1.06101e-06
-3.28151e-06
8.14129e-06
-7.42267e-07
4.85969e-06
7.2721e-06
7.08636e-06
4.90937e-06
-9.18775e-07
8.01283e-06
7.43205e-07
4.09924e-06
2.92877e-06
3.95695e-06
2.75829e-06
2.91428e-06
3.86685e-06
-7.63116e-06
3.98258e-06
2.88178e-06
-6.88656e-06
4.75141e-06
2.87835e-06
4.71462e-06
-6.84155e-06
3.9618e-06
4.8838e-06
-7.90121e-06
6.99725e-06
-3.96765e-06
8.52266e-07
-3.14847e-06
-3.08714e-06
8.96704e-07
-4.57502e-06
3.51806e-06
1.63805e-06
3.46435e-06
-4.46102e-06
1.5756e-06
1.73419e-06
-4.63612e-06
3.47831e-06
-5.94025e-07
-4.52954e-06
3.44203e-06
1.68153e-06
-5.12162e-06
-1.103e-06
1.64959e-06
-1.08311e-06
-5.20243e-06
3.50541e-06
-4.55135e-06
-4.35063e-06
3.40498e-06
1.51447e-06
3.35519e-06
-4.27668e-06
1.46065e-06
1.55504e-06
3.33154e-06
-4.35529e-06
-5.42105e-07
3.33181e-06