/*--------------------------------*- C++ -*----------------------------------*\
| =========                 |                                                 |
| \\      /  F ield         | OpenFOAM: The Open Source CFD Toolbox           |
|  \\    /   O peration     | Version:  2412                                  |
|   \\  /    A nd           | Website:  www.openfoam.com                      |
|    \\/     M anipulation  |                                                 |
\*---------------------------------------------------------------------------*/
FoamFile
{
    version     2.0;
    format      ascii;
    arch        "LSB;label=32;scalar=64";
    class       volVectorField;
    location    "10000";
    object      U;
}
// * * * * * * * * * * * * * * * * * * * * * * * * * * * * * * * * * * * * * //

dimensions      [0 1 -1 0 0 0 0];

internalField   nonuniform List<vector> 
43136
(
(0.00260429 -0.00888054 1.09661)
(-0.0261344 -0.0273058 1.0961)
(-0.0090126 0.00135478 1.09843)
(-0.002055 -0.014948 1.06939)
(-0.0116809 -0.0179705 1.08516)
(-0.0274776 -0.00914462 1.09858)
(0.002262 -0.0174633 1.08216)
(-0.0120679 -0.0122371 1.0979)
(-0.0449525 -0.0261961 1.10531)
(-0.0746716 -0.0397363 1.11055)
(-0.0609858 -0.0248442 1.10465)
(-0.0452481 -0.0298427 1.07434)
(-0.058045 -0.0325716 1.09493)
(-0.0753556 -0.0274784 1.11435)
(-0.0459421 -0.0350512 1.0915)
(-0.0634104 -0.0272457 1.10975)
(-0.0119573 0.0084426 1.1102)
(-0.0427019 -0.0117796 1.10471)
(-0.0217066 0.00347915 1.10692)
(-0.0191273 -0.0103886 1.07912)
(-0.0222358 -0.00270515 1.11208)
(-0.0365008 0.000625579 1.11398)
(-0.015446 -0.00696884 1.10278)
(-0.0246917 -0.00427502 1.10917)
(-0.00910874 -0.0118529 1.04978)
(-0.0262835 -0.0139841 1.05155)
(-0.0158482 -0.00962077 1.05371)
(-0.0136404 -0.00285655 1.03811)
(-0.0163936 -0.00948611 1.04292)
(-0.0217124 -0.0133878 1.05774)
(-0.0106411 -0.00706521 1.04322)
(-0.0178969 -0.0101522 1.05301)
(-0.0303833 -0.0325986 1.08899)
(-0.0168853 -0.00913305 1.10195)
(-0.0132372 -0.0153774 1.05566)
(-0.033378 -0.0186298 1.05892)
(-0.0225382 -0.0269015 1.08902)
(-0.0246526 -0.0203548 1.09506)
(-0.0248026 -0.0172368 1.06641)
(-0.0245104 -0.0122767 1.0751)
(-0.0451903 -0.0203937 1.10406)
(-0.041647 -0.0245205 1.07566)
(-0.0517829 -0.0138319 1.11075)
(-0.031087 -0.00413404 1.10761)
(-0.0321873 -0.0217435 1.10246)
(-0.0395558 -0.0258964 1.09828)
(-0.0372429 -0.016759 1.10634)
(-0.0390173 -0.0186287 1.10797)
(-0.00800138 -0.00802473 1.0973)
(-0.00514081 -0.0160865 1.05581)
(-0.0263159 -0.0173619 1.05984)
(-0.0121069 -0.0118634 1.07045)
(-0.0138845 -0.011032 1.07952)
(-0.0148206 -0.0139232 1.06829)
(-0.0209248 -0.0108722 1.07381)
(-0.0226616 -0.0152468 1.06404)
(-0.0179205 -0.00462504 1.10813)
(-0.0221465 -0.0124707 1.07896)
(-0.0364357 -0.0184954 1.07246)
(-0.0444953 -0.0148142 1.11214)
(-0.0310677 -0.0154918 1.10145)
(-0.0286563 -0.0136828 1.08389)
(-0.0324665 -0.0209131 1.10112)
(-0.03406 -0.0198981 1.07106)
(0.0140698 0.0211349 1.00496)
(0.0363752 0.0557406 1.02131)
(0.024645 0.0452695 1.01853)
(0.0254564 0.038615 1.01592)
(0.0200115 0.0290645 1.00845)
(0.0255031 0.0394582 1.0148)
(0.0211823 0.0345105 1.00969)
(0.0271207 0.0409728 1.01831)
(0.0852927 0.114554 1.07036)
(0.161343 0.198441 1.17627)
(0.106891 0.134209 1.12325)
(0.0891691 0.132 1.1035)
(0.0916839 0.125291 1.08665)
(0.117993 0.15275 1.12422)
(0.0916106 0.126794 1.09686)
(0.118887 0.143677 1.1349)
(0.0326669 0.0706985 1.04789)
(0.0685952 0.108594 1.10024)
(0.0392981 0.0730564 1.10136)
(0.0353346 0.0698664 1.07182)
(0.037364 0.0697168 1.05767)
(0.0444929 0.0942428 1.09088)
(0.0358163 0.0687015 1.06589)
(0.0516682 0.0829074 1.10262)
(0.0316482 0.0518598 1.03387)
(0.0555997 0.0861373 1.07227)
(0.0336696 0.0637094 1.05952)
(0.0327319 0.0576516 1.05341)
(0.0347731 0.0560498 1.04037)
(0.0441483 0.0663007 1.05081)
(0.0325027 0.0594833 1.04694)
(0.0445831 0.0649922 1.05806)
(0.0471841 0.0676632 1.03068)
(0.0297373 0.0523358 1.0256)
(0.0295991 0.0459623 1.02218)
(0.0572773 0.0825585 1.05708)
(0.0456084 0.0699936 1.03566)
(0.0309195 0.0496157 1.0235)
(0.0513439 0.0741411 1.04727)
(0.0377862 0.0560379 1.03214)
(0.0602958 0.0834807 1.05068)
(0.073198 0.0964623 1.07344)
(0.0759993 0.112466 1.09738)
(0.0376761 0.0670126 1.04256)
(0.0603259 0.0814397 1.05237)
(0.071174 0.0915194 1.06696)
(0.0543287 0.0870032 1.05539)
(0.0622905 0.0903778 1.06524)
(0.0293247 0.0544923 1.03044)
(0.0291036 0.048927 1.02574)
(0.057772 0.0849348 1.06553)
(0.0343518 0.0648202 1.05265)
(0.0314606 0.0596197 1.0366)
(0.0369059 0.0558269 1.03524)
(0.0357429 0.0633875 1.04497)
(0.0424948 0.0624535 1.04626)
(0.0378627 0.065753 1.04521)
(0.047105 0.0721686 1.07255)
(0.0754009 0.0956637 1.08228)
(0.0783796 0.106856 1.10894)
(0.0441922 0.0707874 1.05851)
(0.0460155 0.0758298 1.06211)
(0.0615098 0.0918206 1.07414)
(0.0617984 0.0957591 1.0797)
(-0.0376384 -0.0115233 1.12208)
(-0.0385976 -0.0072369 1.12067)
(-0.0540594 -0.0218986 1.1391)
(-0.0242013 -0.00418343 1.08846)
(-0.036658 -0.0107419 1.11084)
(-0.0450858 -0.0126422 1.13107)
(-0.035515 -0.00835137 1.1054)
(-0.043605 -0.0126311 1.12276)
(-0.0345404 -0.00309488 1.11986)
(-0.0275017 0.00458059 1.12437)
(-0.0469275 0.000661943 1.14092)
(-0.0230343 -0.0042787 1.09476)
(-0.0279731 -0.00195461 1.10836)
(-0.0355579 -0.00326738 1.13852)
(-0.0288103 -0.00130443 1.10325)
(-0.0353765 -0.000712539 1.12881)
(-0.0711487 -0.0238889 1.15665)
(-0.0636627 -0.00772127 1.16087)
(-0.0898201 -0.0134294 1.1806)
(-0.0492485 -0.0122477 1.12244)
(-0.0642857 -0.0184682 1.1415)
(-0.0768628 -0.0174569 1.17368)
(-0.064367 -0.0196414 1.13654)
(-0.0788474 -0.0146827 1.16196)
(-0.0193429 -0.00425037 1.06756)
(-0.0193104 -0.00631048 1.06937)
(-0.027584 -0.00601916 1.0813)
(-0.0168763 -0.00295939 1.04964)
(-0.020954 -0.00433642 1.06816)
(-0.0205008 -0.00744893 1.07708)
(-0.0232608 -0.00190682 1.06006)
(-0.023665 -0.00853343 1.07568)
(-0.0328405 -0.00611821 1.10878)
(-0.048253 -0.0171502 1.12339)
(-0.027595 -0.00647661 1.08952)
(-0.0248074 -0.00679758 1.087)
(-0.0322319 -0.00502461 1.10409)
(-0.0376017 -0.00669016 1.11269)
(-0.025456 -0.00623544 1.09346)
(-0.0310195 -0.00723627 1.10145)
(-0.0422284 -0.00810933 1.1307)
(-0.02676 -0.0118436 1.10488)
(-0.0556532 -0.00948885 1.15562)
(-0.0590377 -0.01756 1.14721)
(-0.0396909 -0.00640503 1.12242)
(-0.0318363 -0.00624136 1.11181)
(-0.0530201 -0.0113329 1.1404)
(-0.0430477 -0.00617734 1.12061)
(-0.0481612 -0.0167096 1.12074)
(-0.0285243 -0.00299275 1.08016)
(-0.0244739 -0.00272771 1.07697)
(-0.0373344 -0.00706126 1.09197)
(-0.0359928 -0.010912 1.10509)
(-0.0315519 -0.00854168 1.09894)
(-0.0375199 -0.0118621 1.10056)
(-0.0286832 -0.00749233 1.09037)
(-0.0582923 -0.0179409 1.13836)
(-0.0446593 -0.013886 1.11253)
(-0.0278103 -0.0091283 1.10206)
(-0.0569808 -0.00604627 1.14431)
(-0.0498134 -0.0140813 1.12755)
(-0.0427316 -0.015284 1.11491)
(-0.0440888 -0.00758455 1.11844)
(-0.036558 -0.00683496 1.10546)
(0.0610908 0.549416 1.6171)
(0.127731 0.560547 1.64633)
(-0.141356 0.144684 1.48278)
(0.126183 0.534913 1.92021)
(0.0904253 0.595767 2.08014)
(-0.116441 0.437478 1.46807)
(0.243999 0.414315 2.13209)
(-0.0229431 0.321516 1.81864)
(0.213581 0.324557 1.74011)
(0.203815 0.164736 1.86733)
(0.151297 0.0133502 1.82805)
(0.2218 0.329953 1.79716)
(0.197895 0.190274 1.91541)
(0.140004 0.250996 1.70225)
(0.360577 0.035656 1.96178)
(0.147402 0.0185075 1.86845)
(0.033416 0.0633369 1.49363)
(0.21933 -0.00865654 1.75811)
(0.183213 0.0758117 1.55634)
(0.188859 0.170834 1.85423)
(0.12134 0.0711714 1.78984)
(0.182897 0.0180526 1.62931)
(0.0759051 0.105898 1.7726)
(0.158569 0.0551085 1.76892)
(0.183149 0.241904 1.33939)
(0.287707 0.318029 1.36494)
(0.270594 0.301524 1.56702)
(0.254879 0.249881 1.28677)
(0.263159 0.205557 1.25685)
(0.240937 0.298169 1.57183)
(0.242055 0.188242 1.21559)
(0.310648 0.287359 1.39228)
(0.0944495 0.407486 2.00323)
(0.101976 0.204916 1.93495)
(0.106824 0.387794 1.79386)
(0.179711 0.315934 1.75793)
(0.265729 0.227602 2.09999)
(0.134819 0.22658 1.99906)
(0.188073 0.342933 1.79501)
(0.166874 0.342019 1.83722)
(0.0543653 0.337598 1.55006)
(0.193885 0.234947 1.78312)
(0.241679 0.0142436 1.70368)
(0.168609 0.0546049 1.63766)
(0.0851351 0.159473 1.85404)
(0.166167 0.0106093 1.87858)
(0.0533259 0.155128 1.71609)
(0.18039 0.0630977 1.85513)
(0.0903776 0.257925 1.91715)
(0.0955819 0.344759 1.79263)
(0.186694 0.297086 1.71109)
(0.142489 0.287738 1.84946)
(0.165706 0.287603 1.89849)
(0.144777 0.340269 1.83869)
(0.161678 0.302352 1.85759)
(0.168246 0.314831 1.79234)
(0.105632 0.101284 1.76765)
(0.202914 0.219657 1.81215)
(0.199656 0.276663 1.76138)
(0.196928 -0.00543591 1.78998)
(0.133103 0.0515015 1.8486)
(0.198565 0.169259 1.79178)
(0.183514 0.0659572 1.91739)
(0.226274 0.236466 1.8209)
(0.883666 0.00893018 2.45318)
(0.216318 -0.150857 1.85705)
(0.0713488 0.0771769 1.85738)
(0.432012 -0.0864118 1.7281)
(0.666619 -0.0345392 2.31846)
(0.227234 -0.324202 1.66853)
(0.571067 0.0475862 2.44938)
(0.0981727 0.0736447 2.07238)
(0.0925128 -0.0523181 1.90642)
(0.0835282 -0.0749972 1.97891)
(0.011904 -0.0654114 1.98339)
(0.289509 -0.22515 1.73012)
(0.0830387 -0.100101 2.00434)
(0.110188 -0.048738 1.83867)
(0.00510466 -0.154944 2.01817)
(0.00569034 -0.100866 1.93538)
(-0.0195713 -0.0329223 1.838)
(-0.00742608 -0.0821159 1.91446)
(0.0478669 0.0103652 1.92893)
(0.00846813 -0.173386 1.71658)
(-0.0484931 -0.0772819 1.94605)
(0.0446237 0.0866807 1.74484)
(-0.0933042 -0.102956 2.0408)
(0.0110167 -0.0551347 1.97484)
(0.175491 -0.163906 1.31542)
(0.183416 -0.200429 1.44812)
(0.238308 -0.15047 1.46972)
(0.164441 -0.221984 1.22238)
(0.15801 -0.196552 1.32449)
(0.231288 -0.201048 1.53633)
(0.163572 -0.187709 1.27239)
(0.179609 -0.204988 1.38614)
(0.173194 -0.118072 1.92619)
(-0.0151179 -0.0559374 2.08506)
(0.385968 -0.0694968 1.68189)
(0.32987 -0.181653 1.71614)
(-0.0877007 -0.377801 1.94894)
(-0.0656945 -0.0184789 2.08353)
(0.365611 -0.178318 1.65427)
(0.258292 -0.0696346 1.79788)
(0.221677 -0.0365308 1.61228)
(0.194265 -0.208277 1.71795)
(-0.0718474 -0.079357 1.83034)
(-0.313004 -0.5088 1.71628)
(-0.0984033 -0.0575788 1.83474)
(-0.048867 -0.0649968 1.92032)
(-0.333091 -0.0564566 1.69322)
(-0.0970243 -0.158562 1.83814)
(0.28797 0.197018 2.24311)
(0.330586 -0.0868569 1.67196)
(0.315417 -0.172405 1.70082)
(0.296727 -0.0643863 1.8007)
(0.255391 -0.0245375 1.91983)
(0.299411 -0.110376 1.71884)
(0.236198 -0.125279 1.80892)
(0.209268 -0.205812 1.61279)
(-0.0625693 -0.0943756 1.96614)
(0.110892 -0.137383 1.74655)
(0.187909 -0.180935 1.72872)
(-0.0344772 -0.134544 1.87687)
(-0.0801122 -0.0446195 1.93629)
(0.0131423 -0.25687 1.72185)
(-0.127711 -0.138506 1.8696)
(0.114622 -0.226684 1.65164)
(-0.0254559 0.00501232 1.11705)
(-0.0497929 -0.00894032 1.12049)
(-0.0452365 0.00108444 1.13214)
(-0.0226391 -0.00512803 1.09119)
(-0.0333168 -0.00137734 1.12238)
(-0.0502286 -0.00585638 1.12523)
(-0.0218033 -0.00213035 1.11561)
(-0.0447885 -0.00702365 1.12246)
(-0.0677425 -0.0213321 1.12263)
(-0.0805483 -0.0380141 1.12052)
(-0.0856429 -0.0308113 1.14746)
(-0.049106 -0.0288125 1.08054)
(-0.0685512 -0.0243659 1.12381)
(-0.0848183 -0.0359629 1.1354)
(-0.0705496 -0.0205362 1.12775)
(-0.0791358 -0.0352446 1.13022)
(-0.0617131 -0.00684914 1.15235)
(-0.0863412 -0.0239336 1.16419)
(-0.0877323 -0.0113634 1.17658)
(-0.0523462 -0.0172165 1.11803)
(-0.0732301 -0.0162325 1.15345)
(-0.0903401 -0.0178343 1.16905)
(-0.0648915 -0.0171906 1.146)
(-0.0857559 -0.0206572 1.16352)
(-0.0202878 -0.00711549 1.06503)
(-0.0286946 -0.0126238 1.05564)
(-0.0317367 -0.0100698 1.07717)
(-0.0197088 -0.00340594 1.04725)
(-0.0227941 -0.00878072 1.06525)
(-0.0314505 -0.0120378 1.0671)
(-0.0215915 -0.00685718 1.06264)
(-0.0273873 -0.0089551 1.06813)
(-0.0498976 -0.0122399 1.12246)
(-0.0520002 -0.00863613 1.13631)
(-0.0277871 -0.00992081 1.09375)
(-0.040033 -0.0168175 1.08399)
(-0.0495561 -0.0102059 1.12701)
(-0.0468026 -0.0118432 1.1245)
(-0.038746 -0.0143189 1.08777)
(-0.0390257 -0.0130507 1.09367)
(-0.0673677 -0.0205197 1.12881)
(-0.0523995 -0.0243885 1.09389)
(-0.0872415 -0.0281156 1.15559)
(-0.0647478 -0.0144069 1.14654)
(-0.062063 -0.0184182 1.12673)
(-0.0703848 -0.0203384 1.12653)
(-0.0625932 -0.0192472 1.14176)
(-0.0721587 -0.0185287 1.13725)
(-0.0455323 -0.00667183 1.12839)
(-0.023572 -0.00775453 1.08903)
(-0.042184 -0.0125268 1.08964)
(-0.0401812 -0.012911 1.09702)
(-0.0356441 -0.00952515 1.10222)
(-0.0346597 -0.0122634 1.0942)
(-0.0425331 -0.0144255 1.10306)
(-0.0402918 -0.0139078 1.08926)
(-0.0630423 -0.0138266 1.14062)
(-0.0495587 -0.0174237 1.11029)
(-0.0485331 -0.0229584 1.09135)
(-0.0832678 -0.0256933 1.14895)
(-0.0683661 -0.0188666 1.13886)
(-0.0524388 -0.0181377 1.10929)
(-0.0727174 -0.0159949 1.1407)
(-0.0509136 -0.0186092 1.10399)
(-0.00775644 -0.00734148 1.00411)
(-0.0231886 -0.0205887 1.01773)
(-0.0122679 -0.0170887 1.016)
(-0.0126072 -0.00899828 1.01134)
(-0.0117931 -0.00827655 1.00623)
(-0.0150226 -0.0137385 1.01188)
(-0.0119265 -0.00870369 1.00863)
(-0.0155564 -0.0130073 1.014)
(-0.0474995 -0.0366465 1.05166)
(-0.0727915 -0.0400355 1.10239)
(-0.0517137 -0.0445687 1.08923)
(-0.045703 -0.0273383 1.06758)
(-0.0505704 -0.0336951 1.05794)
(-0.0605289 -0.0443596 1.08752)
(-0.0451524 -0.0308477 1.06173)
(-0.0626307 -0.0429304 1.08593)
(-0.00859297 -0.0262232 1.04459)
(-0.0275445 -0.0279965 1.07988)
(-0.00632923 -0.0259046 1.08314)
(-0.00634268 -0.0185185 1.05105)
(-0.0122739 -0.0233959 1.0476)
(-0.0163335 -0.0283314 1.07662)
(-0.00329708 -0.0181857 1.05555)
(-0.0173264 -0.0256647 1.07484)
(-0.0135878 -0.00757782 1.02272)
(-0.0263804 -0.013558 1.04644)
(-0.0117167 -0.0115057 1.03632)
(-0.0148156 -0.00415677 1.03628)
(-0.0177392 -0.00618846 1.02763)
(-0.0189482 -0.010765 1.03503)
(-0.0133281 -0.00598454 1.03185)
(-0.0192394 -0.00821792 1.0375)
(-0.0274164 -0.0195558 1.02293)
(-0.0145609 -0.0158897 1.02022)
(-0.016033 -0.0088878 1.01532)
(-0.0299839 -0.0173373 1.03708)
(-0.0268976 -0.018308 1.02679)
(-0.0177337 -0.0149276 1.01981)
(-0.026144 -0.0185439 1.03186)
(-0.0194566 -0.0140062 1.0227)
(-0.0347352 -0.029773 1.03799)
(-0.0361658 -0.023296 1.05157)
(-0.033486 -0.0370533 1.0816)
(-0.0179739 -0.0252624 1.03664)
(-0.0334638 -0.0270465 1.04012)
(-0.0390473 -0.0276217 1.05)
(-0.0260024 -0.0289319 1.04739)
(-0.0311755 -0.0284006 1.05077)
(-0.0124232 -0.0149864 1.02438)
(-0.0141923 -0.0083887 1.01934)
(-0.0258524 -0.0159973 1.04077)
(-0.00998649 -0.0131558 1.03744)
(-0.0120541 -0.0150788 1.02744)
(-0.0182686 -0.0128639 1.02599)
(-0.0148835 -0.0146985 1.03196)
(-0.0198875 -0.0130211 1.03222)
(-0.0170875 -0.0235396 1.03673)
(-0.0185976 -0.0156547 1.04865)
(-0.0367896 -0.0224096 1.05403)
(-0.0357841 -0.0312037 1.08107)
(-0.0191333 -0.0209734 1.04672)
(-0.0169402 -0.01875 1.04719)
(-0.0268464 -0.0199291 1.05625)
(-0.0285546 -0.0209803 1.05399)
(0.0217143 -0.00554676 1.00966)
(0.0475442 -0.0267711 1.02671)
(0.0420606 -0.0129501 1.03081)
(0.0251933 -0.0148896 1.02089)
(0.0244059 -0.0132421 1.0081)
(0.0366346 -0.0189829 1.0176)
(0.0225708 -0.0118712 1.01639)
(0.0323095 -0.016883 1.01957)
(0.0783468 -0.069299 1.0662)
(0.126651 -0.128137 1.1522)
(0.0871647 -0.0877531 1.0995)
(0.078397 -0.0855413 1.09826)
(0.0881593 -0.082402 1.07571)
(0.10094 -0.0995365 1.10258)
(0.0746395 -0.0681843 1.08265)
(0.0898257 -0.088353 1.10085)
(0.0486388 -0.00994039 1.06322)
(0.0616543 -0.0496898 1.08415)
(0.0466001 -0.0112595 1.08707)
(0.0372908 -0.0167835 1.05524)
(0.0448498 -0.0170032 1.06035)
(0.0507543 -0.0215282 1.0875)
(0.0385019 -0.0097678 1.0675)
(0.043379 -0.0202962 1.0799)
(0.0261121 -0.0146939 1.03202)
(0.0474026 -0.0434596 1.06015)
(0.0323624 -0.0155658 1.04369)
(0.026395 -0.0125381 1.04072)
(0.0296757 -0.019282 1.03079)
(0.0350681 -0.0254633 1.03927)
(0.0264142 -0.00972866 1.03756)
(0.0316761 -0.020419 1.04187)
(0.0541859 -0.0387948 1.02881)
(0.0398119 -0.0153044 1.02999)
(0.0292295 -0.018915 1.02005)
(0.0508511 -0.0486647 1.04817)
(0.0410597 -0.033722 1.04484)
(0.0319331 -0.0229334 1.02808)
(0.0446804 -0.042664 1.051)
(0.0361977 -0.0254745 1.02833)
(0.0684674 -0.0506949 1.04652)
(0.0592246 -0.059541 1.05797)
(0.0697773 -0.0613567 1.08614)
(0.0506462 -0.0236818 1.04984)
(0.0585619 -0.0462042 1.05103)
(0.0575227 -0.0514382 1.05892)
(0.0604516 -0.0433044 1.06791)
(0.0623633 -0.0471465 1.06438)
(0.0335159 -0.0122774 1.03831)
(0.0250861 -0.0129408 1.02856)
(0.0453213 -0.0371606 1.05949)
(0.0313893 -0.0115749 1.04563)
(0.0331135 -0.0119336 1.04047)
(0.0322383 -0.0201451 1.03052)
(0.0351704 -0.0187189 1.03919)
(0.0317135 -0.0268643 1.03905)
(0.0452633 -0.0202418 1.04707)
(0.0369976 -0.0229506 1.05381)
(0.0542215 -0.0517343 1.06437)
(0.0616164 -0.0538921 1.08622)
(0.039018 -0.0284946 1.0578)
(0.0376142 -0.0272753 1.05364)
(0.0511641 -0.0368599 1.072)
(0.0527652 -0.0485228 1.06523)
(-0.04582 -0.14836 1.82357)
(-0.146563 -0.0886512 1.80838)
(-0.0399992 -0.203013 1.70898)
(-0.129193 -0.0744756 1.53284)
(-0.0739331 -0.137385 1.8991)
(-0.144126 -0.149608 1.74002)
(0.00885739 -0.112296 1.86234)
(-0.0671865 -0.100525 1.78816)
(-0.196976 -0.105222 1.71706)
(-0.829275 0.0213987 2.19268)
(-0.471727 -0.0463758 1.87871)
(-0.232397 -0.078493 1.44904)
(-0.461778 -0.303579 1.97581)
(-0.709461 -0.109246 1.94303)
(-0.128776 -0.118295 1.90359)
(-0.540059 -0.101945 1.88149)
(0.0949324 -0.136148 1.37084)
(-0.243478 -0.000251423 1.7526)
(-0.0930907 -0.0226425 1.7937)
(-0.0443301 -0.0797187 1.54891)
(0.0591203 -0.133537 1.85816)
(-0.166066 -0.0624813 1.76826)
(0.119268 -0.116201 1.88881)
(-0.105469 -0.0566283 1.77627)
(-0.0591792 -0.16766 1.2595)
(-0.129495 -0.153513 1.26763)
(-0.124222 -0.138194 1.33344)
(-0.167916 -0.059777 1.19015)
(-0.132145 -0.178732 1.29255)
(-0.133807 -0.137593 1.30432)
(-0.136357 -0.172154 1.27334)
(-0.138717 -0.171904 1.29697)
(-0.148713 -0.140337 1.90451)
(-0.0411357 -0.150092 1.83748)
(-0.211561 -0.112028 1.52304)
(-0.222805 -0.090407 1.47316)
(-0.101292 -0.0901274 1.86939)
(-0.091375 -0.0772972 1.8549)
(-0.140756 -0.0436776 1.52062)
(-0.135989 -0.111438 1.50119)
(-0.203762 -0.16817 1.47736)
(-0.172426 -0.0327307 1.53394)
(-0.337595 -0.106122 1.85757)
(-0.05995 -0.192018 1.46309)
(-0.146682 -0.118146 1.49026)
(-0.101898 -0.0747351 1.95933)
(-0.0944123 -0.159004 1.48854)
(-0.0743489 -0.163428 1.921)
(0.0266499 -0.0750518 1.80701)
(-0.149169 -0.111556 1.49868)
(-0.148433 -0.0878756 1.47213)
(-0.079652 -0.0933844 1.52664)
(-0.0198475 -0.162675 1.52374)
(-0.151977 -0.116293 1.51467)
(-0.0976851 -0.0942244 1.51939)
(-0.168646 -0.0773027 1.4826)
(0.0369313 -0.162631 1.58124)
(-0.0659299 -0.100782 1.53175)
(-0.157433 -0.0917132 1.48033)
(-0.231637 -0.134784 1.78236)
(0.0526015 -0.114146 1.86716)
(-0.0907689 -0.063437 1.54978)
(-0.00262548 -0.11053 1.90006)
(-0.116461 -0.0811371 1.51963)
(-0.0120341 -0.00121333 0.999849)
(-0.0150062 -0.00348576 1.00062)
(-0.00585121 -0.00157817 1.00018)
(-0.0372972 -0.0120501 1.01071)
(-0.0215925 -0.00628803 1.002)
(-0.0077693 -0.00314171 0.999491)
(-0.0193749 -0.00659769 1.00358)
(-0.0120908 -0.00582603 1.00301)
(-0.0175406 -0.00669199 1.00138)
(-0.0203013 -0.0136342 1.00098)
(-0.0065236 -0.00656143 1.00162)
(-0.0497824 -0.0343139 1.01447)
(-0.0290053 -0.0162755 1.00529)
(-0.0106342 -0.0116366 0.999103)
(-0.0258619 -0.016917 1.00456)
(-0.0130462 -0.013233 1.00514)
(-0.003725 -0.00147849 1.0004)
(-0.0041282 -0.00405144 1.00076)
(-0.00200164 -0.00194654 1.00027)
(-0.0164766 -0.0114447 1.00791)
(-0.0102996 -0.00372469 1.00143)
(-0.00304509 -0.00295855 0.999834)
(-0.0105755 -0.00448781 1.00301)
(-0.0062755 -0.00515671 1.002)
(-0.0614326 -0.0289816 1.04003)
(-0.074806 -0.0506379 1.04359)
(-0.040927 -0.0258889 1.03226)
(-0.0819385 -0.046731 1.07606)
(-0.0734896 -0.044305 1.05721)
(-0.0632182 -0.0436182 1.03845)
(-0.0666316 -0.0445563 1.05776)
(-0.0610947 -0.0433524 1.04721)
(-0.0254793 -0.0098427 1.00284)
(-0.0149948 -0.00446738 1.00182)
(-0.0502964 -0.0227779 1.02067)
(-0.0555931 -0.0313966 1.02422)
(-0.0229126 -0.0117172 1.00448)
(-0.0199656 -0.00749767 1.00748)
(-0.0477333 -0.0221442 1.01735)
(-0.036192 -0.0189919 1.01028)
(-0.009658 -0.00627271 0.999168)
(-0.0401768 -0.0293479 1.01095)
(-0.00467146 -0.00446918 0.999763)
(-0.00521896 -0.00359563 1)
(-0.0124129 -0.0093138 1.00613)
(-0.0238641 -0.0110702 1.01322)
(-0.00796601 -0.00417613 1.0015)
(-0.016945 -0.00699028 1.0044)
(-0.0156169 -0.0051269 1.0036)
(-0.0450943 -0.0229386 1.02405)
(-0.0512926 -0.0335831 1.02574)
(-0.0346374 -0.0194316 1.02025)
(-0.0252293 -0.0105666 1.01018)
(-0.0367861 -0.0213999 1.02145)
(-0.0363896 -0.0183468 1.01897)
(-0.0442396 -0.0220898 1.03335)
(-0.00979058 -0.00483385 1.00308)
(-0.0262402 -0.0208526 1.01645)
(-0.0381792 -0.0302268 1.02459)
(-0.00728161 -0.00716161 1.003)
(-0.0154979 -0.0049212 1.00533)
(-0.0246256 -0.016434 1.00973)
(-0.0165738 -0.00785 1.00472)
(-0.0288277 -0.0209172 1.01689)
(0.0104725 -0.00673602 1.00129)
(0.00884427 -0.00703456 1.00469)
(0.0396915 -0.030649 1.01377)
(0.0237393 -0.0176027 1.01136)
(0.014643 -0.00688296 1.00342)
(0.0172704 -0.0122624 1.00432)
(0.023372 -0.0176136 1.00887)
(0.0245492 -0.0192451 1.01073)
(0.00875312 -0.00785441 1.00356)
(0.0101708 -0.00916148 1.00566)
(0.0331177 -0.0321039 1.02049)
(0.0169367 -0.0139942 1.01031)
(0.0110708 -0.00895907 1.00496)
(0.0136615 -0.0111913 1.00453)
(0.0176837 -0.0151201 1.00616)
(0.0236331 -0.0193402 1.00649)
(0.0779468 -0.0731439 1.0502)
(0.0656448 -0.0687073 1.06029)
(0.138854 -0.127195 1.14676)
(0.0821762 -0.0871268 1.0927)
(0.0733752 -0.0685006 1.05671)
(0.0887125 -0.0890495 1.07692)
(0.0889793 -0.0913718 1.08944)
(0.0948739 -0.100991 1.09614)
(0.0273326 -0.0192174 1.02199)
(0.0218526 -0.0154487 1.02024)
(0.0459155 -0.0447663 1.05043)
(0.0262675 -0.0167343 1.03438)
(0.023714 -0.0127627 1.02297)
(0.027838 -0.0195767 1.02329)
(0.0298774 -0.0196948 1.03128)
(0.0318489 -0.0241577 1.0324)
(0.0127248 -0.00892921 1.00629)
(0.0400653 -0.0285643 1.01775)
(0.02314 -0.0130849 1.01253)
(0.0197432 -0.0133691 1.01403)
(0.0187409 -0.0151444 1.00705)
(0.0281142 -0.0199067 1.01241)
(0.0176261 -0.0139755 1.00992)
(0.0253789 -0.0189619 1.01329)
(0.0141164 -0.0114398 1.00523)
(0.0232051 -0.0187871 1.01134)
(0.0446754 -0.0417239 1.02576)
(0.0469516 -0.0410072 1.02264)
(0.0240655 -0.0185855 1.007)
(0.0254047 -0.0202306 1.00915)
(0.0319442 -0.0322149 1.02132)
(0.0351087 -0.0314689 1.02681)
(0.0498057 -0.0470078 1.0361)
(0.0286258 -0.0203901 1.02142)
(0.0247269 -0.0190985 1.0165)
(0.0517597 -0.0484724 1.05022)
(0.0477697 -0.0471072 1.03707)
(0.029335 -0.0238449 1.02192)
(0.0404254 -0.0364682 1.03643)
(0.0318339 -0.0208966 1.02319)
(0.0533075 -0.0519386 1.03713)
(0.0565971 -0.0552747 1.05331)
(0.0304883 -0.0239201 1.01727)
(0.0556582 -0.0519304 1.03297)
(0.0573924 -0.0538335 1.04307)
(0.0496875 -0.0467221 1.04053)
(0.046521 -0.042631 1.03029)
(0.0374058 -0.0343023 1.03225)
(0.0114046 0.0263519 0.997868)
(0.0312918 0.0686602 1.01547)
(0.00883282 0.016323 0.999489)
(0.0455758 0.0731661 1.01813)
(0.0244523 0.0561163 1.00413)
(0.0272918 0.0548037 1.00794)
(0.0258161 0.046344 1.00973)
(0.0280106 0.0549261 1.01523)
(0.0432345 0.0800551 1.0562)
(0.0416512 0.0749305 1.09694)
(0.0316265 0.0621873 1.04173)
(0.0689228 0.103959 1.10151)
(0.0486771 0.0867314 1.07445)
(0.0446778 0.0871568 1.07446)
(0.0435524 0.0938011 1.07494)
(0.0455523 0.0834769 1.081)
(0.00635083 0.0129123 0.999374)
(0.0210437 0.0401324 1.01423)
(0.00716093 0.0145975 1.00051)
(0.0288014 0.0478006 1.01228)
(0.0163884 0.0316157 1.00842)
(0.0178039 0.0320754 1.00727)
(0.0187003 0.027905 1.00732)
(0.0187483 0.0315731 1.0084)
(0.0977353 0.123835 1.06463)
(0.108418 0.13209 1.11837)
(0.0729432 0.103417 1.05534)
(0.163058 0.192379 1.17371)
(0.115684 0.136915 1.09263)
(0.107062 0.134573 1.08822)
(0.118381 0.141332 1.10969)
(0.115734 0.133994 1.106)
(0.0408637 0.0866017 1.03936)
(0.0186673 0.0413077 1.00943)
(0.0600441 0.0934171 1.04388)
(0.0706217 0.106746 1.08092)
(0.0378946 0.0803473 1.03592)
(0.0331441 0.0684436 1.01862)
(0.0606239 0.101231 1.05546)
(0.063854 0.0902794 1.04339)
(0.0409382 0.0808658 1.04401)
(0.0681229 0.10584 1.07545)
(0.0330182 0.0592764 1.03119)
(0.023977 0.0431081 1.01336)
(0.0396069 0.0790883 1.04726)
(0.0453466 0.0930272 1.05419)
(0.0236641 0.0428324 1.0114)
(0.0330465 0.0605595 1.0312)
(0.0217834 0.0348092 1.00964)
(0.0645584 0.0898688 1.0526)
(0.0720771 0.102726 1.08528)
(0.0539188 0.0695224 1.03617)
(0.0352026 0.0528148 1.01208)
(0.0645428 0.0897878 1.05769)
(0.048753 0.074948 1.0326)
(0.0710712 0.1034 1.06082)
(0.0235658 0.0422864 1.01447)
(0.0528326 0.0711465 1.03572)
(0.0731463 0.102095 1.08641)
(0.0318757 0.0590667 1.03245)
(0.0280669 0.0505087 1.01806)
(0.0497838 0.0750278 1.033)
(0.0311043 0.0587353 1.03157)
(0.0522308 0.0784599 1.0465)
(0.00888262 -0.00581331 1.00357)
(0.00925773 -0.0092032 1.00047)
(0.00604942 -0.00631737 1.00054)
(0.0469549 -0.0399432 1.02363)
(0.0293339 -0.0121134 0.997579)
(0.00990298 -0.00619836 1.00006)
(0.0341295 -0.02617 1.00197)
(0.0214291 -0.0217871 0.997851)
(0.0071687 -0.0070918 0.999011)
(0.00895319 -0.00393543 0.998881)
(0.00670177 -0.00392914 1.00014)
(0.0380011 -0.0266516 1.01114)
(0.0217192 -0.00798937 0.997151)
(0.0075832 -0.00266965 0.998457)
(0.0229235 -0.0153545 1.00153)
(0.0174327 -0.0120118 1.00188)
(0.0055298 -0.00425309 0.998097)
(0.00608152 -0.00437186 1.00055)
(0.00634338 -0.00649664 1.00001)
(0.0344025 -0.0315234 1.01313)
(0.0125606 -0.013153 1.00405)
(0.00674794 -0.00497359 1.00149)
(0.0159141 -0.00955451 0.998331)
(0.0144757 -0.0108812 1.00179)
(0.0874751 -0.0757317 1.06063)
(0.0767687 -0.0690279 1.04813)
(0.0722699 -0.0767036 1.05576)
(0.138189 -0.125546 1.13899)
(0.104769 -0.0934506 1.08518)
(0.0792189 -0.0788714 1.05159)
(0.100992 -0.095429 1.08257)
(0.0905964 -0.0944719 1.0761)
(0.0263038 -0.0114209 0.994556)
(0.0159141 -0.0142529 1.00122)
(0.0711432 -0.0468538 1.0236)
(0.0584064 -0.0375082 1.0133)
(0.0317959 -0.0219624 1.00264)
(0.0282994 -0.0284026 1.00654)
(0.0373365 -0.0339557 1.00805)
(0.0376891 -0.0337109 1.00516)
(0.00700201 -0.0048261 0.998455)
(0.0336363 -0.0252344 1.00702)
(0.00605302 -0.00269664 0.999576)
(0.00572591 -0.00381759 0.998671)
(0.0188306 -0.0158748 0.999358)
(0.022393 -0.0218892 1.00525)
(0.00414704 -0.00439497 0.999399)
(0.0129817 -0.0103686 1.00253)
(0.0248267 -0.0270742 1.01032)
(0.0770482 -0.0698422 1.04395)
(0.0635866 -0.048992 1.02149)
(0.0454719 -0.0438422 1.02036)
(0.0333378 -0.0356487 1.01234)
(0.0604797 -0.0572853 1.02509)
(0.0463317 -0.0467135 1.02346)
(0.0584503 -0.064936 1.03007)
(0.017795 -0.0185115 1.00441)
(0.046184 -0.0450423 1.02494)
(0.0499891 -0.0418337 1.01827)
(0.0145937 -0.0115817 1.0035)
(0.0183816 -0.0207565 1.00753)
(0.0392271 -0.035203 1.01625)
(0.0176233 -0.0150063 1.00491)
(0.0357088 -0.028236 1.01217)
(0.152821 0.194087 1.15195)
(0.0925113 0.124878 1.10164)
(0.101864 0.118566 1.08724)
(0.101513 0.155133 1.14548)
(0.106285 0.165104 1.13663)
(0.104216 0.128761 1.11309)
(0.129108 0.157396 1.12068)
(0.0982836 0.11988 1.08712)
(0.0579948 0.0827164 1.06589)
(0.0342021 0.053069 1.05178)
(0.0335242 0.0506348 1.03534)
(0.0429862 0.0644307 1.0625)
(0.0436098 0.0690025 1.06292)
(0.0381036 0.0570874 1.05084)
(0.0488833 0.0690225 1.05328)
(0.0336894 0.0507495 1.04018)
(0.0508634 0.0577106 1.02666)
(0.0264521 0.0385938 1.01711)
(0.0166933 0.0222745 1.00344)
(0.0387478 0.0484654 1.02091)
(0.0311989 0.0457412 1.0174)
(0.0267091 0.0351831 1.0136)
(0.0317418 0.0387476 1.01331)
(0.0197818 0.0280183 1.0085)
(0.0853504 0.120475 1.12635)
(0.0531182 0.0790474 1.08585)
(0.061486 0.077391 1.0662)
(0.0572667 0.0972002 1.12983)
(0.0728928 0.0999062 1.11177)
(0.0642335 0.0856284 1.0874)
(0.0758393 0.101048 1.10981)
(0.0567153 0.0762774 1.06837)
(0.0728428 0.111962 1.09499)
(0.0694904 0.096612 1.05914)
(0.0947068 0.128021 1.12191)
(0.0568118 0.0830471 1.08145)
(0.0836882 0.104965 1.08027)
(0.0786715 0.104887 1.07832)
(0.0661989 0.104198 1.08644)
(0.0828558 0.109528 1.09678)
(0.0659579 0.0857614 1.07132)
(0.0505829 0.0700135 1.06145)
(0.0331499 0.0474062 1.02968)
(0.0585449 0.071297 1.0416)
(0.0604178 0.0783484 1.05507)
(0.0465944 0.0699801 1.05032)
(0.0641441 0.0757481 1.05298)
(0.0434963 0.0600163 1.03869)
(0.073535 0.0873017 1.05327)
(0.0986724 0.12784 1.11448)
(0.062664 0.0863996 1.07323)
(0.0581295 0.0699939 1.04875)
(0.0804535 0.0960148 1.0773)
(0.0747123 0.0971868 1.07771)
(0.05613 0.0757975 1.05312)
(0.0600651 0.0863925 1.06922)
(0.0532571 0.0619854 1.03376)
(0.0402811 0.0519068 1.02734)
(0.0436915 0.061281 1.04919)
(0.0294481 0.0419135 1.0226)
(0.0381116 0.0577721 1.0273)
(0.0459555 0.0573557 1.03777)
(0.0413635 0.0583952 1.03266)
(0.0485917 0.0608395 1.04282)
(0.054595 -0.0467736 1.1389)
(0.0551493 -0.0574748 1.15376)
(0.0788445 -0.0762797 1.15123)
(0.0464404 -0.032382 1.1071)
(0.0515289 -0.0470592 1.13252)
(0.0590856 -0.067474 1.15103)
(0.0476643 -0.0408041 1.11581)
(0.0625891 -0.0622571 1.13613)
(0.047882 -0.067393 1.16925)
(0.0292389 -0.0918674 1.20642)
(0.067465 -0.121122 1.20321)
(0.0416559 -0.0469197 1.1218)
(0.0464466 -0.0681837 1.16311)
(0.0428211 -0.102548 1.20758)
(0.0471231 -0.0590473 1.1479)
(0.051349 -0.0887171 1.18749)
(0.111126 -0.109476 1.17269)
(0.104631 -0.134104 1.2001)
(0.146186 -0.146223 1.18259)
(0.0787017 -0.0865309 1.10887)
(0.105265 -0.109454 1.15969)
(0.1235 -0.147358 1.2107)
(0.0982064 -0.0963598 1.13272)
(0.128185 -0.13211 1.17801)
(0.0393724 -0.0230228 1.07714)
(0.0379067 -0.0286243 1.07859)
(0.046114 -0.0414808 1.06767)
(0.024148 -0.0121571 1.04654)
(0.0378958 -0.0272228 1.0726)
(0.0451325 -0.0368154 1.0828)
(0.0336122 -0.0195199 1.06041)
(0.0456681 -0.0399418 1.07507)
(0.0501441 -0.0578173 1.14656)
(0.0769121 -0.0779251 1.1411)
(0.0455601 -0.0385557 1.10138)
(0.0458399 -0.0494603 1.11301)
(0.0483659 -0.0536321 1.13279)
(0.0499214 -0.053082 1.12518)
(0.0497296 -0.0440632 1.11921)
(0.0526082 -0.0503375 1.11377)
(0.0557505 -0.0758583 1.16488)
(0.054179 -0.059173 1.13143)
(0.088003 -0.12975 1.22042)
(0.0854983 -0.0996179 1.16849)
(0.0632449 -0.0700432 1.15633)
(0.0462527 -0.062467 1.13889)
(0.0825507 -0.0891152 1.17261)
(0.0756068 -0.0899982 1.15955)
(0.0691452 -0.0706063 1.12395)
(0.0408105 -0.0311745 1.08836)
(0.0423479 -0.0417827 1.0969)
(0.0568946 -0.0548908 1.08705)
(0.06546 -0.0616575 1.11198)