/*--------------------------------*- C++ -*----------------------------------*\
| =========                 |                                                 |
| \\      /  F ield         | OpenFOAM: The Open Source CFD Toolbox           |
|  \\    /   O peration     | Version:  2506                                  |
|   \\  /    A nd           | Website:  www.openfoam.com                      |
|    \\/     M anipulation  |                                                 |
\*---------------------------------------------------------------------------*/
FoamFile
{
    version     2.0;
    format      ascii;
    arch        "LSB;label=32;scalar=64";
    class       surfaceScalarField;
    location    "1400";
    object      phi;
}
// * * * * * * * * * * * * * * * * * * * * * * * * * * * * * * * * * * * * * //

dimensions      [0 3 -1 0 0 0 0];

oriented        oriented;

internalField   nonuniform List<scalar> 
94240
(
-1.68152e-05
1.40601e-05
3.73896e-06
1.30094e-05
-2.48829e-05
1.28553e-05
1.37485e-05
-2.17492e-05
8.98414e-06
-1.11571e-05
-3.55264e-05
2.64813e-05
2.02015e-05
-2.24875e-05
-4.78305e-06
1.04545e-05
-8.49366e-06
-3.99981e-05
2.40581e-05
-3.47431e-05
-3.66235e-05
1.48683e-05
2.27376e-05
1.80559e-05
3.15253e-05
-4.85984e-05
3.35689e-05
8.75358e-06
-4.13378e-05
-1.26946e-05
2.94651e-05
3.73616e-05
-5.41331e-05
-4.49076e-05
-2.05318e-05
2.88147e-05
-2.58672e-05
-6.3753e-05
3.0527e-05
-5.60512e-05
-3.27418e-05
2.55991e-05
8.12589e-06
8.07332e-06
3.63329e-05
-4.34225e-05
3.62521e-05
1.97651e-05
-5.50331e-05
-7.69732e-06
2.87775e-05
2.0675e-05
-4.17562e-05
-3.89876e-05
-2.7872e-05
3.41164e-05
-2.99301e-05
-6.38102e-05
2.82407e-05
-5.74882e-05
-3.38479e-05
-1.50344e-05
2.78554e-05
2.10259e-05
3.11608e-05
-1.51129e-05
2.51685e-05
-4.12169e-05
1.56098e-05
-9.17989e-06
1.545e-05
-2.1882e-05
-8.44761e-06
2.45147e-05
8.56044e-06
-2.46288e-05
-5.32062e-05
-2.30408e-06
2.16616e-05
-7.19153e-06
-1.4854e-05
-3.23172e-05
2.15652e-05
-2.3899e-05
-1.44666e-05
-3.18644e-05
2.14476e-05
2.09601e-05
-2.89525e-05
-1.3757e-05
-5.33537e-05
-6.68729e-06
2.45136e-05
4.3265e-05
-6.3479e-05
-1.25951e-05
3.28081e-05
2.67685e-05
1.46314e-05
-5.58659e-05
1.29854e-05
2.82326e-05
2.96634e-05
-1.21357e-05
-1.60115e-05
-1.47239e-05
-1.929e-05
3.84526e-05
-2.87144e-05
-6.85889e-06
-2.11096e-05
-4.64657e-05
-2.54115e-05
-3.06624e-05
-3.12859e-05
-2.34958e-05
1.24322e-05
-5.65642e-05
3.03742e-05
-5.16459e-05
2.99237e-05
2.61728e-05
-5.38812e-05
1.35621e-05
-3.90804e-05
1.63372e-05
2.57079e-05
-4.17188e-05
2.84427e-05
-3.80739e-05
2.67551e-05
-5.49122e-05
-5.20749e-05
2.09362e-05
-3.12394e-05
-3.03732e-05
-4.27981e-05
6.27016e-05
-5.5083e-05
1.19743e-05
-2.99331e-05
-2.20019e-05
9.2727e-06
-4.31025e-05
5.03664e-06
7.34169e-06
1.6829e-06
3.1258e-05
-2.98783e-05
7.603e-06
-2.91841e-05
1.10925e-05
1.45475e-05
3.54305e-06
-1.02457e-05
-8.02139e-07
3.75271e-05
2.24653e-07
2.88702e-05
2.30793e-05
8.40275e-06
4.83137e-07
1.81388e-05
-5.6213e-06
-6.17723e-05
5.80507e-05
1.18479e-05
8.1188e-05
-7.91491e-05
1.77254e-05
-2.96338e-05
6.24315e-05
-4.36966e-05
1.08996e-05
4.66102e-06
6.44037e-05
-4.83908e-05
-5.05452e-05
1.70134e-05
1.45745e-05
1.60683e-05
-4.59256e-05
6.76005e-05
-6.0985e-05
2.31505e-05
-5.3075e-05
2.30778e-05
6.84519e-06
4.02091e-05
-4.1634e-05
-4.17584e-07
1.84206e-06
-5.91901e-05
4.24616e-05
1.64314e-05
2.96772e-07
-4.25376e-07
-4.5887e-05
3.08517e-05
1.54602e-05
1.22941e-05
6.01797e-05
-4.93233e-05
5.38257e-05
-1.3221e-06
4.3347e-05
1.64084e-05
3.79824e-05
3.96427e-06
-5.71319e-06
2.96027e-05
2.12987e-05
-8.04808e-07
-5.04775e-06
-2.64176e-05
-8.82519e-06
2.29815e-05
1.22594e-05
4.40269e-06
7.71391e-06
1.2396e-05
4.88269e-07
2.50384e-05
2.88548e-05
-7.06884e-06
1.48606e-05
1.4578e-05
1.7297e-05
2.43722e-05
-2.38757e-05
-3.73631e-05
4.09972e-06
4.43521e-05
-1.27922e-05
4.1912e-05
2.32192e-05
-3.51752e-05
2.82913e-05
4.49203e-05
-9.20802e-07
-1.96275e-05
1.93566e-06
5.07407e-05
3.98836e-05
1.81592e-05
1.60154e-05
3.02612e-06
2.62028e-05
2.27672e-05
3.23084e-05
7.35603e-06
-4.79177e-05
4.50692e-05
6.94797e-06
-3.57534e-05
3.42863e-05
3.48733e-05
-2.12946e-05
7.66356e-06
3.63455e-05
6.23177e-06
1.92569e-05
1.88601e-05
6.1837e-06
3.00119e-05
3.61611e-05
-8.67457e-06
-5.16808e-05
2.78861e-05
1.49686e-05
-3.82314e-05
1.58956e-05
2.85665e-05
7.83444e-06
-3.69267e-05
1.14274e-06
1.12491e-05
-4.27467e-05
2.47469e-05
3.23286e-05
-1.48018e-05
2.88984e-06
-1.22179e-05
3.70523e-07
-3.84449e-05
-4.12336e-05
7.90322e-07
-8.11516e-06
-3.48898e-05
6.58117e-05
1.154e-05
1.20711e-05
-2.58725e-05
4.46531e-05
3.71267e-05
-3.49635e-05
-2.58131e-06
-1.46427e-05
-8.11068e-06
1.55233e-05
7.22956e-06
-7.40106e-05
-1.88905e-05
5.80105e-05
-2.39573e-05
-3.70972e-05
3.56319e-06
-2.39273e-05
-1.56306e-05
7.90727e-06
3.07044e-05
1.34108e-05
1.80523e-05
-2.37499e-05
1.01664e-05
-4.43386e-06
-1.07835e-05
-8.36533e-06
1.64366e-05
6.48441e-06
-1.45559e-05
-3.91602e-05
-6.24378e-07
2.41512e-05
-8.45297e-06
-1.38149e-05
4.82218e-06
-1.21019e-05
-5.21392e-05
1.93242e-05
-1.08812e-05
-1.96095e-05
1.40352e-05
-4.28166e-05
1.09838e-05
-1.55061e-05
-7.46268e-05
5.85959e-05
5.59134e-06
-1.77413e-05
-4.64463e-05
-2.59714e-06
-6.41331e-05
1.45906e-05
-8.31919e-05
7.25008e-06
-1.27877e-05
-6.49582e-05
5.69101e-06
4.09333e-06
-2.8878e-06
-6.89569e-06
-1.38143e-06
8.19089e-06
2.03008e-07
-7.01164e-06
-9.43701e-06
9.7849e-06
-1.00512e-05
9.70248e-06
8.5229e-06
-7.83098e-06
-5.50075e-06
4.80947e-06
1.09038e-05
-4.60261e-07
-4.75201e-06
6.07248e-06
3.44929e-06
1.38076e-05
-5.74486e-06
1.04433e-05
-1.67365e-05
-5.2875e-05
4.37396e-05
2.56189e-05
-3.03485e-05
-3.02328e-05
-1.29437e-05
2.40243e-06
2.43331e-06
7.87336e-06
-2.23464e-05
1.0252e-05
4.22222e-06
-3.95975e-07
1.14667e-05
-2.78049e-05
1.29635e-06
1.05652e-05
8.7755e-06
-1.08246e-06
-2.02209e-05
-1.15946e-05
5.68366e-06
2.04367e-05
-3.96729e-05
8.89153e-06
-5.1458e-05
-1.84797e-05
-2.95466e-05
-2.52526e-05
-2.87704e-05
-3.35866e-05
-1.84143e-05
-3.9133e-06
-7.90533e-06
1.22402e-05
-5.74512e-06
-7.4108e-06
2.5853e-05
1.10444e-05
9.95805e-07
-2.25806e-06
-6.75949e-06
-2.59608e-06
-9.05923e-06
4.39806e-06
-4.3655e-07
8.88345e-06
-3.60471e-05
3.93256e-05
-3.27387e-05
1.79345e-05
1.36018e-05
4.06467e-06
-2.97032e-05
-4.08128e-05
1.93557e-05
7.39606e-06
-1.01668e-05
1.51638e-05
4.58798e-06
0.000140567
-1.14892e-05
-0.000133666
7.6811e-05
-1.7289e-06
5.02373e-07
-7.55844e-05
-1.18363e-05
3.93709e-06
6.0816e-05
-5.29169e-05
-7.31037e-05
1.20302e-05
6.37858e-05
-2.71239e-06
-9.68409e-05
0.000102139
-7.09891e-07
7.25989e-05
-9.26289e-05
-7.18948e-05
0.00010093
-1.11322e-05
1.17204e-06
1.99985e-06
8.73194e-06
-1.19028e-05
-8.20004e-06
-8.71231e-06
1.0153e-05
6.7621e-06
-4.14886e-07
3.55208e-06
-6.39886e-06
3.25915e-06
6.43154e-06
-7.02117e-06
-5.14386e-06
5.73391e-06
5.9125e-06
-8.56809e-06
3.82791e-06
-1.01422e-05
7.8555e-06
6.03652e-06
-8.17354e-06
-4.52045e-06
-1.83482e-05
7.27608e-06
1.19708e-05
-8.99035e-07
4.78753e-06
2.48758e-06
-1.28609e-05
5.58559e-06
1.25394e-05
-1.6845e-05
-6.99611e-07
5.00568e-06
1.13763e-05
7.19586e-06
-1.25157e-05
-6.0564e-06
-5.46509e-06
-1.80453e-05
5.16191e-06
-1.88721e-05
1.81944e-05
-9.59701e-06
2.9282e-06
-1.59297e-05
-5.73025e-06
1.63966e-06
6.88171e-06
-2.79132e-06
-6.16419e-06
8.15144e-06
-5.94608e-06
3.95834e-06
5.98832e-06
1.28676e-05
-1.16997e-05
-7.15681e-06
1.6119e-05
-6.77265e-06
-6.82444e-06
-2.52222e-06
6.33817e-06
-1.28545e-05
7.86073e-07
-1.61317e-05
1.63053e-05
1.84953e-06
1.41461e-06
-8.2939e-06
-4.94924e-07
-1.29904e-05
1.17565e-05
1.1119e-06
-7.93219e-06
1.07564e-05
-1.60795e-05
2.06968e-05
7.41292e-06
-7.13184e-06
4.7227e-06
-3.24235e-06
5.6507e-06
-3.41843e-06
1.86124e-05
-1.56896e-05
-1.34387e-05
2.16414e-06
9.31642e-06
-2.73541e-05
1.1119e-05
-2.21101e-05
7.46353e-06
-9.76279e-06
-8.2131e-07
-2.66692e-06
7.03789e-06
-7.34596e-06
-1.97686e-05
1.91821e-05
2.02696e-06
-6.59768e-06
1.31666e-06
-8.61451e-06
-5.33021e-06
-8.11936e-06
-5.29396e-06
-4.9633e-06
2.10135e-05
-7.64134e-06
2.99777e-05
2.32703e-06
2.5815e-06
1.81767e-05
-3.17787e-06
-2.13212e-06
1.24706e-05
-2.06878e-05
2.9227e-06
-2.25249e-05
3.89254e-06
-6.40408e-06
-1.74563e-05
1.45766e-05
-1.05591e-05
-1.61997e-06
-5.56134e-06
6.70013e-06
-6.87938e-06
-7.89426e-06
-4.4007e-06
2.7823e-07
-5.82003e-06
-7.16161e-06
-2.52176e-05
-7.13514e-06
1.1311e-05
2.10421e-05
-1.09916e-05
-3.51879e-05
1.60243e-05
3.01563e-05
1.62859e-05
-3.36291e-05
-5.54277e-06
2.28868e-05
1.64961e-05
-1.90527e-05
-9.69577e-07
3.52705e-06
-5.44557e-06
-2.5208e-05
5.43634e-06
-3.97084e-05
2.32712e-05
-5.3075e-06
-3.40446e-06
-2.87299e-05
-3.5418e-05
-2.47204e-05
2.66549e-05
3.34845e-05
-3.63046e-05
3.45025e-05
-3.42897e-05
3.6093e-05
3.40929e-05
-3.04211e-05
-3.67544e-05
3.30829e-05
3.69384e-05
-2.88887e-05
2.44901e-05
-3.25393e-05
1.16256e-06
-6.17565e-05
2.51762e-05
-6.84959e-05
3.33538e-05
2.77213e-07
-2.50954e-05
-3.41258e-05
-3.0697e-05
2.38478e-05
-2.16067e-05
2.84571e-05
-2.98437e-05
3.54952e-05
-3.71526e-05
3.15025e-05
3.22124e-05
-3.57581e-05
-3.09617e-05
3.45069e-05
2.84216e-05
2.6256e-05
-2.1586e-05
-3.30919e-05
-2.75489e-06
-5.35125e-05
2.55708e-05
-6.581e-05
3.32118e-05
1.33165e-06
-2.64222e-05
-3.22657e-05
-1.37067e-05
1.76307e-05
-5.7704e-07
-3.34603e-06
-2.11552e-05
3.83284e-05
1.31504e-05
-3.03229e-05
1.03413e-05
2.39174e-05
-9.74518e-06
-2.45161e-05
2.60838e-05
-1.28999e-05
1.10071e-06
-1.4285e-05
9.56416e-06
-2.31163e-05
-1.54614e-07
-4.56103e-05
3.40191e-05
9.7241e-06
-6.75677e-06
-2.55449e-05
-4.83452e-05
-1.93798e-06
1.50956e-05
1.37536e-05
-7.6927e-06
-3.96898e-05
6.56014e-07
-1.68487e-05
-2.85998e-06
3.37464e-05
4.35149e-06
-5.16038e-05
1.35059e-05
-1.15314e-05
-3.37914e-05
-3.02229e-06
-2.65076e-05
-1.36376e-05
1.35926e-05
-3.94894e-05
-5.65393e-05
2.98812e-05
3.44497e-05
-5.89871e-05
5.79082e-06
-6.80114e-05
3.17996e-05
1.78612e-05
-5.49661e-05
2.94125e-05
-3.37851e-05
-2.57763e-05
-2.44308e-05
-3.82591e-05
3.0344e-05
-5.6899e-05
-2.46335e-05
-6.01863e-06
-9.03775e-06
9.58192e-07
-1.76485e-07
-1.67958e-05
3.52008e-06
3.76505e-05
-2.98089e-06
-1.07521e-05
1.1619e-05
-3.23332e-05
-3.91973e-06
-2.69122e-05
9.68894e-06
-4.37195e-06
-3.71366e-05
5.59097e-05
-3.26356e-05
-2.27779e-05
-3.26894e-05
5.74877e-06
-3.82649e-05
-3.08095e-05
1.92437e-05
2.07282e-05
-3.19066e-05
-3.3957e-05
1.95721e-06
1.00213e-06
-2.33947e-06
-6.23692e-07
-1.74275e-06
3.13702e-06
1.33299e-06
-2.7247e-06
2.43836e-06
4.63595e-06
-3.7877e-06
-3.28588e-06
-3.22703e-06
2.4453e-06
2.84229e-06
-2.06268e-06
2.03317e-07
4.17158e-07
1.33374e-06
1.04163e-06
-2.57986e-06
-3.28584e-07
-2.48072e-06
3.15253e-06
1.52044e-08
-1.26794e-06
2.49839e-06
-1.24841e-06
-3.48234e-06
1.75222e-07
7.68384e-06
-4.37062e-06
4.6291e-06
-4.0342e-06
-2.93192e-06
2.33746e-06
-1.55601e-06
-1.45685e-06
3.9638e-06
-9.53631e-07
-2.4954e-06
-1.81218e-06
4.31891e-06
-6.70873e-06
7.29137e-07
-1.57098e-06
-1.79749e-06
-3.65059e-06
3.49568e-06
1.29646e-06
-2.44648e-06
-2.3438e-06
-1.78613e-06
1.41392e-06
-1.86119e-06
2.2331e-06
3.1915e-07
-2.72307e-06
5.17659e-06
-2.77238e-06
-2.7412e-06
1.45505e-06
2.93719e-06
-1.65022e-06
6.64147e-07
2.14392e-06
6.87878e-07
-1.30657e-06
1.85056e-07
1.654e-06
-2.25046e-06
6.66468e-07
1.49994e-06
-2.18547e-06
1.58036e-06
-8.96161e-07
-4.2276e-06
-5.40953e-06
7.5451e-06
2.09355e-06
5.03853e-06
-3.57436e-06
1.72893e-06
-3.19307e-06
7.45056e-07
1.59644e-05
-1.58785e-05
-8.30523e-07
-7.5641e-07
-6.26558e-07
2.88277e-06
-1.42988e-06
-3.55428e-06
1.69621e-06
-1.577e-06
5.3048e-06
1.79498e-06
4.30881e-07
9.13141e-07
2.38193e-06
2.95318e-07
1.96201e-06
-3.58151e-07
-6.33463e-07
3.43107e-06
-4.96041e-06
2.12122e-06
2.81322e-06
3.07168e-08
-2.29891e-06
2.83389e-06
1.26181e-06
3.23456e-06
-3.03781e-06
9.11685e-07
-1.64415e-07
2.10914e-06
-2.94327e-06
-2.69477e-06
3.36047e-06
-5.22501e-09
-5.02809e-06
1.00013e-06
1.72853e-06
2.17874e-06
-3.60952e-06
3.79958e-06
-4.28068e-07
-6.92468e-07
2.92452e-06
-1.62343e-06
2.22666e-06
5.29268e-06
1.30586e-07
-3.46079e-06
-8.20313e-07
-2.00022e-06
-3.14752e-06
5.51455e-07
9.5663e-07
-2.26053e-07
-4.30656e-06
3.82598e-06
4.36645e-06
-2.90175e-06
2.84035e-06
3.86145e-06
1.46106e-06
3.60682e-06
-3.59428e-06
4.82368e-06
-2.48312e-09
3.91562e-06
-9.21812e-07
-2.69234e-06
2.85156e-06
1.44322e-06
7.18547e-07
2.74844e-06
3.46495e-06
3.14649e-07
2.99517e-06
-6.03214e-06
3.25241e-06
5.22931e-06
-5.54407e-06
-8.59101e-06
1.49585e-06
5.23467e-06
4.11673e-06
2.50329e-06
2.66197e-06
-9.28169e-06
3.21632e-06
4.33477e-06
-7.23635e-06
7.13543e-06
4.22022e-06
4.23156e-06
2.7648e-06
6.40119e-06
-3.39633e-08
-4.63721e-06
3.44975e-06
-4.33019e-06
-4.11934e-06
-1.19638e-06
-6.78142e-07
-5.33802e-08
-1.17846e-05
4.93059e-06
5.83213e-06
-4.36153e-06
1.36851e-05
6.36388e-06
-1.20985e-06
3.72043e-06
-9.41385e-06
2.76209e-06
-5.86679e-07
-1.84821e-06
-1.05046e-05
1.96773e-06
7.88511e-06
-1.3921e-05
8.92472e-07
8.55767e-06
5.32215e-06
-1.01589e-05
4.32054e-06
1.07046e-05
2.50309e-06
2.6819e-06
5.99935e-06
3.07637e-06
-1.17569e-05
3.03302e-06
-1.68346e-06
-1.30498e-05
-1.39797e-05
9.73015e-06
-1.69721e-06
7.08536e-06
8.67393e-07
-1.47257e-05
9.06663e-06
5.77867e-06
-1.21633e-05
8.47402e-06
3.62554e-06
1.37996e-05
-9.35882e-07
8.41444e-06
4.04488e-06
-7.22962e-06
-9.02349e-06
6.64444e-06
3.87579e-06
6.44417e-06
4.59875e-06
-8.53949e-06
-8.20758e-06
8.42952e-06
1.14331e-05
-1.16555e-05
3.38166e-06
1.59149e-06
3.44149e-06
-2.87701e-06
2.85467e-06
-9.47091e-06
6.42203e-06
8.8349e-06
-2.62963e-06
1.10058e-05
-2.50446e-06
5.22486e-06
-1.34599e-06
5.29876e-06
7.53213e-06
4.74449e-06
3.69297e-06
6.86394e-06
8.0529e-06
-6.67784e-06
8.08274e-06
2.47182e-06
8.26315e-06
2.33572e-06
4.13523e-06
5.61433e-06
-4.71716e-06
1.35861e-05
8.6082e-07
-1.03257e-05
1.23227e-06
2.41584e-06
4.35953e-06
-1.21203e-05
8.63566e-06
3.96817e-06
-5.896e-06
6.0611e-06
-3.50223e-06
-5.44856e-06
-7.41481e-07
-2.70884e-06
3.80935e-06
-2.25821e-05
7.70713e-06
7.74014e-06
1.32743e-05
-1.64669e-05
2.22238e-06
8.23999e-06
-2.62716e-05
1.24884e-05
-7.56788e-07
-1.61515e-05
1.12918e-05
5.61722e-06
-1.75382e-05
-1.13617e-05
6.31805e-06
-7.66843e-06
-3.00387e-05
1.79203e-05
-2.94674e-05
-1.32923e-05
1.58632e-05
-3.14814e-06
1.37215e-05
-8.56913e-06
5.48002e-06
1.54793e-05
-3.0174e-06
1.66608e-05
-7.1578e-06
-1.1357e-05
1.17995e-06
-3.1143e-06
-4.39223e-06
-2.5239e-05
2.34018e-05
-4.48582e-05
3.78104e-06
1.94715e-05
1.95463e-05
3.52073e-06
6.53804e-06
2.35151e-05
1.10225e-05
-1.60056e-07
4.6622e-06
-2.88474e-05
-1.93476e-05
3.33702e-06
-3.57234e-05
-2.88252e-05
2.04994e-05
-2.40128e-06
-2.99458e-06
-8.05108e-07
6.20033e-06
8.05221e-06
-3.27887e-06
-4.56925e-06
2.94533e-06
-7.99879e-06
2.16661e-06
-8.26151e-06
1.75716e-06
-1.32555e-06
-9.12215e-07
-1.28536e-07
-1.35872e-06
8.73262e-06
-1.59227e-06
-6.92594e-06
-1.46352e-06
-6.49657e-07
-1.74772e-05
1.65898e-06
8.43662e-06
-2.72389e-05
-7.46918e-06
-1.75304e-05
-2.51888e-06
3.89717e-06
8.73759e-06
-7.64288e-06
4.16687e-06
-5.26063e-06
2.43646e-05
6.2113e-06
-3.12265e-05
3.33323e-06
1.56633e-05
-7.14533e-07
1.46522e-06
-1.79108e-06
-3.59851e-06
1.26173e-05
2.88529e-05
-2.41265e-05
-2.281e-05
-1.34662e-05
-2.65375e-05
-6.47986e-06
-6.73447e-06
-3.321e-05
-1.1092e-05
-2.86147e-06
-1.77024e-05
1.30958e-05
-3.74784e-06
-1.76659e-06
1.14542e-05
-1.05655e-05
-4.01174e-06
-8.16897e-06
4.1847e-06
-1.50224e-06
7.8532e-07
-2.14381e-06
-3.78484e-06
-6.07706e-06
2.85174e-06
-2.73876e-05
-5.8938e-06
6.27411e-06
2.31337e-05
-6.73341e-06
-1.73167e-05
-9.7751e-06
-5.27451e-06
-2.2841e-07
1.09008e-05
-6.35252e-06
-4.31678e-06
-3.01244e-07
-2.64383e-06
-3.30413e-06
6.24884e-06
9.36819e-06
-1.30276e-06
-6.15774e-06
-1.90889e-06
-1.02914e-05
5.26855e-06
1.24827e-05
-7.46193e-06
-6.50619e-06
-3.00464e-07
6.57929e-06
-4.17562e-06
-2.63211e-06
-7.1875e-06
-3.40673e-06
-1.99504e-06
-3.01889e-06
-2.08428e-06
2.46382e-08
5.08336e-06
2.51429e-06
1.05267e-05
-5.35671e-06
6.75081e-06
1.00974e-07
-4.35293e-06
-3.12679e-06
5.4536e-07
1.62563e-06
-1.14957e-05
-3.11604e-06
1.15961e-05
-3.81327e-06
-5.16746e-06
-7.25644e-06
1.01315e-06
-6.14949e-07
6.0442e-06
-4.70049e-06
-7.27694e-07
-3.1874e-07
5.17387e-06
-3.52118e-06
3.30189e-06
-1.88784e-06
-4.12793e-07
-1.87995e-06
5.25003e-06
-5.29659e-07
-3.16415e-06
-1.74377e-06
4.29293e-06
-1.46603e-06
-2.01672e-06
-3.1696e-06
-4.56663e-07
1.14569e-05
-1.60405e-05
5.47057e-06
-8.87208e-07
-2.93741e-06
-4.59747e-06
9.62836e-06
6.50599e-06
-3.34346e-06
-1.58198e-06
-3.08185e-06
-1.3322e-05
5.25386e-07
-1.55148e-06
-5.4548e-07
1.35551e-05
-3.64817e-06
-8.40659e-07
-5.74059e-06
2.11335e-06
-2.36263e-07
-5.02567e-06
2.61777e-06
8.37314e-06
-7.30056e-06
-2.37603e-06
-9.04884e-06
2.66119e-06
1.16563e-05
1.79206e-06
-6.71607e-06
-8.45304e-07
5.76765e-06
-1.32296e-06
7.54086e-06
-6.45513e-06
5.05524e-06
-8.33848e-07
1.0167e-05
-4.82752e-06
-3.84884e-06
-3.26119e-06
-4.62775e-06
-1.5428e-06
6.14367e-06
-2.11329e-06
-3.92942e-06
8.11611e-07
-2.20224e-06
-5.91025e-06
-2.74204e-06
-7.56219e-06
-6.35668e-06
-2.07504e-06
-4.67569e-06
-2.28785e-06
4.46617e-06
-4.68109e-06
-2.16047e-06
-2.17526e-06
-1.12049e-05
-2.00908e-06
-3.43248e-06
2.72376e-06
-7.16334e-06
1.09491e-06
5.81966e-06
-1.32029e-06
-3.43466e-08
-1.18324e-06
4.03298e-06
-2.6288e-06
-8.395e-07
1.51793e-06
-4.94362e-06
3.9746e-06
2.71341e-06
7.40892e-07
1.60348e-06
2.42845e-06
7.06546e-05
-6.97078e-05
-3.87545e-05
3.78079e-05
-3.82763e-05
6.82739e-05
-5.38282e-05
2.38305e-05
-5.61767e-05
6.10758e-05
-3.6122e-05
3.12227e-05
1.97789e-05
4.07242e-05
-4.17768e-05
-1.87265e-05
0.000101339
2.88822e-05
-5.95661e-05
3.28927e-05
3.01691e-05
8.29881e-05
-3.43271e-05
5.97041e-05
5.07808e-05
-3.47022e-05
-2.41609e-05
8.08325e-06
-3.19796e-05
-7.11392e-07
4.08375e-05
-8.1456e-06
-1.51623e-05
-3.03264e-05
4.46074e-05
8.8364e-07
-3.2373e-06
-3.74484e-06
-1.49907e-05
2.19718e-05
4.80479e-05
2.03866e-05
-1.76517e-05
1.53031e-05
7.6685e-07
4.39645e-05
-2.68135e-05
4.41058e-05
5.63063e-05
-4.52907e-05
-3.51538e-05
2.41379e-05
-3.7717e-05
-1.84026e-05
4.83333e-05
7.78681e-06
-2.63066e-05
4.53147e-05
-3.70443e-05
1.80372e-05
1.40799e-05
-3.27675e-05
4.83024e-05
-2.96174e-05
6.84302e-05
1.29426e-05
-2.50652e-05
1.4048e-05
1.6666e-05
6.66783e-05
-3.96552e-05
5.44203e-05
-7.22476e-07
5.87811e-06
-2.33264e-06
-2.82557e-06
1.58142e-06
-2.04852e-06
-1.19181e-05
1.23831e-05
-1.43911e-05
4.57747e-06
2.16397e-05
-1.18259e-05
-4.42259e-08
-3.76185e-06
-5.17324e-06
8.97819e-06
-4.40175e-06
6.85102e-06
-3.1729e-06
-2.59074e-06
-2.28395e-07
1.3845e-05
-7.03779e-06
-3.13543e-06
2.57569e-05
7.71502e-05
-3.46325e-05
-4.0915e-05
7.6393e-05
2.55973e-05
3.9845e-05
2.47967e-05
-2.39175e-05
-4.84749e-06
4.70243e-06
9.65714e-06
-9.51355e-06
-2.70078e-05
-3.5966e-06
5.63616e-05
-8.21872e-06
-6.51497e-06
-1.92912e-06
2.51112e-05
2.76592e-05
1.47898e-05
-4.15117e-06
5.11046e-06
-5.4614e-05
1.91146e-05
5.17357e-06
3.32817e-05
2.17467e-05
2.13645e-05
5.32682e-05
3.07541e-05
2.2305e-05
4.84926e-05
1.55446e-05
1.61854e-05
-1.48182e-05
7.55871e-05
-3.51718e-05
5.1384e-05
-2.07093e-05
-1.21368e-05
1.97455e-05
-2.55074e-05
5.4885e-05
-2.48012e-05
-3.92714e-05
4.19871e-05
-1.75345e-05
3.72236e-05
-2.48584e-05
4.13378e-05
5.20435e-05
-2.10036e-05
4.31211e-05
9.56687e-06
1.5287e-05
-4.86417e-05
4.93552e-05
-7.10505e-06
3.40838e-05
1.32291e-05
1.62754e-06
2.44241e-05
-2.54029e-06
4.80624e-06
-9.18043e-06
-1.10824e-05
3.10589e-06
6.1542e-06
-1.59634e-05
3.3458e-06
7.65965e-07
-5.83035e-07
2.33475e-06
-2.81426e-06
-2.05957e-06
-2.45288e-05
5.96795e-06
-1.24066e-05
-1.22751e-05
-1.31431e-05
1.65214e-06
-1.90586e-05
-1.35883e-05
2.40227e-06
8.0101e-06
-2.39408e-05
-1.57617e-05
2.06555e-05
-8.05821e-06
-9.76117e-06
-2.83589e-06
1.18123e-05
-2.25252e-05
-1.5615e-06
-3.55879e-05
1.25993e-05
-1.44688e-05
-1.49785e-05
-1.62719e-05
1.09696e-05
-2.82174e-05
1.12813e-05
-1.49718e-05
1.43047e-05
-1.60338e-05
3.11043e-05
7.78106e-06
-1.43952e-05
1.565e-05
-4.05999e-05
8.6787e-06
-4.34084e-05
1.56806e-05
-1.3423e-05
2.93751e-06
-2.79026e-06
-3.49287e-06
-6.49436e-06
1.9251e-05
-1.23506e-05
-4.06208e-07
7.71973e-07
2.65897e-05
-1.42115e-05
1.26718e-05
-6.96462e-06
-4.60579e-06
5.34534e-06
-3.8629e-06
1.45587e-06
-2.14004e-05
2.02513e-05
8.65427e-06
-1.19742e-05
-1.71203e-05
6.17345e-06
-1.34688e-07
3.30233e-06
1.02774e-05
-2.95423e-05
-1.58953e-07
8.60418e-06
-7.67907e-06
1.39728e-05
5.44982e-06
-1.87168e-05
-7.0552e-07
-8.05932e-06
-1.67647e-05
7.70403e-06
-1.71636e-05
-3.35721e-06
5.65162e-07
-2.068e-05
-3.27004e-05
2.6584e-05
-2.91925e-05
-1.29458e-05
-4.10583e-05
1.98254e-05
-3.72438e-05
-1.7829e-05
-7.16737e-06
-5.71349e-06
-1.51561e-05
-3.38151e-05
-2.53577e-05
1.09109e-05
2.95375e-06
-9.15936e-06
9.69343e-06
2.84005e-05
1.16944e-05
4.57067e-06
-1.63361e-05
-1.31556e-05
2.06369e-06
1.00004e-05
-1.53631e-05
3.21303e-05
-1.26551e-05
-3.52643e-06
-1.59728e-05
-1.42683e-05
-1.55086e-05
-2.64719e-05
1.97876e-05
1.56586e-05
-2.8296e-05
-1.61638e-05
-1.83886e-05
-1.48383e-05
2.91062e-05
4.12211e-06
2.55695e-05
-1.40199e-05
-8.33051e-06
-3.21966e-06
-1.42889e-06
-2.33394e-05
2.91753e-05
-4.40685e-06
-7.97072e-06
-8.25772e-06
-2.36141e-06
1.85902e-05
-1.86958e-05
8.21181e-06
-7.90466e-06
8.52713e-06
-1.65341e-06
-2.38699e-05
2.41114e-05
-1.67714e-05
-1.54474e-05
2.73724e-05
-4.92286e-06
-6.99905e-06
2.40483e-05
-2.75855e-05
-1.57167e-06
5.11057e-06
4.11127e-06
2.12052e-05
-1.44006e-05
-1.09163e-05
-5.62655e-06
1.05094e-05
-8.94661e-06
4.06434e-06
-2.53356e-05
4.99546e-06
4.89202e-06
4.34819e-06
-5.63582e-06
-1.67955e-05
1.61636e-05
-8.33508e-06
-1.92107e-05
9.91933e-06
1.56845e-05
-6.39345e-06
1.82422e-05
7.8113e-06
-1.86639e-05
-7.38918e-06
5.61856e-06
-1.12111e-05
1.13013e-05
-5.70905e-06
-8.7081e-06
7.62943e-06
1.07828e-06
-5.05109e-11
-2.65246e-05
8.30444e-07
6.48249e-06
-6.33743e-07
-7.64887e-06
-1.64588e-05
8.58037e-06
-1.14738e-05
9.40933e-07
-1.10445e-05
1.91809e-06
8.18667e-06
4.3896e-06
-9.59274e-06
5.86826e-06
-6.6527e-07
6.77561e-06
-1.375e-05
3.31914e-06
3.65473e-06
-1.13776e-05
6.75126e-06
-8.11496e-07
5.43858e-06
-9.44017e-06
8.09485e-06
2.28649e-06
6.24864e-06
-1.12995e-05
-9.8511e-06
6.56819e-06
3.17378e-06
5.02004e-06
-2.63809e-05
7.34235e-06
6.47123e-06
-3.23249e-05
2.51426e-06
-1.53998e-05
7.03033e-06
1.11466e-07
1.07041e-06
-1.22904e-05
8.24798e-06
2.97319e-06
2.03511e-05
8.59123e-06
-2.39221e-05
1.00509e-05
1.23416e-05
-2.67927e-06
6.99244e-06
7.87032e-06
-6.87865e-06
-1.0428e-05
8.6471e-06
3.12041e-05
2.89789e-06
-1.28958e-05
-2.41537e-05
-6.26605e-07
-7.54432e-06
-1.06116e-05
-5.43858e-06
-4.87532e-06
-1.96427e-05
-9.94864e-06
6.68635e-06
8.08156e-06
-2.40346e-05
1.84671e-05
-1.49686e-05
1.09537e-05
8.32332e-06
-9.66844e-06
-5.23631e-06
-8.96747e-06
4.52873e-07
5.28046e-06
-6.14086e-06
8.94065e-06
-2.69612e-06
5.67229e-06
-1.70505e-05
-1.47419e-05
-3.63404e-06
2.29582e-06
-2.01798e-06
9.97337e-07
2.17042e-05
-1.09946e-05
9.20858e-06
-1.74679e-05
-1.14759e-05
1.09227e-05
-2.57094e-06
-1.65199e-05
2.21832e-05
-0.00016365
0.000157988
8.78735e-07
-7.99204e-06
-6.98633e-05
7.69775e-05
4.89596e-05
-2.68768e-05
2.81053e-05
-5.01866e-05
6.14208e-06
-2.16434e-05
-1.22064e-05
2.77072e-05
-0.000129301
-1.21571e-05
0.000124939
-2.7381e-06
-0.000125683
-3.26986e-05
2.66848e-05
1.35237e-05
-3.87339e-06
7.56071e-06
-1.66407e-05
1.2955e-05
8.13518e-06
-3.64441e-07
2.75894e-06
-2.49361e-06
-1.9337e-06
4.45606e-06
4.19217e-06
6.98097e-06
-9.55024e-06
-1.03491e-05
2.65148e-06
3.8275e-06
6.12944e-07
-2.82576e-06
-9.71542e-06
1.65607e-05
-9.65452e-06
1.50522e-05
4.88346e-06
-1.0275e-05
6.62437e-06
-1.37682e-05
3.84271e-06
-2.60633e-06
4.53911e-06
8.96986e-06
1.70829e-06
1.01592e-05
6.10762e-07
-8.70384e-06
1.49621e-06
-2.44055e-06
9.31565e-07
-3.00864e-06
-4.90453e-06
8.11127e-06
-4.28067e-06
-3.18055e-05
3.152e-05
4.56489e-06
3.76946e-06
5.40706e-06
4.5119e-07
1.19345e-05
-3.70887e-06
-2.75536e-06
-1.31517e-05
-5.31339e-06
5.14345e-06
-1.2212e-05
1.12731e-05
-3.34216e-06
-1.37222e-05
5.27968e-06
-1.17673e-05
9.88788e-06
-3.49047e-07
-3.96044e-05
3.19636e-05
3.65231e-05
-6.43212e-05
9.23779e-07
-5.11576e-05
1.91814e-05
1.03322e-05
2.51074e-05
-1.10588e-05
-3.12823e-06
-1.09237e-05
5.48851e-06
-1.91706e-05
1.33356e-05
5.55352e-05
6.34699e-06
-4.10838e-07
1.07244e-05
2.03902e-06
-3.40826e-05
-2.094e-06
-1.98436e-06
-1.27233e-05
7.53881e-06
3.25237e-06
-1.05117e-05
-6.48344e-06
-4.73242e-05
-3.76059e-06
1.91365e-05
1.07073e-05
1.05711e-05
-1.94545e-06
8.55607e-06
1.40539e-05
-1.55335e-05
2.40585e-06
-3.70677e-05
2.44422e-05
6.17185e-06
-3.89407e-06
6.54394e-06
-1.29286e-05
2.67714e-06
7.99487e-06
-1.41353e-05
2.01948e-05
-1.83486e-05
6.89703e-06
-1.4488e-05
-6.96282e-06
8.88758e-06
-1.10506e-07
-3.61067e-06
-9.44954e-07
-8.45672e-06
-6.54523e-06
-3.51126e-06
8.02981e-06
3.78739e-05
-0.000115612
4.91853e-05
-1.45765e-06
1.90046e-05
-6.67323e-05
-8.19898e-05
1.19754e-05
1.61869e-05
1.49675e-05
-5.77454e-07
-5.61672e-05
3.42476e-05
7.51956e-05
-0.000101413
6.06563e-05
2.27769e-05
3.05969e-05
9.26322e-06
-1.17047e-05
3.14438e-05
2.89557e-06
-2.26352e-05
2.91851e-05
-2.03834e-05
-1.17482e-05
2.94702e-06
2.8931e-06
1.01168e-06
-4.92384e-06
1.02351e-06
-1.79462e-05
1.64734e-05
-8.68337e-06
1.01565e-05
-2.91399e-05
2.62553e-05
-8.81994e-06
1.06986e-05
-1.06534e-05
-2.37509e-05
3.20599e-05
-1.01591e-05
1.50683e-05
-4.09935e-05
1.76334e-06
3.60797e-06
5.64592e-06
-5.75906e-06
-3.4924e-06
-2.00666e-05
3.36635e-05
-1.43067e-05
-9.79811e-06
-1.53849e-05
1.01934e-05
1.44485e-05
3.62518e-05
-3.56316e-05
2.49924e-05
-6.93445e-06
8.80215e-06
1.37281e-05
-3.86334e-06
1.14526e-06
3.84218e-07
1.18885e-07
-6.47649e-06
-9.8592e-06
1.62164e-05
-2.31892e-06
-4.36988e-06
-5.22978e-06
-5.89112e-06
-7.35875e-06
9.48794e-06
1.66107e-06
3.11487e-06
-8.64016e-06
9.17593e-06
-7.3971e-06
-5.9502e-06
9.06205e-07
4.09731e-05
6.78448e-06
-4.92153e-05
-5.65007e-05
2.27073e-05
4.57683e-05
1.60048e-05
1.91201e-05
-3.57023e-05
1.01823e-05
-1.3829e-05
1.1045e-05
-7.39834e-06
3.60761e-05
-8.60777e-06
1.35046e-05
-1.11613e-05
-3.96702e-06
5.54177e-06
8.76304e-07
3.48094e-05
3.41899e-06
-1.77712e-05
2.04151e-05
5.52569e-06
-3.35329e-06
-1.16182e-06
-3.08499e-05
4.35393e-05
1.00176e-05
6.00327e-06
4.23105e-05
2.02919e-05
6.11956e-06
5.34096e-06
3.1937e-05
-2.86105e-06
1.39971e-05
-3.65237e-06
1.7482e-05
-1.29138e-05
-1.01154e-05
-3.76788e-06
-1.87638e-06
-2.914e-06
-4.65273e-06
-5.43217e-06
-7.59737e-06
1.65427e-05
-2.36164e-05
4.46443e-06
5.14632e-06
2.35527e-06
8.58597e-06
-6.29312e-06
9.97504e-06
-2.90641e-05
-2.12386e-05
1.14589e-05
-4.63302e-06
-7.18228e-06
-1.27207e-05
8.69178e-06
8.7138e-06
-8.84922e-06
-1.85288e-05
7.14162e-06
-2.06798e-06
-1.42674e-05
9.19224e-06
-7.38811e-06
3.25293e-06
5.21258e-06
-2.17994e-05
3.14219e-06
2.58736e-06
-1.56733e-05
-1.39011e-05
9.65434e-06
-4.17237e-06
-8.78169e-06
9.02645e-06
-1.46452e-05
5.34385e-06
7.34755e-07
-1.07691e-06
-7.40016e-07
-3.94246e-06
-1.36993e-06
2.61764e-06
-2.27445e-05
5.62804e-06
-7.5326e-06
-9.86795e-06
-5.11862e-06
9.37724e-06
5.42215e-06
1.63361e-06
-5.39561e-06
-1.66036e-06
-4.47422e-06
1.22034e-05
-1.26519e-05
2.93129e-06
-2.20753e-05
-1.23918e-06
-6.34857e-06
-8.85676e-06
6.52207e-06
7.46694e-07
1.78782e-06
2.88941e-06
8.89446e-06
-1.26216e-05
-1.6667e-06
-2.89446e-06
9.20154e-06
-1.23681e-05
6.48568e-06
5.93996e-06
-5.30132e-06
-9.01695e-06
-7.58954e-06
6.74657e-06
-1.19704e-05
1.13626e-05
-3.07296e-06
1.5448e-05
1.11101e-05
-8.24329e-06
-2.99932e-06
6.47655e-06
4.76118e-06
-2.46049e-05
5.08634e-06
-1.64769e-05
9.3215e-06
-7.88341e-06
1.34319e-05
-6.35967e-07
-6.19721e-06
7.83273e-06
1.0116e-05
1.2421e-05
-1.77754e-05
1.10299e-05
9.21405e-06
1.23606e-05
2.49778e-07
-1.58281e-05
-2.97722e-06
-6.00974e-07
1.28544e-05
-1.44888e-07
-1.34489e-05
-9.24951e-06
7.73135e-06
-1.49593e-05
-5.75519e-06
-1.17702e-05
6.45328e-07
-5.24594e-06
-1.57734e-05
8.25424e-06
8.54897e-06
-7.8324e-06
8.60392e-06
-3.95543e-06
5.01914e-06
7.61089e-06
-5.07845e-06
-1.16659e-05
-3.42846e-06
7.50505e-06
-3.68198e-06
4.90653e-06
7.32447e-06
4.72346e-06
-4.09106e-06
-2.66772e-06
1.5336e-06
-9.92952e-06
-1.2139e-06
5.76583e-06
8.03749e-06
-3.61391e-06
-4.55951e-06
1.04064e-05
3.2175e-05
-2.30179e-05
3.61576e-05
-2.52379e-05
4.38898e-05
2.96835e-05
-4.46072e-05
4.74903e-05
-2.59214e-05
2.30411e-05
3.55474e-05
2.06552e-05
-7.90146e-06
7.35666e-05
1.30306e-05
1.72333e-05
3.10966e-05
6.37544e-05
-1.51754e-05
3.63815e-05
4.39822e-05
-1.80892e-05
1.8717e-05
-1.76467e-05
4.43555e-05
1.41294e-05
-3.46246e-05
-2.62438e-05
5.49087e-05
5.95942e-06
4.60082e-06
-1.81889e-06
1.91885e-05
6.19539e-05
2.61353e-05
3.022e-05
1.40883e-05
4.88399e-05
-1.81022e-05
4.44356e-05
5.63205e-05
-3.9817e-05
-2.85117e-05
1.20103e-05
-3.28682e-05
-2.86297e-05
5.88215e-05
2.67679e-06
-2.65787e-05
5.93889e-05
-3.78499e-05
5.04098e-06
6.01285e-06
-1.05954e-05
1.46225e-05
-1.00401e-05
6.38316e-05
2.39133e-05
-3.14221e-05
2.63151e-05
4.64894e-06
5.9043e-05
-2.91159e-05
5.87793e-05
2.92397e-06
1.64015e-05
2.31507e-06
1.23548e-05
3.0394e-06
-3.01204e-06
-5.09654e-06
-1.44857e-06
-2.37485e-06
8.92061e-06
-4.35862e-06
-1.05802e-05
9.76551e-06
-1.39337e-07
-7.11571e-08
8.5888e-06
3.62699e-06
-8.89026e-06
4.46206e-06
-5.39734e-06
2.45799e-05
6.86679e-05
-4.60076e-05
7.22518e-05
2.12485e-05
5.08602e-05
1.29156e-05
-1.67786e-05
2.08337e-05
1.12296e-05
-1.93967e-05
-1.3174e-05
5.71527e-05
-2.90229e-05
-5.52873e-06
1.63082e-05
2.89598e-05
2.16193e-05
6.29484e-06
1.27201e-05
-6.13692e-05
2.93905e-05
5.73641e-06
2.80858e-05
2.46127e-05
1.95553e-05
4.32808e-05
4.2833e-05
3.14744e-05
5.6284e-05
1.46355e-05
2.63897e-05
-1.92645e-05
6.10416e-05
-2.05276e-05
3.6302e-05
-6.98557e-06
-6.2408e-07
1.48916e-05
-9.23564e-06
1.00494e-05
-2.26456e-06
-3.59873e-05
2.16153e-05
-4.89346e-06
1.66224e-05
-1.96253e-05
3.20043e-05
4.5838e-05
-1.70902e-05
1.65449e-05
1.26351e-05
1.49771e-05
-5.2504e-05
5.32652e-05
-9.59454e-06
2.4011e-05
5.32013e-06
-2.10304e-06
1.58528e-05
-4.74347e-05
2.1029e-05
1.15675e-05
2.4967e-05
-5.35406e-05
1.69599e-05
1.16139e-05
2.09585e-05
-3.95524e-05
1.02632e-05
7.22059e-07
-1.23699e-05
9.2853e-06
-3.97855e-05
-2.46299e-05
1.69801e-05
-2.62578e-05
1.14395e-05
-3.18126e-05
-3.71121e-05
-5.8101e-05
2.56454e-05
1.60537e-05
1.64021e-05