/*--------------------------------*- C++ -*----------------------------------*\
| =========                 |                                                 |
| \\      /  F ield         | OpenFOAM: The Open Source CFD Toolbox           |
|  \\    /   O peration     | Version:  2506                                  |
|   \\  /    A nd           | Website:  www.openfoam.com                      |
|    \\/     M anipulation  |                                                 |
\*---------------------------------------------------------------------------*/
FoamFile
{
    version     2.0;
    format      ascii;
    arch        "LSB;label=32;scalar=64";
    class       surfaceScalarField;
    location    "1100";
    object      phi;
}
// * * * * * * * * * * * * * * * * * * * * * * * * * * * * * * * * * * * * * //

dimensions      [0 3 -1 0 0 0 0];

oriented        oriented;

internalField   nonuniform List<scalar> 
138592
(
-1.28133e-07
1.48535e-06
-1.30719e-06
-5.00261e-08
1.47887e-06
-1.34701e-07
-1.29939e-06
-4.4772e-08
-4.85979e-08
-1.23803e-07
1.53407e-06
-1.36167e-06
-1.30874e-06
-1.25294e-07
1.49135e-06
-5.73162e-08
-1.43786e-06
1.36062e-06
-5.08922e-08
1.36151e-06
-1.32051e-06
-1.43992e-06
1.4918e-06
-1.27005e-07
-1.4207e-07
1.47412e-06
-1.29404e-06
-3.80138e-08
1.47409e-06
-1.51271e-07
-1.2906e-06
-3.22106e-08
-2.00614e-08
1.53233e-06
-1.64175e-07
-1.3481e-06
-1.32182e-06
1.49845e-06
-1.3507e-07
-4.15605e-08
-1.45921e-06
1.34971e-06
-3.25694e-08
1.33825e-06
-1.32337e-06
-1.46383e-06
1.49172e-06
-1.45642e-07
-1.3037e-07
-3.4323e-08
1.61095e-06
-1.44626e-06
1.61816e-06
-1.36877e-08
-1.57868e-07
-1.4466e-06
-2.32581e-08
-1.29345e-07
1.71326e-06
-1.56066e-06
-1.48566e-06
-4.40516e-08
-1.20421e-07
1.65013e-06
-1.61772e-06
1.51492e-06
-2.75716e-08
1.50369e-06
-1.50325e-06
-1.61791e-06
1.64717e-06
-1.37481e-07
-1.2053e-07
-1.31541e-06
1.49954e-06
-6.35987e-08
1.50835e-06
-1.32925e-06
-1.22741e-07
-5.63648e-08
-6.85854e-08
-1.38704e-06
-1.04886e-07
1.56052e-06
-1.32871e-06
-1.06481e-07
1.506e-06
-7.08047e-08
-1.45097e-06
1.39518e-06
-6.47414e-08
1.39688e-06
-1.33949e-06
-1.44427e-06
1.51074e-06
-1.15981e-07
1.35616e-06
-1.4462e-06
-4.4659e-08
-4.58034e-08
-1.50339e-06
1.42539e-06
-1.43589e-06
1.36707e-06
-5.64775e-08
1.28656e-07
-1.45787e-06
1.37391e-06
-4.46943e-08
1.49163e-06
1.31514e-06
-1.45061e-06
1.31882e-06
1.49302e-06
-4.92229e-08
1.37595e-06
1.34658e-06
-1.31866e-06
-1.33405e-06
1.37463e-06
1.53236e-06
1.39791e-06
-1.39793e-06
-1.52945e-06
1.41519e-06
-1.38913e-06
-1.34271e-07
3.02454e-08
2.33958e-08
-1.47753e-07
-1.35145e-06
1.408e-06
1.38338e-06
-1.51717e-06
1.55918e-06
-1.44901e-06
1.50067e-06
1.50607e-06
-1.4614e-06
-1.43857e-06
-1.53479e-06
1.58632e-06
-5.05532e-08
-1.2207e-07
1.556e-06
-1.23614e-07
-4.29585e-08
-1.51768e-06
-1.36303e-07
-1.44051e-06
-1.38332e-07
4.39911e-08
-1.30767e-07
1.53657e-06
-1.52355e-07
1.39292e-06
-1.5568e-06
-1.56527e-06
1.38777e-06
-1.33506e-07
9.63292e-07
-9.39049e-07
-2.55059e-07
2.30816e-07
-2.59613e-07
9.68357e-07
-9.37125e-07
2.2838e-07
-9.3605e-07
9.7356e-07
-2.61777e-07
2.24267e-07
2.31459e-07
9.66705e-07
-9.38356e-07
-2.59809e-07
1.19538e-06
7.06338e-07
-9.38423e-07
7.07279e-07
2.28485e-07
1.19807e-06
-2.60273e-07
9.69299e-07
9.71975e-07
-2.59403e-07
-9.40316e-07
2.27744e-07
-2.57213e-07
-9.45692e-07
9.74033e-07
2.28872e-07
-9.47617e-07
-2.5868e-07
9.76424e-07
2.29873e-07
2.32214e-07
-2.57444e-07
-9.46043e-07
9.71273e-07
1.20241e-06
7.13911e-07
-9.44347e-07
7.16808e-07
2.2839e-07
1.20504e-06
-2.58913e-07
9.74228e-07
9.80104e-07
-9.42617e-07
-2.64246e-07
2.26759e-07
-2.60028e-07
-9.50904e-07
9.79534e-07
2.31398e-07
-9.56224e-07
9.82857e-07
-2.60623e-07
2.33989e-07
2.34331e-07
-9.50733e-07
9.8118e-07
-2.64779e-07
1.21177e-06
7.17592e-07
-9.49256e-07
7.21687e-07
2.30054e-07
1.2155e-06
-2.63574e-07
9.8096e-07
9.69687e-07
2.33935e-07
-9.40525e-07
-2.63098e-07
-2.60613e-07
2.34549e-07
-9.46002e-07
9.72066e-07
-9.47722e-07
2.3526e-07
9.78508e-07
-2.66046e-07
2.37575e-07
-9.45678e-07
9.74721e-07
-2.66617e-07
1.2059e-06
7.08523e-07
-9.44736e-07
7.09908e-07
2.35379e-07
1.21125e-06
-2.6515e-07
9.73433e-07
7.09216e-07
1.19889e-06
-9.39746e-07
-9.39462e-07
1.20205e-06
7.10974e-07
1.19994e-06
7.07448e-07
-9.40683e-07
-9.69956e-07
1.20344e-06
7.12296e-07
-9.45778e-07
-2.61379e-07
-2.30517e-07
1.20111e-06
-2.31541e-07
-2.59876e-07
-9.40597e-07
7.08524e-07
7.11437e-07
2.28048e-07
2.32173e-07
7.13821e-07
-1.20548e-06
7.17672e-07
2.29129e-07
2.62457e-07
7.13444e-07
2.26146e-07
9.71817e-07
9.40731e-07
9.45077e-07
9.75953e-07
2.27236e-07
7.1555e-07
-2.30616e-07
1.20624e-06
-2.64646e-07
1.20411e-06
-2.62723e-07
-2.60538e-07
1.20738e-06
-7.12251e-07
1.21288e-06
-2.65372e-07
-9.41313e-07
9.75032e-07
-2.64336e-07
9.71317e-07
-9.46159e-07
1.20894e-06
9.77063e-07
-7.14757e-07
9.76908e-07
9.48599e-07
9.72604e-07
-1.21041e-06
9.77173e-07
-2.33692e-07
2.61499e-07
2.6049e-07
-2.33357e-07
9.75731e-07
1.30023e-07
1.04705e-06
-9.99335e-08
-1.07714e-06
-1.05383e-07
1.30452e-07
1.00595e-06
-1.03102e-06
1.03878e-06
1.58475e-07
-1.28549e-07
-1.06871e-06
-1.06143e-06
1.3431e-07
1.05849e-06
-1.31375e-07
-9.60839e-07
1.7182e-08
1.07368e-06
2.72071e-08
-1.09343e-06
-9.1777e-07
-1.26477e-07
1.4822e-07
1.49152e-07
-1.08735e-07
9.73808e-07
-1.01422e-06
-1.17287e-07
1.04784e-06
-1.0599e-06
1.03702e-06
-1.15011e-07
-1.07988e-06
-1.06521e-06
-1.19238e-07
1.06403e-06
-9.56707e-07
2.43926e-08
1.08147e-06
2.38371e-08
-1.09783e-06
-9.23381e-07
-1.17435e-07
1.6072e-07
9.7125e-07
-1.24014e-07
-1.00796e-06
-1.23031e-07
9.86921e-07
-1.02806e-06
9.34072e-07
-1.1785e-07
-9.67493e-07
-9.71483e-07
9.53873e-07
-1.17459e-07
-8.44673e-07
3.08229e-08
9.7457e-07
3.48786e-08
-1.00258e-06
-8.23309e-07
-1.17351e-07
1.0863e-07
-9.95602e-07
1.01536e-06
-1.28386e-07
-1.15159e-07
-1.01261e-06
1.02288e-06
9.65701e-07
-9.66712e-07
-1.21729e-07
-9.55304e-07
9.71958e-07
-1.23134e-07
-8.82131e-07
-1.47217e-08
1.00548e-06
-3.72237e-09
-9.93567e-07
-8.45998e-07
-1.24028e-07
1.65987e-08
-9.43353e-07
1.05721e-06
1.04664e-06
-9.14881e-07
2.67179e-08
-9.29353e-07
-6.55456e-09
1.07022e-06
-1.23867e-07
-9.43829e-07
-4.05287e-09
1.07175e-06
-1.29514e-07
1.07265e-06
-9.2654e-07
1.06534e-06
-1.28994e-07
1.07778e-06
6.99753e-09
2.19017e-08
-1.07399e-06
-1.08312e-06
2.00542e-08
9.32331e-07
4.02961e-08
-1.08764e-06
1.26988e-07
3.26287e-08
-1.0745e-06
1.43704e-07
-1.04834e-06
-1.05685e-06
1.55535e-07
-1.07689e-06
3.10134e-08
1.00678e-06
-8.59138e-07
-1.20928e-07
-8.75892e-07
-1.26265e-07
-1.24731e-07
-8.91929e-07
-9.57541e-09
-8.36679e-07
-1.20459e-07
9.9451e-07
1.34357e-07
-1.22084e-07
1.25616e-07
9.92682e-07
-8.679e-07
1.4474e-07
-1.3573e-08
-1.01021e-06
8.74862e-07
9.98559e-07
1.20751e-07
1.17087e-07
1.02663e-06
9.43424e-07
4.86238e-07
-9.6008e-07
-4.69582e-07
-9.60729e-07
9.42293e-07
4.89715e-07
-4.71279e-07
4.87244e-07
9.42311e-07
-9.60082e-07
-4.69474e-07
-4.70028e-07
9.42988e-07
4.8909e-07
-9.6205e-07
4.72649e-07
-1.73111e-08
4.88086e-07
-1.75043e-08
-4.70576e-07
4.72944e-07
-9.60283e-07
9.42684e-07
9.43336e-07
-9.62799e-07
4.93671e-07
-4.74208e-07
-9.66199e-07
4.98531e-07
-4.78025e-07
4.98257e-07
-9.63905e-07
-4.74668e-07
-4.75843e-07
-9.66301e-07
4.96102e-07
4.67807e-07
-2.05996e-08
4.96128e-07
-2.11684e-08
-4.77224e-07
4.67259e-07
-9.63701e-07
9.40926e-07
4.88675e-07
-9.60073e-07
-4.69528e-07
-9.61603e-07
4.95893e-07
-4.71414e-07
4.9042e-07
-9.59874e-07
-4.69595e-07
-4.69928e-07
4.93344e-07
-9.61772e-07
4.68804e-07
-2.04862e-08
4.92608e-07
-2.194e-08
-4.70859e-07
4.69943e-07
-9.60357e-07
9.42924e-07
-4.69725e-07
4.92892e-07
-9.66092e-07
-9.68923e-07
-4.7317e-07
4.96091e-07
4.95166e-07
-4.69535e-07
-9.66156e-07
-4.69553e-07
4.97667e-07
-9.73793e-07
4.72989e-07
-2.49779e-08
4.94913e-07
-2.35449e-08
-4.72389e-07
4.73115e-07
-9.67646e-07
-1.93983e-08
4.69622e-07
4.92068e-07
4.90099e-07
4.70829e-07
-1.86171e-08
4.7233e-07
-2.05508e-08
4.91208e-07
-9.4393e-07
4.71075e-07
-2.14782e-08
4.94333e-07
-9.61614e-07
4.72377e-07
4.69838e-07
4.71169e-07
-9.63665e-07
4.92112e-07
-2.01651e-08
-1.96978e-08
-4.73479e-07
-4.74205e-07
-2.10216e-08
-4.66785e-07
-2.31367e-08
-4.73984e-07
9.60869e-07
-1.92868e-08
-4.70753e-07
9.42496e-07
-4.92356e-07
-4.9541e-07
9.39862e-07
-4.71349e-07
-2.23332e-08
4.70003e-07
4.71724e-07
-9.60345e-07
4.72181e-07
-9.62456e-07
-9.65398e-07
4.7075e-07
2.32214e-08
4.70169e-07
-9.62925e-07
4.91188e-07
9.40783e-07
-9.61968e-07
9.43203e-07
4.94584e-07
4.69421e-07
9.41112e-07
2.28296e-08
-4.9605e-07
-4.6699e-07
4.7166e-07
9.6206e-07
9.6391e-07
4.72737e-07
1.7928e-06
-3.65428e-07
-9.41132e-07
-4.87295e-07
1.79582e-06
-3.66435e-07
-9.42091e-07
-9.40902e-07
1.79689e-06
-3.66269e-07
-3.64711e-07
1.79609e-06
-9.4229e-07
1.42816e-06
1.30617e-06
-9.41536e-07
1.30697e-06
-3.6611e-07
1.42955e-06
1.79562e-06
1.79983e-06
-4.8728e-07
-3.68022e-07
-9.44532e-07
-4.86629e-07
1.80403e-06
-3.69916e-07
-9.47484e-07
-9.46008e-07
-4.88933e-07
1.80477e-06
-3.69828e-07
-3.67815e-07
-4.89362e-07
1.80584e-06
-9.48662e-07
1.43301e-06
1.31402e-06
-9.47188e-07
1.31548e-06
-3.69107e-07
1.43504e-06
-4.88843e-07
1.80452e-06
1.8025e-06
-9.40821e-07
-3.68007e-07
-4.91744e-07
-9.43776e-07
1.80557e-06
-3.70045e-07
-9.41603e-07
1.80986e-06
-3.69724e-07
-3.67854e-07
-9.44224e-07
1.80818e-06
1.43424e-06
1.30961e-06
-9.4135e-07
1.31213e-06
-3.69634e-07
1.43788e-06
1.80841e-06
1.80245e-06
-3.63206e-07
-9.4635e-07
-4.92913e-07
-3.65538e-07
1.8093e-06
-9.50848e-07
-9.4888e-07
-3.64665e-07
1.80964e-06
-3.61471e-07
1.81363e-06
-9.54495e-07
1.44177e-06
1.31156e-06
-9.50884e-07
1.31366e-06
-3.64798e-07
1.445e-06
1.80978e-06
1.30937e-06
1.43038e-06
-9.43924e-07
-9.41287e-07
1.43108e-06
1.3071e-06
1.43305e-06
1.30759e-06
-9.4455e-07
-1.80072e-06
1.43639e-06
1.31246e-06
-9.48129e-07
-4.89e-07
3.66074e-07
1.43229e-06
3.65335e-07
-4.89453e-07
-9.45192e-07
1.30893e-06
1.31058e-06
-3.67482e-07
-3.6739e-07
1.31442e-06
-1.433e-06
1.31323e-06
-3.69162e-07
4.89942e-07
1.30873e-06
-3.6759e-07
1.80008e-06
9.42789e-07
9.43852e-07
1.80062e-06
-3.67885e-07
1.31147e-06
3.66284e-07
1.43288e-06
1.43559e-06
-4.92076e-07
1.439e-06
-1.30977e-06
1.43944e-06
-9.43337e-07
1.80173e-06
1.80119e-06
-9.44314e-07
1.43627e-06
1.80078e-06
-1.31211e-06
1.80732e-06
9.47276e-07
1.80614e-06
-1.43537e-06
1.80482e-06
3.67613e-07
4.91821e-07
4.9178e-07
3.67923e-07
1.80698e-06
-3.71801e-08
-1.15298e-06
-1.22287e-07
1.31245e-06
-1.0798e-06
-6.69159e-08
-1.31898e-07
1.27861e-06
-1.31267e-07
-6.75246e-08
-1.05655e-06
1.25534e-06
1.25534e-06
-2.54141e-08
-1.08393e-06
-1.45994e-07
1.22397e-06
-1.13156e-06
-1.29596e-07
-1.11914e-06
1.26331e-06
1.20087e-06
-1.07709e-06
-4.95405e-08
-7.94129e-08
-9.96907e-07
-1.32182e-07
1.2085e-06
-9.43458e-07
-7.87985e-08
-1.26089e-07
1.14835e-06
-1.27622e-07
-9.35472e-07
-7.65644e-08
1.13966e-06
1.14296e-06
-9.52349e-07
-6.00708e-08
-1.30536e-07
1.07962e-06
-1.02847e-06
-1.30555e-07
-1.0177e-06
1.15386e-06
1.07736e-06
-9.62881e-07
-6.79589e-08
-9.00876e-08
-1.26461e-07
-9.80383e-07
1.19693e-06
-9.37505e-07
-1.24525e-07
-8.23413e-08
1.14437e-06
-1.13999e-07
-9.46557e-07
-8.95867e-08
1.15014e-06
1.14251e-06
-1.24281e-07
-9.50624e-07
-6.76089e-08
1.06022e-06
-1.02755e-06
-1.22753e-07
-1.03475e-06
1.15746e-06
1.07073e-06
-9.55766e-07
-7.80178e-08
-1.8985e-08
1.15743e-06
-9.95345e-07
-1.43101e-07
-9.56729e-07
1.13033e-06
-3.44914e-08
-1.3911e-07
-1.29982e-07
1.12373e-06
-9.5022e-07
-4.35284e-08
1.09979e-06
-9.40832e-07
-2.16385e-08
-1.37318e-07
1.09958e-06
-9.79794e-07
-1.38776e-07
-9.81982e-07
1.12484e-06
1.08444e-06
-9.64442e-07
-2.75267e-08
-1.05908e-06
1.14042e-06
-1.48257e-07
-1.34069e-07
1.12033e-06
-1.05378e-06
1.15905e-06
-1.04083e-06
-1.43631e-07
4.13313e-08
1.09918e-06
-1.00605e-06
-1.34466e-07
-9.97339e-07
-1.18717e-06
1.12544e-06
-1.18095e-06
-1.00599e-06
-1.39851e-07
-1.02789e-06
-1.06023e-06
1.20374e-06
1.1483e-06
-1.00146e-06
-1.06823e-06
-1.01664e-06
1.14939e-06
9.81533e-07
-1.06557e-06
1.20437e-06
-5.70738e-08
1.22284e-07
1.28343e-07
-7.81307e-08
1.18195e-06
-1.01801e-06
-1.17832e-06
1.12289e-06
-9.98359e-07
1.12379e-06
-1.00719e-06
-9.56527e-07
1.08081e-06
1.00244e-06
1.08349e-06
-9.62201e-07
-1.34773e-07
-5.24466e-08
-9.91098e-07
-3.88756e-08
-1.29435e-07
1.07943e-06
-6.91398e-08
1.01016e-06
-5.09518e-08
1.2981e-07
-5.04643e-08
-1.06875e-06
-7.24173e-08
-1.14206e-06
9.50166e-07
9.47532e-07
-1.13659e-06
-5.92522e-08
1.4252e-06
8.09808e-07
-5.21754e-07
-1.68833e-06
1.3839e-06
7.91043e-07
-4.86612e-07
-5.12333e-07
1.35805e-06
7.65241e-07
7.82371e-07
1.38609e-06
-5.18327e-07
2.22784e-06
-2.68342e-07
-5.34299e-07
-2.66339e-07
8.05854e-07
2.1612e-06
1.38253e-06
1.36808e-06
-1.64841e-06
7.55027e-07
-4.74691e-07
-1.66124e-06
7.82909e-07
-5.18664e-07
1.397e-06
-5.14435e-07
-1.6325e-06
7.75074e-07
1.37186e-06
7.85661e-07
-1.63669e-06
-5.08986e-07
1.36001e-06
2.16002e-06
-2.7572e-07
-5.16219e-07
-2.76555e-07
7.75329e-07
2.16514e-06
-1.6552e-06
1.37415e-06
1.29099e-06
-4.88158e-07
7.31242e-07
-1.54307e-06
-4.8915e-07
7.35902e-07
1.29632e-06
-4.71385e-07
7.11798e-07
1.24494e-06
7.16111e-07
-4.71214e-07
1.24646e-06
2.02927e-06
-2.46073e-07
-4.92207e-07
-2.45649e-07
7.31843e-07
1.96184e-06
1.2448e-06
1.3068e-06
7.55232e-07
-5.01515e-07
-1.55214e-06
7.47948e-07
-4.86443e-07
1.29064e-06
-4.71531e-07
7.19659e-07
1.25141e-06
7.24133e-07
-4.72934e-07
1.2548e-06
2.04974e-06
-2.54431e-07
-4.8851e-07
-2.5327e-07
7.50865e-07
1.98044e-06
1.25564e-06
-2.69739e-07
2.17206e-06
-5.18427e-07
-5.14716e-07
2.12713e-06
-2.54372e-07
2.16914e-06
-2.6353e-07
-5.19525e-07
-1.37982e-06
2.1582e-06
-2.68042e-07
-5.10333e-07
-1.65224e-06
-7.85377e-07
2.16787e-06
-7.84422e-07
-1.64753e-06
-5.17666e-07
-2.62815e-07
-2.70159e-07
7.93808e-07
7.85137e-07
-2.63625e-07
-2.13814e-06
-2.57503e-07
7.63147e-07
1.61576e-06
-2.54127e-07
7.65497e-07
1.38653e-06
5.1118e-07
5.16468e-07
1.36256e-06
7.64385e-07
-2.59119e-07
-7.45777e-07
2.05059e-06
2.07802e-06
-1.57604e-06
2.05594e-06
2.50082e-07
1.97025e-06
-4.95499e-07
1.30572e-06
1.3197e-06
-4.9453e-07
2.05033e-06
1.3083e-06
2.49592e-07
1.24945e-06
4.86762e-07
1.30555e-06
-2.04912e-06
1.30247e-06
-7.48165e-07
1.56426e-06
1.55176e-06
-7.43981e-07
1.29454e-06
-4.0585e-08
-2.46716e-07
-2.46462e-07
-4.08415e-08
9.60291e-07
-4.07518e-08
-2.46761e-07
-6.73532e-07
-4.22348e-08
-2.46283e-07
-7.13548e-07
-2.8732e-07
-2.87231e-07
-7.14248e-07
-2.46604e-07
-4.11879e-08
-4.11445e-08
-2.4615e-07
-2.46075e-07
-4.10207e-08
9.60345e-07
-2.46617e-07
-4.09502e-08
-6.73283e-07
-2.44819e-07
-4.36694e-08
-7.14065e-07
-2.87437e-07
-2.87362e-07
-7.1514e-07
-2.4558e-07
-4.21565e-08
-4.0858e-08
9.60477e-07
-2.4684e-07
-2.46886e-07
9.60453e-07
-4.07893e-08
9.60636e-07
-4.07762e-08
-2.47081e-07
-6.73081e-07
9.62919e-07
-4.32416e-08
-2.46597e-07
-7.13688e-07
-2.87826e-07
9.60656e-07
-2.87795e-07
-7.14534e-07
-2.46373e-07
-4.16939e-08
-4.44532e-08
-6.74896e-07
-2.46742e-07
-2.45633e-07
-6.74824e-07
-4.5699e-08
9.67474e-07
-6.74718e-07
-4.58525e-08
-2.46903e-07
-6.78044e-07
-4.7248e-08
-2.485e-07
-7.2012e-07
-2.91979e-07
-2.91102e-07
-6.7465e-07
-7.2271e-07
-2.47313e-07
-4.63393e-08
-2.87391e-07
-7.13795e-07
9.60583e-07
-7.1373e-07
-2.87604e-07
-7.16032e-07
-2.88659e-07
4.29761e-08
-7.16827e-07
-2.89074e-07
-2.46184e-07
6.73539e-07
-7.14747e-07
6.73211e-07
-2.45452e-07
-2.88273e-07
-2.87166e-07
-6.73257e-07
-2.88389e-07
7.13758e-07
-2.87596e-07
2.4663e-07
-2.87581e-07
-4.16196e-08
-9.60294e-07
-9.60456e-07
-4.08855e-08
-2.87584e-07
6.73211e-07
-7.14416e-07
-2.46399e-07
-7.17154e-07
-2.46402e-07
-2.45529e-07
-7.1837e-07
2.89588e-07
-7.18031e-07
-2.46276e-07
9.62187e-07
-4.26231e-08
-2.46353e-07
-4.32401e-08
9.63419e-07
-7.16454e-07
-4.15201e-08
2.89216e-07
-4.43275e-08
-9.62352e-07
-4.44066e-08
7.14749e-07
-4.18911e-08
6.73174e-07
2.45962e-07
2.45936e-07
6.73127e-07
-4.3289e-08
1.1213e-06
-7.84095e-07
4.72599e-07
4.61809e-07
1.0464e-06
-7.42964e-07
-7.71325e-07
1.08592e-06
4.76451e-07
-8.08089e-07
1.06799e-06
-7.45995e-07
4.86093e-07
3.08967e-07
1.58916e-06
-7.76823e-07
1.57663e-06
2.90572e-07
4.90498e-07
1.09588e-06
9.85839e-07
4.40084e-07
-6.9468e-07
4.25625e-07
9.44337e-07
-6.58163e-07
-6.76032e-07
4.41983e-07
9.69951e-07
-7.30909e-07
4.36391e-07
9.61218e-07
-6.66699e-07
2.45717e-07
1.41311e-06
-6.72983e-07
1.40318e-06
2.39723e-07
4.42475e-07
9.66875e-07
1.03891e-06
-7.53316e-07
4.69437e-07
4.69725e-07
-7.08099e-07
1.01345e-06
-7.36664e-07
1.0238e-06
4.95776e-07
-7.82514e-07
-7.35279e-07
1.0212e-06
4.96588e-07
2.58785e-07
1.53416e-06
-7.5404e-07
1.50384e-06
2.48046e-07
5.03594e-07
1.01522e-06
1.01168e-06
-7.73813e-07
-7.08175e-07
4.70309e-07
4.4676e-07
-7.42543e-07
9.76773e-07
-6.80989e-07
-7.09731e-07
-7.88802e-07
1.02155e-06
4.76986e-07
-7.53462e-07
9.86322e-07
-6.87245e-07
4.54385e-07
2.52178e-07
1.46565e-06
-7.06151e-07
1.45543e-06
-7.56491e-07
2.45574e-07
4.66616e-07
9.91272e-07
1.48574e-06
2.75525e-07
-7.14871e-07
-7.74783e-07
2.89574e-07
1.57112e-06
2.86699e-07
1.5307e-06
-7.49407e-07
-1.00615e-06
2.54667e-07
1.44094e-06
-6.89456e-07
4.6532e-07
7.48342e-07
2.7208e-07
7.86413e-07
4.53378e-07
-7.11188e-07
1.52649e-06
1.48111e-06
-7.46497e-07
1.43756e-06
-2.61009e-07
1.46614e-06
-4.6303e-07
1.54641e-06
1.02508e-06
7.28107e-07
7.21056e-07
1.02946e-06
1.48951e-06
8.02365e-07
2.67504e-07
5.01253e-07
2.67368e-07
4.89516e-07
4.51968e-07
2.46432e-07
-1.54056e-06
2.53983e-07
4.97774e-07
-7.48992e-07
1.06017e-06
4.91185e-07
1.04487e-06
-7.40343e-07
2.5995e-07
1.0606e-06
-1.50893e-06
1.02764e-06
6.9663e-07
9.87357e-07
-2.50317e-07
1.00836e-06
7.82202e-07
-4.75643e-07
-4.66782e-07
7.63549e-07
9.93397e-07
7.27232e-07
9.71831e-07
1.10795e-07
9.7268e-07
7.22248e-07
1.10637e-07
-1.81183e-06
7.26242e-07
9.74796e-07
1.10795e-07
1.12096e-07
7.23828e-07
9.72255e-07
8.37402e-07
1.69824e-06
1.69869e-06
1.11395e-07
8.37938e-07
9.72398e-07
7.24791e-07
7.1988e-07
9.74122e-07
1.10767e-07
9.75522e-07
1.10658e-07
7.17849e-07
-1.80771e-06
9.76388e-07
1.10268e-07
7.21054e-07
1.12828e-07
9.74645e-07
7.18366e-07
8.30918e-07
1.69348e-06
1.69637e-06
1.10065e-07
8.32106e-07
9.74204e-07
7.2077e-07
7.25022e-07
-1.81196e-06
9.76634e-07
1.10308e-07
9.77296e-07
-1.81096e-06
1.09812e-07
7.23857e-07
-1.81225e-06
9.77531e-07
1.09784e-07
7.24938e-07
1.106e-07
-1.81305e-06
9.77785e-07
7.24661e-07
8.34862e-07
1.70219e-06
-1.81203e-06
1.70198e-06
1.10179e-07
8.35246e-07
9.77544e-07
7.24973e-07
7.21989e-07
1.15046e-07
9.72601e-07
9.74628e-07
1.1565e-07
7.1902e-07
-1.81463e-06
1.13688e-07
9.77044e-07
7.23901e-07
1.18393e-07
9.74607e-07
7.20632e-07
8.37926e-07
1.69384e-06
1.69764e-06
1.14912e-07
8.39102e-07
9.73135e-07
7.2211e-07
1.69373e-06
8.33333e-07
-1.80984e-06
8.35921e-07
1.70016e-06
8.36475e-07
1.69468e-06
-7.20589e-07
8.3373e-07
1.693e-06
9.72439e-07
-1.13015e-07
8.3431e-07
-1.12608e-07
9.73375e-07
1.69724e-06
1.6966e-06
1.10853e-07
1.12189e-07
1.69619e-06
-8.33459e-07
1.69986e-06
1.09984e-07
-9.75165e-07
1.70025e-06
1.10834e-07
7.22082e-07
1.80883e-06
1.80847e-06
7.22858e-07
1.10807e-07
1.69787e-06
-1.11463e-07
8.36204e-07
9.75418e-07
8.37126e-07
9.72596e-07
9.73607e-07
8.35039e-07
-1.69988e-06
8.36874e-07
9.76693e-07
-1.81154e-06
7.24682e-07
9.75397e-07
7.22827e-07
-1.81135e-06
8.3615e-07
7.24493e-07
-1.70017e-06
7.23996e-07
1.8098e-06
7.2142e-07
-8.34418e-07
7.23317e-07
-1.11525e-07
-9.76012e-07
-9.75543e-07
-1.12556e-07
7.21705e-07
1.13734e-06
-2.05846e-06
1.08558e-07
8.12561e-07
-1.97296e-06
1.10879e-06
7.81974e-08
7.85976e-07
7.84483e-07
1.16456e-06
-1.98593e-06
3.68849e-08
5.66334e-08
1.19769e-06
-2.06059e-06
8.06271e-07
1.2016e-06
-8.65903e-07
8.01643e-07
-8.58174e-07
8.68166e-08
1.23163e-06
-2.0409e-06
1.15794e-06
1.09952e-06
-1.93877e-06
6.8052e-08
7.71202e-07
-1.89781e-06
6.34006e-08
1.08524e-06
7.49171e-07
7.40335e-07
-1.87999e-06
5.67217e-08
1.08293e-06
5.47891e-08
-1.92351e-06
1.11497e-06
7.53753e-07
1.15308e-06
-8.20238e-07
7.66684e-07
-8.04799e-07
6.00609e-08
1.15608e-06
-1.92153e-06
1.09161e-06
1.13262e-06
7.45358e-07
-1.90407e-06
2.60994e-08
-1.8613e-06
7.32863e-07
3.40259e-08
1.09441e-06
7.13586e-07
-1.81818e-06
1.22693e-08
1.09232e-06
1.1264e-08
7.16389e-07
-1.84809e-06
1.12044e-06
1.14934e-06
-7.52173e-07
7.35448e-07
-7.46591e-07
3.46317e-08
1.13006e-06
-1.87097e-06
1.09706e-06
1.18005e-06
3.78944e-08
-1.97241e-06
7.54472e-07
-1.92059e-06
3.89207e-08
1.13938e-06
7.42292e-07
7.17545e-07
1.34634e-08
-1.86317e-06
1.13217e-06
1.03628e-08
-1.89587e-06
1.17559e-06
7.09921e-07
1.19826e-06
-7.55207e-07
7.36994e-07
-7.54797e-07
3.24653e-08
1.1676e-06
-1.91245e-06
1.13035e-06
-8.49942e-07
1.17323e-06
7.85505e-07
7.70343e-07
1.19159e-06
-7.97371e-07
1.23507e-06
-8.18431e-07
7.81043e-07
-1.15122e-06
1.18564e-06
-7.95856e-07
7.61433e-07
-1.98368e-06
-5.78717e-08
1.19161e-06
-5.53939e-08
-1.99201e-06
7.82926e-07
-8.12334e-07
-8.3656e-07
7.10167e-08
4.82083e-08
-7.86074e-07
-1.15352e-06
-7.83108e-07
5.66352e-08
1.9335e-06
-7.92263e-07
5.03495e-08
1.12019e-06
-7.65139e-07
-7.53131e-07
1.1153e-06
5.30675e-08
-7.9135e-07
-2.63449e-08
1.17829e-06
-1.94932e-06
1.21208e-06
-1.99262e-06
-1.91776e-06
1.16082e-06
7.49575e-07
1.14282e-06
-1.87893e-06
7.50207e-07
1.14871e-06
-1.92526e-06
1.14996e-06
7.35339e-07
1.16295e-06
1.13138e-06
7.44767e-07
1.11444e-06
-7.314e-07
1.10615e-06
-1.14078e-06
1.09054e-06
-3.09913e-08
1.89782e-06
1.87672e-06
-3.43062e-08
1.11102e-06
2.90693e-08
7.66064e-08
-1.25866e-06
-1.18875e-06
1.1722e-09
1.31029e-07
1.05941e-06
3.30264e-08
1.0814e-07
-1.20057e-06
9.6707e-08
4.37012e-08
-1.22434e-06
1.26046e-07
-1.17406e-06
-1.17048e-06
1.0778e-07
1.33515e-07
-1.21087e-06
2.24397e-08
-2.62088e-08
-1.10594e-06
1.51765e-07
-1.05753e-06
1.40964e-07
-2.99958e-08
9.56989e-07
-1.07049e-06
1.22352e-07
-8.8514e-09
1.24418e-07
-1.0693e-06
-5.74111e-09
1.10863e-07
-1.09284e-06
-1.08356e-06
1.36899e-07
1.12137e-07
-1.08056e-06
-1.44353e-08
3.2153e-08
9.92091e-07
9.78687e-08
-1.12211e-06
-1.07241e-06
9.59654e-07
1.00536e-07
1.22243e-08
9.55513e-07
8.39877e-08
2.64246e-08
-1.06593e-06
8.56453e-08
9.51554e-07
2.85744e-08
-1.06577e-06
1.16867e-07
-1.04993e-06
9.65219e-07
-1.05027e-06
9.47226e-08
1.14597e-07
-1.07888e-06
1.98388e-08
4.81004e-08
8.85276e-08
-1.13197e-06
-1.07564e-06
1.06978e-07
1.84415e-08
9.48105e-07
8.90505e-08
3.1703e-08
-1.06886e-06
8.91016e-08
4.01921e-08
-1.07013e-06
1.2625e-07
-1.04259e-06
-1.04568e-06
9.62935e-08
1.23108e-07
-1.0766e-06
2.55305e-08
-1.12475e-06
1.27558e-07
1.00137e-06
1.30461e-07
-1.09881e-06
1.29646e-07
-1.09314e-06
-7.78782e-09
1.18474e-07
-1.07289e-06
-1.12841e-06
-1.24013e-07
1.27681e-07
-1.04602e-07
-1.1229e-06
-1.09785e-06
-1.11905e-06
1.40665e-07
1.17921e-07
-1.06875e-06
-1.13772e-07
-1.07082e-06
1.14105e-07
1.1156e-06
-1.09896e-06
1.13814e-07
-2.97634e-09
-9.88389e-07
-9.65613e-07
4.70633e-09
1.2251e-07
-1.07468e-06
-9.70426e-08
1.29069e-07
-1.13083e-06
1.31092e-07
-1.1357e-06
-1.08483e-06
1.18915e-07
1.04752e-06
1.19689e-07
-1.07816e-06
9.92338e-07
3.63296e-08
-1.12571e-06
2.55756e-08
9.62956e-07
1.20896e-07
2.22023e-08
1.04979e-06
2.14502e-08
-9.56549e-07
6.71625e-09
-1.14217e-07
3.04908e-09
-9.65896e-08
1.08401e-06
1.0741e-06
-1.04885e-07
1.2666e-08
-9.84654e-07
1.08829e-06
8.79226e-07
1.08314e-06
-9.78123e-07
8.74513e-07
-9.76422e-07
-9.82699e-07
1.08323e-06
8.75889e-07
8.78105e-07
-9.78238e-07
1.08131e-06
-1.05248e-07
1.01554e-07
1.02196e-07
8.757e-07
-1.05317e-07
1.08498e-06
-9.79544e-07
-9.74193e-07
1.07974e-06
8.70877e-07
1.07715e-06
8.68717e-07
-9.71706e-07
1.0777e-06
8.68802e-07
8.69294e-07
1.07423e-06
-1.03666e-07
1.03701e-07
1.0389e-07
8.69591e-07
-1.04582e-07
1.07758e-06
-9.79178e-07
-9.71252e-07
1.07907e-06
8.71357e-07
1.07697e-06
-9.69989e-07
8.6965e-07
-9.68951e-07
1.07639e-06
8.70092e-07
8.71608e-07
-9.71146e-07
1.07732e-06
-1.07432e-07
9.91797e-08
-9.70926e-07
9.88391e-08
8.70702e-07
-1.07432e-07
1.07822e-06
-9.74692e-07
8.76635e-07
1.07656e-06
1.07249e-06
8.72173e-07
-9.73013e-07
8.7401e-07
1.07605e-06
8.77031e-07
1.0723e-06
-9.99525e-08
9.86933e-08
9.99005e-08
8.72641e-07
-1.00022e-07
1.07575e-06
1.03035e-07
-1.03984e-07
-9.75602e-07
-1.07332e-07
1.00235e-07
-1.02107e-07
1.00778e-07
9.74897e-07
-1.03268e-07
1.00975e-07
1.08121e-06
-8.73205e-07
-1.04974e-07
-8.73932e-07
1.07742e-06
1.01383e-07
1.03916e-07
8.7184e-07
8.69717e-07
1.01249e-07
1.0639e-07
1.00795e-07
8.70515e-07
-1.08041e-06
1.00011e-07
8.73065e-07
-9.74928e-07
9.7387e-07
9.72366e-07
-9.77764e-07
8.71227e-07
1.00991e-07
-8.74476e-07
-1.06823e-07
1.08153e-06
-1.02376e-07
1.07979e-06
1.07631e-06
-1.03158e-07
-9.93724e-08
-1.04792e-07
1.07817e-06
-9.74669e-07
-9.78977e-07
1.07917e-06
-9.75661e-07
-9.73286e-07
-1.05063e-07
-9.78064e-07
-9.92452e-08
9.70687e-07
1.06224e-07
-8.71467e-07
-1.07752e-06
-1.07578e-06
-8.70308e-07
5.26089e-07
4.66496e-07
5.07312e-07
-9.88648e-07
5.02036e-07
3.35533e-09
5.42343e-07
4.97132e-07
1.11042e-06
9.63628e-07
5.7948e-07
5.54459e-07
5.24511e-07
4.81441e-07
5.13191e-07
5.33863e-07
-1.043e-06
5.21227e-07
5.21776e-07
3.6753e-09
5.25905e-07
5.28914e-07
5.16936e-07
1.08126e-06
1.03013e-06
5.51295e-07
5.33636e-07
5.38419e-07
4.98192e-07
-9.72882e-07
5.3118e-07
-1.07077e-06
5.39593e-07
-1.11034e-06
5.91673e-07
3.75549e-08
-1.10012e-06
5.53578e-07
5.70984e-07
1.06662e-06
-1.13941e-06
1.10216e-06
5.87957e-07
5.79786e-07
5.12387e-07
8.97619e-09
4.93795e-07
1.38548e-08
5.07708e-07
-1.0152e-06
1.43067e-08
5.14451e-07
1.11335e-08
4.8789e-07
5.20376e-07
9.97493e-07
1.00207e-06
1.21037e-08
5.20117e-07
5.06984e-07
1.07069e-06
4.93831e-07
-1.09048e-06
4.97295e-07
1.09522e-06
5.45517e-07
1.06857e-06
-5.46693e-07
5.50194e-07
1.06672e-06
5.38321e-07
-5.7013e-09
5.38068e-07
2.29914e-09
5.25384e-07
1.0732e-06
9.75272e-07
1.35849e-08
1.06251e-06
-5.31144e-07
1.05237e-06
-4.65115e-07
9.6241e-07
5.42633e-07
9.70706e-07
1.08985e-06
5.05592e-07
1.0643e-06
-1.63823e-08
5.93178e-07
5.58024e-07
5.23572e-07
5.56999e-07
-1.0587e-06
5.62671e-07
-1.09769e-06
5.63639e-07
5.33536e-07
-1.06921e-06
5.74153e-07
5.82706e-07
-1.07681e-06
5.39361e-07
1.0829e-06
5.36611e-07
-5.55048e-07
5.36646e-07
-3.01901e-08
-5.26516e-07
-5.32846e-07
-1.72622e-08
5.32795e-07
-7.56825e-07
-7.46522e-07
1.50335e-06
1.49944e-06
-7.54801e-07
-7.44643e-07
-7.29796e-07
-7.56918e-07
1.48671e-06
-1.16449e-08
-7.30798e-07
-7.14652e-07
1.4571e-06
-7.60806e-07
7.54754e-07
-7.50773e-07
7.38638e-07
-7.78441e-07
1.52155e-06
-7.69599e-07
-7.48292e-07
1.48431e-06
-7.36021e-07
1.48015e-06
-7.07388e-07
-7.72757e-07
-7.17319e-07
1.48787e-06
-7.70548e-07
-2.09647e-08
1.46801e-06
-6.97655e-07
-7.49389e-07
-7.62573e-07
7.2881e-07
-7.14529e-07
7.17572e-07
-8.05245e-07
1.51309e-06
-8.04991e-07
-7.74533e-07
-7.22977e-07
1.49751e-06
1.49688e-06
-7.21303e-07
-7.75576e-07
-7.18744e-07
-8.04275e-07
1.52302e-06
-9.63383e-09
-7.06824e-07
-7.77218e-07
1.49368e-06
-7.77414e-07
7.30902e-07
-7.28021e-07
7.19466e-07
-8.06942e-07
1.52821e-06
-8.0622e-07
-6.93478e-07
-1.21069e-08
-6.68934e-07
1.37452e-06
1.37791e-06
-1.80422e-08
-6.70796e-07
-6.89069e-07
-6.72752e-07
-1.24098e-08
-7.10011e-07
1.39517e-06
-1.22419e-08
-6.49776e-07
-6.79894e-07
1.34191e-06
-7.09933e-07
6.75583e-07
-6.59128e-07
6.8861e-07
-2.0636e-08
-7.1086e-07
1.3742e-06
-6.95003e-07
7.48422e-07
-7.58068e-07
-7.45155e-07
-7.3243e-07
-7.58195e-07
7.33707e-07
-7.48538e-07
7.148e-07
-6.97061e-07
7.26064e-07
-7.6156e-07
7.11014e-07
-6.75518e-07
1.51388e-06
1.52179e-08
-7.80674e-07
1.18482e-08
1.46143e-06
-7.2015e-07
7.24742e-07
7.26245e-07
-1.80037e-08
7.24453e-07
7.66479e-07
7.21387e-07
-1.47882e-06
7.2063e-07
-7.7432e-07
7.19891e-07
7.20766e-07
-7.58933e-07
7.28311e-07
9.40576e-09
-7.88189e-07
1.51249e-06
-7.54414e-07
1.45711e-06
1.45893e-06
-7.65962e-07
-7.20276e-07
-7.74613e-07
1.48248e-06
-7.09352e-07
-7.57744e-07
1.4765e-06
-7.39023e-07
-6.99274e-07
-7.78747e-07
-7.90536e-07
-7.20728e-07
-7.60708e-07
7.05438e-07
-7.46947e-07
8.19816e-07
-8.19731e-07
1.37929e-08
-1.53235e-06
-1.48568e-06
1.57768e-08
-7.64467e-07
7.31838e-07
-3.61022e-07
-2.44319e-08
-3.46384e-07
-2.55021e-08
7.33753e-07
-3.57044e-07
-3.51207e-07
-3.52475e-07
7.38134e-07
-3.59229e-07
-2.643e-08
-3.54389e-07
7.35963e-07
-2.89139e-08
-3.5266e-07
3.75521e-07
7.06329e-07
-3.50012e-07
7.08015e-07
-3.57995e-07
3.78736e-07
-2.67963e-08
7.34275e-07
7.35629e-07
-2.42309e-08
-3.56868e-07
-3.5453e-07
-2.198e-08
-3.59604e-07
7.38942e-07
-3.57358e-07
-3.55576e-07
-2.46229e-08
-3.63344e-07
7.43543e-07
-3.58953e-07
-2.45082e-08
7.42357e-07
-3.58895e-07
3.7921e-07
7.14589e-07
-3.58169e-07
7.16714e-07
-3.59484e-07
3.79327e-07
-2.36913e-08
7.40465e-07
7.47276e-07
-3.53819e-07
-3.65368e-07
-2.80884e-08
-2.62283e-08
-3.54296e-07
-3.66832e-07
7.47356e-07
-3.52311e-07
-3.73138e-07
-2.79004e-08
7.53349e-07
-3.6885e-07
-3.58848e-07
-2.77532e-08
7.55451e-07
3.81804e-07
7.21037e-07
-3.55566e-07
7.21655e-07
-3.66079e-07
3.80779e-07
-2.85911e-08
7.50124e-07
7.41997e-07
-3.50468e-07
-3.23186e-08
-3.59211e-07
-2.88645e-08
-3.56494e-07
7.46734e-07
-3.61375e-07
-3.65836e-07
-3.60948e-07
-2.91375e-08
7.55922e-07
-3.51151e-07
-3.381e-08
7.54687e-07
-3.69726e-07
3.94234e-07
7.14657e-07
-3.66894e-07
7.18551e-07
-3.53182e-07
3.96244e-07
-3.27372e-08
7.48958e-07
7.10288e-07
3.77999e-07
-3.54534e-07
-3.55151e-07
3.81162e-07
7.12123e-07
3.84183e-07
7.08985e-07
-3.57205e-07
-7.38378e-07
3.84819e-07
7.14732e-07
-3.61173e-07
-2.54041e-08
3.55199e-07
3.80493e-07
3.5372e-07
-2.74198e-08
-3.55759e-07
7.10484e-07
7.11788e-07
-3.5802e-07
-3.56705e-07
7.17016e-07
-3.80541e-07
7.18455e-07
-3.62537e-07
2.62132e-08
7.13475e-07
-3.58526e-07
7.37602e-07
3.54678e-07
3.57206e-07
7.40361e-07
-3.59469e-07
7.17026e-07
3.58421e-07
3.82535e-07
-2.88333e-08
3.88621e-07
-3.01043e-08
-2.71875e-08
3.85425e-07
-7.18987e-07
3.88035e-07
-2.99967e-08
-3.58066e-07
7.45687e-07
-2.91993e-08
7.41039e-07
-3.6067e-07
3.8737e-07
7.42191e-07
-7.21166e-07
7.50354e-07
3.5849e-07
7.43951e-07
-3.80533e-07
7.44693e-07
3.61101e-07
2.55234e-08
2.73049e-08
3.62016e-07
7.47811e-07
1.36385e-06
8.25421e-07
-9.37528e-07
1.36649e-06
8.17496e-07
8.45652e-07
1.42062e-06
-1.26853e-06
1.39168e-06
8.38066e-07
1.21505e-07
4.25112e-07
8.17237e-07
4.28782e-07
1.2346e-07
1.39789e-06
1.37607e-06
-9.40634e-07
8.15969e-07
-9.41982e-07
1.38066e-06
8.1612e-07
8.39209e-07
-9.7897e-07
1.4304e-06
-1.26851e-06
-9.55882e-07
1.3964e-06
8.27991e-07
1.28397e-07