/*--------------------------------*- C++ -*----------------------------------*\
| =========                 |                                                 |
| \\      /  F ield         | OpenFOAM: The Open Source CFD Toolbox           |
|  \\    /   O peration     | Version:  2506                                  |
|   \\  /    A nd           | Website:  www.openfoam.com                      |
|    \\/     M anipulation  |                                                 |
\*---------------------------------------------------------------------------*/
FoamFile
{
    version     2.0;
    format      ascii;
    arch        "LSB;label=32;scalar=64";
    class       surfaceScalarField;
    location    "1100";
    object      phi;
}
// * * * * * * * * * * * * * * * * * * * * * * * * * * * * * * * * * * * * * //

dimensions      [0 3 -1 0 0 0 0];

oriented        oriented;

internalField   nonuniform List<scalar> 
87200
(
2.58491e-06
5.40773e-06
-3.67877e-06
-4.31389e-06
-4.25013e-06
2.52402e-06
5.42475e-06
-3.69864e-06
5.1021e-06
2.37947e-06
-3.41349e-06
-4.06809e-06
-3.40071e-06
2.47028e-06
5.25352e-06
-4.32311e-06
-9.96401e-07
-1.74316e-06
5.32447e-06
-1.7213e-06
-3.52524e-06
-9.75818e-07
-4.16806e-06
2.40498e-06
2.40416e-06
-4.04924e-06
5.35067e-06
-3.70561e-06
-3.96597e-06
5.4848e-06
2.36838e-06
-3.88721e-06
5.09396e-06
-3.8534e-06
2.24779e-06
-3.48835e-06
-3.52158e-06
-4.12675e-06
5.24827e-06
2.40004e-06
-1.28184e-06
-1.63808e-06
5.32408e-06
-1.61287e-06
-3.63494e-06
-1.19219e-06
-3.96748e-06
2.28889e-06
2.28149e-06
4.90348e-06
-3.25067e-06
-3.93432e-06
-3.83832e-06
4.89965e-06
2.24461e-06
-3.30595e-06
4.81158e-06
2.25932e-06
-3.21231e-06
-3.8586e-06
-3.16174e-06
4.86464e-06
2.29492e-06
-3.99784e-06
-9.58232e-07
-1.63708e-06
4.87681e-06
-1.58807e-06
-3.20848e-06
-9.08501e-07
-3.89033e-06
2.31501e-06
2.46191e-06
-3.2539e-06
5.23169e-06
-4.43971e-06
-4.39706e-06
-3.36778e-06
5.27409e-06
2.49074e-06
5.06539e-06
-3.14284e-06
2.34206e-06
-4.26463e-06
-3.12857e-06
5.2469e-06
2.44296e-06
-4.56131e-06
-7.7932e-07
-2.00115e-06
5.24237e-06
-1.94144e-06
-3.23495e-06
-7.53926e-07
-4.3758e-06
2.37001e-06
-1.6701e-06
-1.14186e-06
5.33597e-06
5.06517e-06
-9.87043e-07
-1.69866e-06
-9.07561e-07
-1.85965e-06
5.23748e-06
-2.48288e-06
-1.02273e-06
-1.77572e-06
5.28131e-06
-4.08454e-06
3.47657e-06
-1.06215e-06
3.38561e-06
-4.30092e-06
5.2946e-06
-1.82287e-06
-1.68489e-06
-3.50623e-06
-3.43034e-06
-1.71913e-06
1.10417e-06
-1.59442e-06
-3.36316e-06
3.97104e-06
-1.6546e-06
-3.30351e-06
2.34005e-06
-5.0871e-06
-5.05778e-06
2.33063e-06
-3.44669e-06
-1.62298e-06
3.2433e-06
-9.53472e-07
-3.98849e-06
-8.74716e-07
-4.23883e-06
-4.18933e-06
-9.54185e-07
1.79146e-06
-8.41869e-07
-4.09243e-06
5.05832e-06
2.38443e-06
-4.19946e-06
2.36074e-06
5.06354e-06
-8.87656e-07
2.2954e-06
1.7104e-06
2.31236e-06
-5.0523e-06
2.37898e-06
1.01536e-06
2.28987e-06
3.23788e-06
3.93432e-06
4.06063e-06
3.3267e-06
2.33502e-06
-6.11666e-06
-2.89611e-06
4.12832e-06
4.88448e-06
4.83252e-06
-5.77275e-06
-2.83546e-06
3.77569e-06
-2.80435e-06
-5.85837e-06
3.93616e-06
4.72656e-06
4.21934e-06
-5.8885e-06
-2.86088e-06
4.53004e-06
-1.96489e-06
-1.37037e-06
-2.7814e-06
-1.03405e-06
3.90168e-06
-1.79747e-06
4.64645e-06
-5.63586e-06
-5.57131e-06
4.86582e-06
-2.88302e-06
3.58851e-06
4.85864e-06
-2.87618e-06
3.50234e-06
-2.728e-06
4.60759e-06
3.47107e-06
3.5204e-06
4.31434e-06
-2.58648e-06
-2.01225e-06
-8.19533e-07
-2.73953e-06
-7.05307e-07
3.55168e-06
-1.89076e-06
4.59163e-06
-5.60591e-06
-2.72145e-06
3.78015e-06
4.54722e-06
4.49636e-06
-2.63333e-06
3.5617e-06
-2.57899e-06
3.62293e-06
4.36378e-06
3.69273e-06
-2.54744e-06
4.10823e-06
-1.86184e-06
-1.09367e-06
-2.65041e-06
-1.01836e-06
3.65288e-06
-1.72712e-06
4.32617e-06
-5.64964e-06
4.24389e-06
-2.78014e-06
4.18588e-06
4.08907e-06
3.74469e-06
-2.55967e-06
-2.57698e-06
3.86429e-06
3.94437e-06
4.10363e-06
-2.65123e-06
3.7945e-06
-1.52404e-06
-1.46712e-06
-2.65848e-06
-1.23345e-06
3.79847e-06
-1.43194e-06
4.06845e-06
-1.00196e-06
-1.99825e-06
-2.77255e-06
-2.76509e-06
-1.87799e-06
-1.21528e-06
-1.73489e-06
-1.40765e-06
-2.74597e-06
5.48344e-06
-1.78185e-06
-1.11925e-06
-2.58234e-06
4.59781e-06
-3.75266e-06
-1.84709e-06
-3.80313e-06
4.37787e-06
-2.64709e-06
-1.16014e-06
-8.50834e-07
3.71841e-06
3.56066e-06
-1.02817e-06
1.91344e-06
-8.71783e-07
3.56594e-06
-4.66438e-06
-9.99993e-07
3.78638e-06
-5.453e-06
2.75507e-06
2.69929e-06
-5.5902e-06
3.68088e-06
-9.77478e-07
-4.00768e-06
-1.73992e-06
4.53232e-06
-1.58391e-06
4.42016e-06
4.33273e-06
-1.70729e-06
1.258e-06
-1.57578e-06
4.18207e-06
-2.73009e-06
-5.61138e-06
4.3338e-06
-5.47414e-06
-2.65706e-06
-1.69632e-06
-5.46136e-06
1.11426e-06
2.54585e-06
1.83086e-06
-3.65099e-06
-4.46078e-06
-4.23305e-06
-3.6074e-06
4.51822e-06
-9.34898e-07
-1.32401e-06
-1.31672e-06
4.64427e-06
-1.03265e-06
-9.42494e-07
4.60513e-06
-1.41803e-06
-2.27795e-06
4.59875e-06
-9.4581e-07
-1.375e-06
2.26219e-06
3.20743e-06
-9.51405e-07
3.26047e-06
2.3102e-06
-1.38073e-06
4.62817e-06
4.79936e-06
-1.23487e-06
-1.22244e-06
-1.07783e-06
5.02158e-06
-1.50079e-06
-1.17132e-06
-1.28974e-06
4.95179e-06
-2.47391e-06
-1.25157e-06
5.00444e-06
-1.27898e-06
2.42874e-06
3.67009e-06
-1.2995e-06
3.72092e-06
2.47385e-06
-1.27768e-06
5.02345e-06
4.78373e-06
-9.4999e-07
-1.58596e-06
-1.53111e-06
-1.01944e-06
4.95058e-06
-9.07774e-07
5.07189e-06
-1.79574e-06
-2.28861e-06
-9.31344e-07
4.97701e-06
-1.75706e-06
2.51908e-06
3.20748e-06
-9.42829e-07
3.27686e-06
2.63577e-06
-1.71691e-06
5.00485e-06
4.72267e-06
-2.32413e-06
-9.52404e-07
-1.44617e-06
-1.37625e-06
-2.44735e-06
4.91811e-06
-1.09455e-06
-9.15124e-07
-2.35307e-06
4.92318e-06
-1.65499e-06
-2.40901e-06
4.91985e-06
-9.67603e-07
-1.54327e-06
2.38263e-06
3.32134e-06
-9.81312e-07
3.36457e-06
-2.3582e-06
2.47674e-06
-1.56442e-06
4.92618e-06
3.38384e-06
2.32894e-06
-1.06854e-06
-9.43848e-07
2.36211e-06
3.18685e-06
2.32791e-06
3.24717e-06
-9.76337e-07
-4.76662e-06
2.38837e-06
3.47844e-06
-1.10022e-06
-1.35694e-06
2.36231e-06
2.37844e-06
2.32737e-06
-1.35774e-06
-1.04658e-06
3.29753e-06
3.40642e-06
-2.39311e-06
3.5299e-06
-2.3946e-06
3.48383e-06
1.40327e-06
3.24872e-06
4.74017e-06
1.04468e-06
1.06937e-06
4.78296e-06
3.45773e-06
2.26219e-06
2.42985e-06
-1.5052e-06
2.37831e-06
-1.45529e-06
-1.41914e-06
2.45022e-06
-3.25281e-06
2.57496e-06
-1.67523e-06
-9.47316e-07
4.74697e-06
-1.53747e-06
4.72852e-06
-9.51181e-07
2.44533e-06
4.72857e-06
-3.30272e-06
4.94634e-06
1.05161e-06
4.9285e-06
-2.4888e-06
4.95318e-06
2.30487e-06
1.48087e-06
1.44748e-06
2.44979e-06
4.94888e-06
-5.56727e-06
1.02742e-06
1.64375e-06
1.11659e-06
-5.32021e-06
1.36815e-06
1.69e-06
-5.42359e-06
8.72706e-07
2.76797e-06
-5.35792e-06
1.08342e-06
1.50651e-06
-2.73443e-06
-4.45555e-06
1.6227e-06
-4.39924e-06
-2.69423e-06
1.00664e-06
-5.40347e-06
-5.18625e-06
1.11912e-06
1.1841e-06
1.14204e-06
1.05367e-06
1.34218e-06
1.02192e-06
2.78433e-06
1.16259e-06
1.03008e-06
-2.37578e-06
-4.00422e-06
1.19374e-06
-3.97327e-06
-2.37376e-06
1.15386e-06
-5.2336e-06
1.78768e-06
6.65774e-07
8.09525e-07
1.5826e-06
1.85606e-06
5.14286e-07
2.56417e-06
1.64694e-06
7.93328e-07
-2.53113e-06
-4.3929e-06
1.69042e-06
-4.38009e-06
-2.49942e-06
6.70685e-07
-5.0979e-06
2.65274e-06
1.06165e-06
1.38351e-06
1.13302e-06
2.69957e-06
1.0906e-06
1.47177e-06
2.48259e-06
9.63745e-07
2.56123e-06
1.11503e-06
1.24357e-06
-2.50723e-06
-3.98618e-06
1.39549e-06
-3.93838e-06
2.56416e-06
-2.45957e-06
1.03461e-06
-4.18828e-06
-2.5019e-06
1.36996e-06
1.58273e-06
-2.60231e-06
-4.40402e-06
-2.63534e-06
-4.22125e-06
1.49867e-06
5.16617e-06
-2.44533e-06
-3.99168e-06
1.27084e-06
1.13906e-06
-2.77888e-06
-2.54847e-06
-2.68168e-06
1.14516e-06
1.24213e-06
-4.17186e-06
-4.15533e-06
2.63775e-06
-3.9205e-06
2.47386e-06
-4.03427e-06
-9.66002e-07
-4.38228e-06
-5.19193e-06
-1.51188e-06
-1.40031e-06
-5.12497e-06
-4.05141e-06
-2.63064e-06
-2.61096e-06
8.37575e-07
-2.59573e-06
1.02722e-06
1.13292e-06
-2.42502e-06
4.09122e-06
-2.51746e-06
9.08826e-07
1.59342e-06
-5.15679e-06
9.32725e-07
-5.17418e-06
1.4771e-06
-2.54266e-06
-5.20556e-06
4.05798e-06
-1.39918e-06
2.50152e-06
-2.50885e-06
-1.00629e-06
-9.93522e-07
-2.55617e-06
5.694e-06
-5.42226e-07
-3.71711e-06
-1.43468e-06
-3.87906e-06
5.8383e-06
-3.31329e-07
-1.62791e-06
-1.61548e-06
5.80846e-06
-4.44415e-07
-3.74856e-06
-2.15915e-07
5.8401e-06
-3.82141e-06
-1.80277e-06
5.44216e-06
1.90819e-06
-1.65635e-06
1.90854e-06
-3.45454e-07
5.39801e-06
-3.70574e-06
5.69107e-06
6.0332e-06
-4.09762e-06
-1.07282e-07
-1.8283e-06
-4.36273e-06
6.3172e-06
1.34063e-07
-2.08854e-06
-2.12291e-06
-4.14835e-06
6.35653e-06
-8.52684e-08
4.4375e-07
-4.46723e-06
6.4835e-06
-2.46003e-06
6.36222e-06
1.84774e-06
-2.17676e-06
1.89931e-06
1.00176e-07
6.57524e-06
-4.28375e-06
6.35164e-06
5.94235e-06
-1.76526e-06
-4.51254e-07
-3.72583e-06
-3.88543e-06
-1.97365e-06
6.19489e-06
-3.35806e-07
-1.81778e-06
6.13818e-06
-5.34494e-07
-3.78589e-06
-1.86039e-07
-2.20583e-06
6.20726e-06
-3.81538e-06
5.68881e-06
2.10348e-06
-1.84993e-06
2.20772e-06
-4.04338e-07
5.79618e-06
-3.87872e-06
6.18611e-06
6.23098e-06
2.08033e-07
-3.96313e-06
-2.47587e-06
-4.32894e-06
7.7454e-07
6.51232e-06
-2.95791e-06
-2.75386e-06
2.36799e-07
6.38655e-06
-3.86947e-06
7.90925e-07
6.54433e-06
-4.01829e-06
-3.31693e-06
7.05832e-06
2.12281e-06
-2.95014e-06
2.24581e-06
4.83573e-07
7.07605e-06
-4.16229e-06
6.568e-06
1.87817e-06
5.84929e-06
-1.88915e-06
-1.77741e-06
5.57359e-06
2.01228e-06
6.02587e-06
1.98566e-06
-2.17143e-06
-6.14838e-06
6.82196e-06
1.92964e-06
-2.60325e-06
-3.95464e-06
-7.42167e-08
5.90703e-06
-4.09757e-08
-4.02463e-06
-2.19798e-06
1.96026e-06
1.87841e-06
-1.26746e-07
3.42108e-07
2.01262e-06
-6.06523e-06
2.07238e-06
-1.55509e-07
3.91308e-06
1.98856e-06
-3.28055e-07
5.93816e-06
1.84727e-06
1.99652e-06
6.0398e-06
-2.79451e-07
1.97109e-06
1.71028e-07
5.66526e-06
-3.82401e-06
6.10006e-06
-3.90637e-06
-4.18644e-06
6.89062e-06
-2.10195e-06
6.28477e-06
-3.94601e-06
-2.0511e-06
5.99661e-06
-3.77448e-06
6.00922e-06
-2.30636e-06
6.20102e-06
5.88855e-06
-2.22043e-06
6.29937e-06
2.49866e-06
6.40458e-06
-6.08773e-06
6.18645e-06
8.13886e-08
3.95723e-06
4.06198e-06
-1.5941e-07
6.40123e-06
1.06888e-06
9.70105e-07
4.09919e-06
4.07158e-06
8.50999e-07
1.27231e-06
-6.4851e-06
8.2121e-07
1.35605e-06
4.30785e-06
1.34278e-06
7.28479e-07
4.13601e-06
2.22557e-06
5.02943e-06
4.99653e-06
1.30063e-06
2.19641e-06
4.17581e-06
7.07832e-07
7.33179e-07
4.01852e-06
1.60483e-06
3.78869e-06
1.79678e-06
7.31729e-07
-6.70594e-06
4.04655e-06
2.04818e-06
6.11232e-07
2.15079e-06
3.88057e-06
4.52151e-07
2.63945e-06
4.44538e-06
4.57326e-06
1.85489e-06
2.6952e-06
3.90096e-06
5.62526e-07
5.92691e-07
-6.92621e-06
1.82949e-06
4.50404e-06
4.48396e-06
-7.20424e-06
2.25217e-06
4.68113e-07
-7.67355e-06
2.25611e-06
4.87971e-06
5.3774e-07
2.61393e-06
-7.25626e-06
4.64663e-06
-4.29439e-09
2.82385e-06
5.03565e-06
-7.2668e-06
5.15202e-06
2.15579e-06
3.00666e-06
4.64291e-06
4.85129e-07
2.74109e-07
1.83049e-06
4.28195e-06
4.06184e-06
2.4916e-06
-4.1106e-08
-7.04108e-06
2.79191e-06
4.70622e-06
-4.57054e-07
2.58735e-06
4.62055e-06
-6.63536e-07
2.47207e-06
4.37006e-06
4.04041e-06
2.49351e-06
2.50143e-06
4.45598e-06
-4.99232e-07
4.65239e-06
2.38506e-06
-6.6324e-06
2.4663e-06
4.98731e-06
2.30441e-06
4.72344e-06
-3.89822e-07
2.57886e-06
4.21554e-06
4.05095e-06
-1.86177e-06
2.46321e-06
-1.87362e-06
4.14964e-06
4.58044e-06
4.80117e-06
1.60241e-06
2.22294e-06
4.23649e-06
-2.75826e-06
4.75857e-06
2.04625e-06
-4.17573e-06
4.9378e-06
1.70424e-06
6.53413e-07
6.61096e-06
6.77732e-06
6.70621e-07
1.76461e-06
4.68968e-06
-1.94451e-06
2.51357e-06
4.41826e-06
2.30022e-06
4.25372e-06
4.07882e-06
2.62832e-06
-4.48312e-06
2.7885e-06
4.48653e-06
-6.63963e-06
3.05458e-07
4.38966e-06
2.41022e-07
-6.81335e-06
2.63569e-06
5.25163e-07
-4.39641e-06
-7.13531e-08
6.79105e-06
7.37662e-08
-2.88513e-06
4.39463e-07
-2.46347e-06
-4.27817e-06
-4.22419e-06
-2.47362e-06
9.32459e-08
-6.44219e-07
-9.77009e-07
-1.59108e-06
-1.60461e-06
-6.57266e-07
-9.88796e-07
3.17165e-06
-6.35494e-07
-9.488e-07
-1.58736e-06
-9.22683e-07
-7.13534e-07
-1.66973e-06
-1.54112e-06
-2.31159e-06
-2.21305e-06
-9.32686e-07
-1.60553e-06
-1.62875e-06
-6.46934e-07
-7.34355e-07
-1.64922e-06
-1.02992e-06
-1.75287e-06
-1.07248e-06
-8.53416e-07
3.40801e-06
-1.68395e-06
-1.00906e-06
-7.15009e-07
-9.51639e-07
-1.84035e-06
-9.06646e-07
-1.75322e-06
-2.50637e-06
-2.46634e-06
-1.03976e-06
-1.73138e-06
-1.72664e-06
-7.89702e-07
-6.50305e-07
3.20432e-06
-9.57481e-07
-1.59655e-06
-1.64331e-06
3.24819e-06
-9.35953e-07
-6.68936e-07
3.1618e-06
-9.53234e-07
-6.19794e-07
-1.5888e-06
-9.11873e-07
3.29783e-06
-7.07226e-07
-1.67875e-06
-1.57164e-06
-2.29142e-06
3.21272e-06
-2.26397e-06
-9.51015e-07
-1.56984e-06
-1.63346e-06
-6.72007e-07
-8.28703e-07
-8.58141e-07
-1.8015e-06
-1.92633e-06
-8.50645e-07
-9.28623e-07
3.52357e-06
-8.56312e-07
-8.50616e-07
-1.81664e-06
-8.02582e-07
-1.06291e-06
-2.02171e-06
-1.6595e-06
-2.80413e-06
-2.72464e-06
-8.61185e-07
-1.65234e-06
-1.95437e-06
-8.53412e-07
-2.38626e-06
-1.57454e-06
3.24712e-06
-1.61762e-06
-2.26501e-06
-1.60199e-06
-2.4747e-06
7.57349e-07
-1.66518e-06
-2.59839e-06
-1.66759e-06
9.38029e-07
-1.6567e-06
9.32596e-07
-1.75132e-06
-2.42071e-06
-2.26532e-06
-9.58448e-07
-9.56646e-07
-2.54888e-06
1.67991e-06
-2.39157e-06
-9.723e-07
1.63201e-06
-2.28216e-06
-9.67489e-07
-6.75802e-07
-3.24623e-06
-3.35909e-06
-6.6678e-07
-9.47445e-07
-2.34597e-06
9.1466e-07
-1.56808e-06
-1.6116e-06
-1.59506e-06
-1.73778e-06
-1.81182e-06
-1.63722e-06
2.49656e-06
-1.59714e-06
-1.75575e-06
3.28349e-06
-7.01098e-07
-1.66773e-06
-7.32278e-07
3.40528e-06
-1.60981e-06
-6.45926e-07
2.4386e-06
-7.37908e-07
-3.3809e-06
-8.05187e-07
1.59614e-06
-7.39522e-07
9.03635e-07
1.66316e-06
1.73242e-06
9.13329e-07
-7.35149e-07
-3.96791e-06
1.28846e-06
7.18469e-07
1.96098e-06
1.88665e-06
-3.92393e-06
1.25158e-06
7.85694e-07
7.14104e-07
-3.97355e-06
1.26921e-06
1.99025e-06
1.33623e-06
-3.89037e-06
7.35913e-07
1.8182e-06
-2.63795e-06
-2.06506e-06
7.35104e-07
-2.02857e-06
1.27727e-06
-2.61067e-06
1.88185e-06
-3.92514e-06
-3.81732e-06
1.89042e-06
1.16486e-06
7.62031e-07
1.85821e-06
1.08082e-06
6.83904e-07
7.35069e-07
1.91145e-06
1.13362e-06
1.22048e-06
1.73015e-06
6.11073e-07
-2.58291e-06
-1.94435e-06
7.09926e-07
-1.85017e-06
1.12546e-06
-2.53778e-06
1.81389e-06
-4.03716e-06
7.808e-07
1.2358e-06
2.02056e-06
1.96123e-06
7.92657e-07
1.18227e-06
8.09507e-07
1.18409e-06
2.13473e-06
1.29484e-06
6.67987e-07
1.81286e-06
-2.77072e-06
-2.05059e-06
7.84131e-07
-2.0284e-06
1.21891e-06
-2.68278e-06
1.92702e-06
-3.71021e-06
1.41773e-06
6.22253e-07
1.67019e-06
1.61535e-06
1.30195e-06
5.5377e-07
5.72102e-07
1.38041e-06
1.636e-06
1.45749e-06
5.0558e-07
1.53926e-06
-2.23692e-06
-2.02193e-06
5.48621e-07
-1.98043e-06
1.35886e-06
-2.14335e-06
1.5789e-06
-2.01695e-06
-2.65186e-06
7.44866e-07
7.88916e-07
-2.70129e-06
-2.06118e-06
-2.45005e-06
-2.09807e-06
6.57748e-07
3.70712e-06
-2.40072e-06
-1.94841e-06
6.42001e-07
1.841e-06
-1.28593e-06
-2.57202e-06
-1.29523e-06
1.75751e-06
6.63674e-07
-1.98777e-06
-1.98234e-06
1.2209e-06
1.23555e-06
-1.90612e-06
2.66249e-06
-1.95602e-06
1.20497e-06
-1.90979e-06
-2.03222e-06
1.24072e-06
-3.7892e-06
-7.65164e-07
-7.39753e-07
-3.90829e-06
1.23333e-06
-1.98555e-06
-1.31019e-06
-2.68975e-06
1.93877e-06
-2.40478e-06
1.72443e-06
1.67989e-06
-2.32634e-06
2.04272e-06
-2.40449e-06
1.74219e-06
6.75541e-07
-3.84113e-06
1.8554e-06
-3.71701e-06
6.78263e-07
-2.47667e-06
-3.94118e-06
1.98191e-06
-6.66527e-07
2.62301e-06
-1.28101e-06
-1.87604e-06
-1.77577e-06
-1.23858e-06
3.82768e-06
-2.19032e-06
-2.5906e-06
-2.60343e-06
3.91739e-06
-2.24992e-06
-2.19866e-06
3.83433e-06
-2.59317e-06
9.78776e-07
3.97728e-06
-2.30517e-06
-2.65088e-06
4.7905e-06
1.23885e-06
-2.20168e-06
1.23606e-06
4.80998e-06
-2.59238e-06
3.84736e-06
4.11365e-06
-2.69571e-06
-2.427e-06
-2.83929e-06
-2.5471e-06
-2.39472e-06
-2.70329e-06
1.11901e-06
-2.90141e-06
-2.54071e-06
5.20394e-06
1.35375e-06
-2.44404e-06
1.32489e-06
5.23789e-06
-2.76514e-06
3.83916e-06
-2.19686e-06
-2.5911e-06
-2.63219e-06
-2.29093e-06
-2.2338e-06
-2.60181e-06
1.0348e-06
-2.3612e-06
-2.67145e-06
4.79756e-06
1.24139e-06
-2.1998e-06
1.23268e-06
4.89145e-06
-2.61525e-06
4.22801e-06
1.10686e-06
-2.49289e-06
-2.84199e-06
-2.99282e-06
1.21865e-06
-2.66555e-06
-2.56992e-06
1.1674e-06
-2.86212e-06
1.3328e-06
-2.72259e-06
-3.17153e-06
5.47772e-06
1.32968e-06
-2.57939e-06
1.3301e-06
1.1548e-06
5.61562e-06
-2.95314e-06
1.28722e-06
4.9351e-06
-2.30494e-06
-2.20459e-06
4.80408e-06
1.23481e-06
5.05603e-06
1.27588e-06
-2.35463e-06
-4.16098e-06
5.30553e-06
1.33201e-06
-2.47658e-06
-2.64691e-06
-1.03997e-06
4.97409e-06
-1.00414e-06
-2.77288e-06
-2.42807e-06
1.27901e-06
1.26709e-06
1.07112e-06
1.33299e-06
-4.9284e-06
1.26665e-06
2.6031e-06
1.23349e-06
3.99385e-06
2.24732e-06
2.29983e-06
3.90298e-06
1.27441e-06
-9.79337e-07
4.8075e-06
-2.59337e-06
5.08954e-06
-2.70681e-06
-2.84369e-06
5.39435e-06
-1.27528e-06
5.18227e-06
-2.7396e-06
-2.30117e-06
3.97315e-06
-2.65131e-06
4.06737e-06
-2.37848e-06
5.07635e-06
3.84412e-06
-1.27136e-06
2.48851e-06
-5.01277e-06
-1.0033e-06
2.64762e-06
2.80169e-06
-1.09074e-06
-4.92386e-06
2.88382e-06
3.3285e-06
2.83721e-06
-4.88326e-06
3.31527e-06
3.22589e-06
-4.78146e-06
2.80714e-06
-1.14022e-06
-4.63482e-06
2.65231e-06
3.12271e-06
-6.15809e-06
-2.03637e-06
3.27061e-06
-2.04361e-06
-5.94914e-06
2.7725e-06
-4.76687e-06
-4.86729e-06
2.79121e-06
3.3119e-06
2.77727e-06
3.29131e-06
3.15003e-06
2.7588e-06
-1.04845e-06
2.54452e-06
3.03397e-06
-6.04923e-06
-2.05015e-06
3.2321e-06
-2.05305e-06
-5.74343e-06
2.64485e-06
-4.50859e-06
3.06357e-06
2.60988e-06
2.63824e-06
3.04261e-06
2.93456e-06
2.51003e-06
-9.98437e-07
2.76927e-06
2.3374e-06
-5.661e-06
-1.87654e-06
3.02896e-06
-1.89731e-06
-5.36342e-06
2.48843e-06
-4.26618e-06
-9.48817e-07
2.35973e-06
2.85525e-06
2.3053e-06
-8.80882e-07
2.76145e-06
2.64116e-06
-8.78013e-07
2.18122e-06
-7.45129e-07
2.04134e-06
2.49828e-06
-5.13543e-06
-1.87327e-06
2.74251e-06
-1.89413e-06
-9.35998e-07
-4.81548e-06
2.19706e-06
-2.03634e-06
-6.07617e-06
3.22925e-06
3.18563e-06
-6.00683e-06
-1.96026e-06
-5.71201e-06
-1.96677e-06
3.04394e-06
4.59952e-06
-5.61414e-06
-1.98744e-06
3.00208e-06
2.71386e-06
1.10257e-06
-5.85277e-06
1.13263e-06
2.60339e-06
3.0987e-06
-1.97599e-06
-2.04424e-06
-1.0887e-06
-1.98092e-06
5.94034e-06
-1.97655e-06
-2.80142e-06
-1.9845e-06
-4.69524e-06
-3.20177e-06
-3.13907e-06
-4.76985e-06
-1.96859e-06
1.06706e-06
-5.64025e-06
2.61292e-06
-5.4121e-06
2.4965e-06
2.46515e-06
-5.33347e-06
1.86314e-06
-5.07213e-06
2.33099e-06
2.93589e-06
-4.35643e-06
2.4876e-06
-4.45221e-06
2.92306e-06
-5.41635e-06
-4.56118e-06
1.87921e-06
-2.89424e-06
5.59838e-06
1.06597e-06
-2.59818e-06
-2.47117e-06
1.03161e-06
-5.07332e-06
4.63411e-06
2.69533e-06
4.32851e-06
-4.75772e-06
2.68138e-06
2.39473e-06
-4.68847e-06
4.12323e-06
-1.58567e-06
-4.61485e-06
3.95165e-06
2.24887e-06
-7.07387e-06
-6.07474e-07
2.60802e-06
-5.89573e-07
-6.44958e-06
4.25643e-06
-4.64442e-06
-4.44912e-06
3.9935e-06
2.5038e-06
3.70066e-06
-4.22542e-06
2.32154e-06
2.08472e-06
3.64913e-06
-4.12901e-06
-1.39704e-06
3.53443e-06
-4.18069e-06
2.0433e-06
-6.16533e-06
-6.09086e-07
2.32529e-06
-6.09779e-07
-5.67415e-06
3.66803e-06
-4.19921e-06
-4.36267e-06
1.99097e-06
3.72776e-06
3.53319e-06
1.86898e-06
-4.12986e-06
1.71054e-06
-4.12085e-06
3.38042e-06
-8.84715e-07
1.69136e-06
-4.10933e-06
3.30269e-06
-5.53658e-06
-7.47625e-07
1.92153e-06
-7.02763e-07
-5.10802e-06
3.47568e-06
-4.10025e-06
-4.33409e-06
-1.06997e-06
3.49733e-06
1.90674e-06
3.33853e-06
-1.01735e-06
-4.14682e-06
1.82563e-06
1.67765e-06
-7.789e-07
-4.1213e-06
3.22254e-06
-6.6809e-07
-4.12152e-06
3.11788e-06
1.67171e-06
-5.25123e-06
-9.09325e-07
1.82646e-06
-8.87871e-07
-1.02483e-06
-4.90635e-06
3.32895e-06
-4.11657e-06
-5.88716e-07
-6.64467e-06
2.47566e-06
2.25432e-06
-6.27522e-06
-6.67563e-07
-6.03061e-06
-7.68747e-07
2.1845e-06
4.43398e-06
-5.70099e-06
-7.65564e-07
2.03257e-06
3.89487e-06
1.56796e-06
-6.05155e-06
1.50476e-06
3.77607e-06
2.22588e-06
-7.49782e-07
-6.04916e-07
-1.40776e-06
-7.588e-07
5.90918e-06
-6.57645e-07
-3.94413e-06
-6.26857e-07
-4.39335e-06
-2.26312e-06
-2.13308e-06
-4.44264e-06
-6.66534e-07
1.20966e-06
-5.67723e-06
3.80002e-06
-5.55801e-06
3.7193e-06
3.47287e-06
-5.25578e-06
8.34862e-07
-4.99368e-06
3.37991e-06
1.95245e-06
-4.33894e-06
3.59616e-06
-4.35534e-06
1.9073e-06
-5.41138e-06
-4.31312e-06
8.00442e-07
-4.10276e-06
-1.85954e-06
-4.15504e-06
5.35539e-06
-4.14405e-06
1.15173e-06
-3.54332e-06
-3.45921e-06
1.14553e-06
-4.17323e-06
-1.65699e-06
-2.99836e-06
-2.91596e-06
-1.54971e-06
3.98254e-06
-1.54859e-06
-2.8852e-06
5.94344e-07
-1.66711e-06
-3.03657e-06
-1.12089e-06
-4.63635e-06
-4.4412e-06
-1.0841e-06
-2.95791e-06
-1.54276e-06
-1.36077e-06
-2.85352e-06
-2.87893e-06
-1.21244e-06
3.97998e-06
-2.82416e-06
-1.26312e-06
2.34328e-07
-2.9746e-06
-1.44043e-06
-1.24587e-06
-4.31411e-06
-4.02465e-06
-1.19283e-06
-2.88695e-06
-1.23751e-06
-1.4687e-06
3.86561e-06
-2.84132e-06
-2.8139e-06
3.84331e-06
-1.36075e-06
3.77696e-06
-2.84515e-06
-1.47404e-06
4.85626e-07
3.87801e-06
-2.89244e-06
-1.4712e-06
-1.03094e-06
-4.31878e-06
3.88101e-06
-4.19032e-06
-9.88941e-07
-2.84421e-06
-1.4023e-06
-1.70069e-06
6.90292e-07
-3.1109e-06
-3.08746e-06
5.28555e-07
-1.58793e-06
3.99715e-06
5.81644e-07
-3.01792e-06
-1.56087e-06
7.93757e-07
-3.20144e-06
-1.71386e-06
-9.77294e-07
-4.83998e-06
-4.65405e-06
5.89287e-07
-9.63977e-07
-3.08225e-06
-1.62089e-06
-4.50709e-06
-1.18667e-06
3.97847e-06
-1.09551e-06
-4.43155e-06
-1.05386e-06
-4.71603e-06
1.59039e-06
-1.11088e-06
-4.63456e-06
-2.90447e-06
-4.45884e-07
-1.15673e-06
-4.6877e-07
-3.02872e-06
-4.55135e-06
-4.19569e-06
2.89007e-07
-4.37449e-06
1.12841e-06
-4.07934e-06
2.8326e-06
-4.25616e-06
-1.40311e-06
-3.9493e-06
-4.00106e-06
-1.39616e-06
-4.2688e-06
-4.95343e-07
-1.06999e-06
-2.86621e-06
-1.01804e-06
-3.00771e-06
-3.0157e-06
-1.0903e-06
4.52416e-06
-1.0136e-06
-2.92891e-06
3.98799e-06
-1.5525e-06
-2.93084e-06
-1.58139e-06
4.0078e-06
-1.03614e-06
-1.46054e-06
4.35737e-06
-1.49297e-06
-3.98596e-06
-1.47884e-06
1.07678e-06
-1.31282e-06
-4.26607e-07
2.84708e-06
2.89462e-06
-3.44937e-07
-1.43627e-06
2.36242e-06
1.70205e-06
-2.64051e-06
-1.42398e-06
-1.39007e-06
2.21054e-06
1.9063e-06
-2.72677e-06
1.72864e-06
2.34627e-06
-2.65211e-06
-1.42281e-06
-2.69532e-06
2.31e-06
1.80728e-06
-1.42198e-06
-3.49062e-07
9.22907e-07
1.78857e-06
9.20315e-07
-2.65945e-06
-3.56614e-07
-1.41581e-06
2.29234e-06
1.99571e-06
-1.36077e-06
2.25089e-06
-2.88583e-06
-1.40714e-06
2.70172e-06
1.70778e-06
-3.00237e-06
2.43666e-06
-1.35301e-06
1.83511e-06
-2.91877e-06
-3.05698e-06
-1.41548e-06
2.53687e-06
1.93559e-06
-1.03808e-06
5.61484e-07
2.47232e-06
4.80313e-07
-2.92553e-06
-1.11206e-06
-1.38344e-06
1.80492e-06
2.31973e-06
1.76139e-06
-2.663e-06
-1.41813e-06
-1.35446e-06
2.09627e-06
2.0339e-06
-2.77574e-06
1.77857e-06
2.29245e-06
-2.66065e-06
-1.4104e-06
-2.75961e-06
1.94899e-06
2.19578e-06
-1.38517e-06
-4.7041e-07
8.78789e-07
1.91131e-06
8.73843e-07
-2.69873e-06
-4.89009e-07
-1.39183e-06
2.1634e-06
2.28756e-06
-2.76202e-06
1.91432e-06
-1.43987e-06
-1.42618e-06
-3.01499e-06
2.26718e-06
2.17398e-06
2.02712e-06
-2.84177e-06
2.2331e-06
-1.41844e-06
-2.90378e-06
2.01569e-06
2.38419e-06
-1.4961e-06
-6.06174e-07
8.50637e-07
2.04311e-06
8.20668e-07
-2.85301e-06
-6.08594e-07
-1.44455e-06
2.2392e-06
7.93894e-07
-6.24989e-07
2.04161e-06
1.84726e-06
-4.0255e-07
9.01537e-07
-4.81288e-07
8.86515e-07
1.90475e-06
-2.14201e-06
-8.66215e-07
7.21651e-07
2.28656e-06
-1.39518e-06
2.83544e-06
-6.4636e-07
2.74442e-06
-1.39069e-06
2.08412e-06
8.72433e-07
7.68627e-07
-2.75438e-06
-2.93754e-06
6.55848e-07
7.78037e-07
6.76127e-07
-2.80719e-06
1.36927e-06
8.98094e-07
-2.66994e-06
2.11627e-06
-1.994e-06
-2.20471e-06
2.1466e-06
-2.77134e-06
7.19929e-07
2.71133e-06
-4.08783e-07
-1.40102e-06
-4.50818e-07
-1.42469e-06
-1.41219e-06
-8.8114e-07
-8.57891e-07
-5.89427e-07
-1.39446e-06
1.84181e-06
2.2691e-06
-1.39959e-06
2.26343e-06
2.00178e-06
-5.90576e-07
2.25069e-06
-8.29124e-07
2.18868e-06
-2.25981e-06
2.03452e-06
8.07283e-07
1.96511e-06
2.78886e-06
1.37315e-06
1.36916e-06
2.90036e-06
2.00971e-06
-3.82712e-06
-1.6589e-06
3.42575e-06
2.06028e-06
-1.45221e-06
-4.12532e-06
3.42966e-06
2.14788e-06
2.07068e-06
-3.99253e-06
-1.35173e-06
3.27357e-06
3.20401e-06
-3.61352e-06
-1.55052e-06
1.96002e-06
-5.67596e-07
-5.2877e-06
2.02818e-06
-5.38781e-06
3.368e-06
-5.49375e-07
-1.53432e-06
-3.86651e-06
-4.4599e-06
-1.22287e-06
3.39937e-06
2.28341e-06
-9.40759e-07
-4.97968e-06
3.27647e-06
2.64397e-06
2.31382e-06
-7.34722e-07
-4.75383e-06
3.17474e-06
3.03693e-06
-1.19403e-06
-4.0417e-06
2.1988e-06
-1.27135e-06
-5.4266e-06
2.23805e-06
-5.63277e-06
3.42065e-06
-1.24106e-06
-1.1486e-06
-4.56001e-06
-4.07252e-06
2.02576e-06
-1.06375e-06
3.1105e-06
-7.02901e-07
2.14228e-06
-4.51485e-06
3.07546e-06
1.91379e-06
-7.50678e-07
-4.09194e-06
2.92882e-06
2.85433e-06
1.88277e-06
-1.01881e-06
-3.7183e-06
-1.15006e-06
-4.91234e-06
1.98987e-06
-4.95415e-06
3.10119e-06
-1.03001e-06
-1.02799e-06
-4.07038e-06
-3.32642e-06
3.03134e-06
-1.52273e-06
1.81781e-06
-1.36495e-06
2.90179e-06
-3.44456e-06
1.90773e-06
1.79441e-06
2.8445e-06
-1.26653e-06
-3.37239e-06
2.86318e-06
-1.50525e-06
-3.06398e-06
1.70607e-06
-3.72125e-07
-4.68544e-06
1.73114e-06
-4.71755e-06
2.98048e-06
-3.47807e-07
-1.47445e-06
-3.27094e-06
-5.33511e-06
-8.80149e-07
2.08994e-06
2.05027e-06
-8.76312e-07
-5.16649e-06
-4.93009e-07
-4.99602e-06
1.87551e-06
3.77791e-06
-7.71731e-07
-4.94483e-06
1.93866e-06
-1.33685e-06
-3.13901e-06
-8.59252e-07
-3.15308e-06
-1.39866e-06
2.03756e-06
-5.04475e-06
-5.4409e-06
3.33788e-06
3.12534e-06
-5.09109e-06
1.32753e-06
-5.338e-06
3.27575e-06
1.06963e-06
-5.16261e-06
3.21667e-06
-4.14076e-06
-2.15939e-06
-2.16402e-06
-4.29227e-06
3.20251e-06
-5.12877e-06
-3.05521e-06
-8.38113e-07
-1.27317e-06
-4.97134e-07
-1.46754e-06
-1.27332e-06
-7.69713e-07
4.81219e-06
-7.20565e-07
-1.24712e-06
1.95251e-06
-3.72632e-06
-1.2814e-06
-3.58938e-06
1.88222e-06
-7.96355e-07
-3.97496e-06
4.83245e-06
-3.67024e-06
-2.04747e-06
-3.81334e-06
1.21259e-06
-4.4083e-06
-2.99364e-06
1.00855e-06
1.04245e-06
-2.90763e-06
-3.91264e-06
9.71978e-08
-8.5609e-07
-1.43144e-06
2.20512e-06
7.60551e-08
-8.52872e-07
-1.42832e-06
-8.37594e-07
6.83243e-08
-1.48065e-06
-1.47299e-06
4.24031e-08
-8.74583e-07
-1.3392e-06
2.30588e-06
-8.69486e-07
2.29184e-06
-1.42592e-06
-1.36882e-06
8.54223e-08
4.96739e-08
2.22836e-06
-8.46642e-07
-1.43142e-06
2.2398e-06
-8.44029e-07
3.25363e-08
-1.42831e-06
-8.53777e-07
2.33586e-06
-1.18286e-08
-1.47025e-06
-1.45275e-06
2.36654e-06
-8.52351e-07
-6.14319e-08
-1.38161e-06
2.29565e-06
-8.64379e-07
2.29542e-06
-1.43724e-06
-1.4525e-06
2.29539e-06
-1.0853e-08
-4.45506e-09
-8.50473e-07
-1.57208e-06
2.42703e-06
-8.74096e-07
-1.56935e-08
-1.53725e-06
-9.01179e-07
3.80089e-09
-1.64973e-06
-1.56646e-06
-9.11602e-07
-6.2651e-08
-1.54154e-06
2.4442e-06
-9.07122e-07
2.44874e-06
-1.56325e-06
-1.56631e-06
-1.87549e-08
-8.83938e-08
-1.49385e-06
-9.10641e-07
2.54328e-06
-1.49114e-06
-8.68035e-07
-1.84114e-07
-9.3846e-07
-1.54766e-06
-1.79442e-07
-1.51245e-06
-9.21524e-07
-2.88628e-07
-1.61593e-06
2.4035e-06
-8.75978e-07
2.42344e-06
-1.4961e-06
-1.68835e-06
-2.0337e-07
2.31073e-06
-1.36736e-06
-8.67334e-07
-8.89809e-07
-1.396e-06
2.35413e-06
-1.44252e-06
2.35167e-06
-8.66753e-07
2.7796e-08
-1.48055e-06
2.34216e-06
-8.89401e-07
2.26319e-06
1.45509e-06
-1.40757e-06
1.4588e-06
2.33637e-06
-8.53485e-07
2.35265e-06
2.2921e-06
-1.4311e-06
-1.45172e-06
2.33771e-06
1.45724e-06
2.3641e-06
-1.48549e-06
-2.27194e-06
2.3435e-06
-1.46756e-06
2.91141e-08
8.5542e-07
8.72783e-07
3.839e-08
-1.45492e-06
2.36841e-06
1.50473e-06
-1.45555e-06
-1.49682e-06
2.43939e-06
-1.58838e-06
-2.43159e-06
-1.59266e-06
-8.96565e-07
-2.67827e-08
-4.07446e-08
-9.02552e-07
-1.55583e-06
3.74778e-08
-2.42223e-06
-8.20347e-08
8.53167e-07
-1.03843e-07
1.52346e-06
-3.34586e-08
1.50992e-06
-2.37957e-06
-2.46814e-06
1.5123e-06
-1.02676e-07
-3.80485e-08
1.02655e-06
1.89531e-06
1.02335e-06
-5.41038e-08
1.83789e-06
-2.79657e-06
-1.93342e-07
1.09602e-06
1.89389e-06
1.83482e-06
-1.99248e-07
1.01673e-06
1.81307e-06
9.21367e-07
9.47441e-07
1.88898e-06
1.68689e-06
1.0693e-06
-1.62238e-07
-1.12991e-07
9.93219e-07
1.72965e-06
9.656e-07
-1.19471e-07
1.6639e-06
-2.50671e-06
1.00383e-06
-2.2766e-07
1.73053e-06
1.62178e-06
9.541e-07
-2.3848e-07
1.57692e-06
7.98528e-07
8.14625e-07
1.72789e-06
1.45258e-06
9.67705e-07
-2.39515e-07
-3.26274e-07
-2.69755e-06
1.11937e-06
1.90449e-06
1.08149e-06
-2.55218e-06
-3.43339e-07
1.81404e-06
-2.61395e-06
1.14147e-06
-4.57901e-07
1.93039e-06
1.87863e-06
-2.43313e-06
1.05787e-06
-5.03368e-07
1.51227e-06
6.73151e-07
-2.51167e-06
7.20407e-07
1.87336e-06
1.44831e-06
1.10347e-06
-4.45232e-07
-3.7458e-07
1.75324e-06
9.81055e-07
9.49845e-07
1.59123e-06
-3.59855e-07
-2.25912e-06
1.78144e-06
1.01173e-06
-5.34052e-07
1.65159e-06
9.09608e-07
-5.19867e-07
1.30361e-06
5.18866e-07
5.70284e-07
1.68316e-06
1.18485e-06
9.856e-07
-5.03994e-07
8.6469e-07
1.69411e-06
-2.61997e-06
1.64417e-06
7.82472e-07
1.57231e-06
7.24915e-07
1.95856e-07
1.46668e-06
6.68472e-07
9.89301e-07
-1.70561e-06
1.581e-06
-1.79291e-06
9.77841e-07
7.57242e-07
8.88355e-07
1.79898e-06
1.70875e-06
7.12037e-07
-1.57604e-06
7.86235e-07
1.79364e-06
-1.02938e-06
8.27592e-07
1.84597e-06
-1.77424e-07
2.64678e-06
2.49903e-06
-1.8307e-07
1.80048e-06
7.39926e-07
-1.86626e-06
1.56681e-06
1.08198e-06
1.44913e-06
1.02901e-06
9.72906e-07
1.2868e-06
-5.65431e-07
1.30365e-06
1.04322e-06
-2.5643e-06
-3.35845e-07
1.03386e-06
-3.57931e-07
-2.29814e-06
1.39684e-06
-3.03142e-07
-6.35565e-07
-4.9391e-07
2.36212e-06
-3.63291e-07
-1.42637e-06
-3.39573e-07
-1.7757e-06
-1.03911e-06
-1.01443e-06
-1.72555e-06
-3.77861e-07
4.15526e-06
-1.89326e-06
-5.59956e-07
-1.78624e-06
4.22988e-06
-1.9281e-06
-5.15545e-07
-4.42181e-07
4.25444e-06
-1.90596e-06
-1.90138e-06
4.23778e-06
-5.29118e-07
2.27483e-06
2.42713e-06
-5.46709e-07
2.34421e-06
-1.85563e-06
2.31432e-06
4.21636e-06
4.38202e-06
-1.87654e-06
-1.98368e-06
-5.21816e-07
-1.94018e-06
4.63445e-06
-2.12327e-06
-5.7102e-07
-4.08007e-07
-2.13792e-06
4.63798e-06
-2.09205e-06
-1.99323e-06
-1.97689e-06
4.50708e-06
-5.36969e-07