/*--------------------------------*- C++ -*----------------------------------*\
| =========                 |                                                 |
| \\      /  F ield         | OpenFOAM: The Open Source CFD Toolbox           |
|  \\    /   O peration     | Version:  2506                                  |
|   \\  /    A nd           | Website:  www.openfoam.com                      |
|    \\/     M anipulation  |                                                 |
\*---------------------------------------------------------------------------*/
FoamFile
{
    version     2.0;
    format      ascii;
    arch        "LSB;label=32;scalar=64";
    class       volScalarField;
    location    "900";
    object      p;
}
// * * * * * * * * * * * * * * * * * * * * * * * * * * * * * * * * * * * * * //

dimensions      [0 2 -2 0 0 0 0];

internalField   nonuniform List<scalar> 
67200
(
0.0859507
0.00502278
0.0521883
0.014222
0.0536532
0.0406527
0.0530754
0.0371303
-0.0559088
-0.0740727
-0.0732519
-0.0752978
-0.0669049
-0.0659236
-0.073545
-0.078965
-0.0142095
-0.092193
-0.203618
-0.089369
-0.0904019
-0.119712
-0.125152
-0.139548
-0.0704436
-0.082226
-0.0831232
-0.0988816
-0.086485
-0.0853335
-0.0936614
-0.0930761
-0.0320206
-0.00583144
-0.0276076
-0.0730854
-0.0391129
-0.0237997
-0.0515617
-0.0400348
-0.0351779
-0.0760258
-0.0863866
-0.0173926
-0.0472592
-0.0684905
-0.0393557
-0.0813807
-0.0176983
-0.0368644
-0.0819785
-0.112218
-0.0466372
-0.049081
-0.0851766
-0.0715715
-0.0285708
-0.122356
-0.083132
-0.101243
-0.0809961
-0.106023
-0.0994107
-0.0875151
-0.261773
-0.144946
-0.151302
-0.152928
-0.165858
-0.145139
-0.185688
-0.144794
-0.0859402
-0.0569758
-0.066893
-0.0645415
-0.0672354
-0.0635901
-0.0724442
-0.0688404
-0.0738655
-0.0592591
-0.0277331
-0.0608376
-0.0621287
-0.0500774
-0.0524207
-0.0427908
-0.115315
-0.0755774
-0.0833583
-0.0832073
-0.100398
-0.0918814
-0.100615
-0.0903968
-0.0951507
-0.118283
-0.128741
-0.0798768
-0.108128
-0.132522
-0.0941962
-0.114629
-0.0913264
-0.0773802
-0.0693694
-0.0963657
-0.0979143
-0.0846124
-0.10878
-0.0766171
-0.109296
-0.141084
-0.0784416
-0.09234
-0.108495
-0.119219
-0.10163
-0.10424
-0.0846411
-0.082834
-0.0712712
-0.0700689
-0.0946244
-0.0935182
-0.0818067
-0.0719733
-0.00601226
-0.0164364
-0.0144454
-0.0126745
-0.0105794
-0.0147492
-0.012215
-0.0155395
-0.0296509
-0.0442896
-0.0376265
-0.0353757
-0.0356163
-0.0375908
-0.0346605
-0.0370422
-0.0215854
-0.0334878
-0.0313377
-0.0266748
-0.0254237
-0.0298697
-0.0258751
-0.0300975
-0.0193989
-0.0302395
-0.0252475
-0.0262463
-0.0241872
-0.0275808
-0.024969
-0.0275453
-0.0231349
-0.0189098
-0.0172167
-0.0288281
-0.023273
-0.0192914
-0.023865
-0.0211284
-0.0260741
-0.0324258
-0.0328684
-0.0209319
-0.0266709
-0.0290177
-0.0257597
-0.0291344
-0.0197897
-0.0183022
-0.029164
-0.0251104
-0.0194551
-0.0214623
-0.0242194
-0.0247506
-0.0213454
-0.0275377
-0.0316242
-0.0326445
-0.0256064
-0.027583
-0.0299264
-0.0307248
-0.018736
-0.0546632
-0.0724974
-0.0480395
-0.0366199
-0.0513182
-0.041716
-0.0561364
-0.0660589
-0.0575395
-0.0795462
-0.0651714
-0.0622981
-0.0682007
-0.0710076
-0.0717553
-0.136302
-0.128477
-0.241493
-0.137149
-0.119904
-0.14169
-0.153641
-0.157745
-0.0631118
-0.0705909
-0.0906984
-0.0711774
-0.0709728
-0.0751391
-0.0742551
-0.0797354
-0.0581789
-0.0690444
-0.0538992
-0.0664064
-0.0680291
-0.0706617
-0.06708
-0.0649495
-0.0707554
-0.0682754
-0.0948314
-0.0884635
-0.0760602
-0.0767029
-0.110634
-0.0840036
-0.0745291
-0.0602118
-0.0770289
-0.09412
-0.0888171
-0.0742471
-0.0912753
-0.0825982
-0.0936783
-0.100562
-0.0765655
-0.0973607
-0.104391
-0.0962434
-0.105249
-0.0911627
-0.234294
-0.0313821
-0.130515
-0.140695
-0.100688
-0.0749825
-0.147336
-0.0923394
0.00192206
0.00155861
-0.0209315
-0.00809083
0.00496318
0.00217206
-0.00647977
-0.00872154
-0.0692167
-0.0517807
-0.0690188
-0.078658
-0.0677453
-0.0589005
-0.0786784
-0.0637209
-0.101549
-0.0479122
-0.0965031
-0.0908231
-0.0826331
-0.0660981
-0.0941707
-0.0707447
-0.0129076
-0.0792562
-0.0912171
-0.0269453
-0.0406143
-0.0710434
-0.0439528
-0.0714911
-0.0119594
-0.0202826
-0.027827
-0.0630076
-0.0257508
-0.0220157
-0.0483635
-0.0329126
-0.0958555
-0.123352
-0.0445963
-0.0936553
-0.098639
-0.0828389
-0.0795596
-0.0665669
-0.073583
-0.0671624
-0.0354677
-0.0383951
-0.0622948
-0.0646321
-0.0476137
-0.0478063
-0.215465
-0.140936
-0.103783
-0.164393
-0.165852
-0.148361
-0.153589
-0.135181
-0.0943064
-0.0665189
-0.0705245
-0.085491
-0.0788719
-0.0732381
-0.077844
-0.0727682
-0.0495293
-0.0484093
-0.0223926
-0.0582557
-0.0566477
-0.0440996
-0.0455383
-0.0348987
-0.13414
-0.0982293
-0.0965189
-0.117326
-0.110329
-0.102576
-0.10919
-0.0953354
-0.111346
-0.0920109
-0.135826
-0.0982771
-0.108146
-0.123053
-0.112867
-0.122211
-0.104378
-0.0927898
-0.0682122
-0.0775618
-0.102725
-0.0943696
-0.0859997
-0.0779591
-0.0798498
-0.130653
-0.098867
-0.0786562
-0.0984792
-0.10743
-0.0893735
-0.106262
-0.0667772
-0.0681744
-0.0911157
-0.0619859
-0.069848
-0.0744448
-0.0687158
-0.0756256
-0.0435076
-0.0358998
-0.0381103
-0.0365868
-0.0400427
-0.0378681
-0.0391389
-0.0372966
-0.031757
-0.0300494
-0.0308851
-0.030611
-0.0302483
-0.0301512
-0.0307671
-0.030252
-0.0351323
-0.0323793
-0.0346244
-0.0320867
-0.0335376
-0.0328447
-0.0337403
-0.0326517
-0.0341113
-0.0316318
-0.0320145
-0.0327887
-0.0337988
-0.0329082
-0.0335977
-0.032867
-0.0328334
-0.0358888
-0.0363209
-0.031924
-0.0335015
-0.035595
-0.0324126
-0.0344794
-0.0324888
-0.031329
-0.0313056
-0.034358
-0.0324434
-0.0313695
-0.0338543
-0.0317625
-0.0354979
-0.0358495
-0.0321639
-0.0334289
-0.0334775
-0.0340398
-0.0334222
-0.0331804
-0.0340618
-0.0325465
-0.031497
-0.0312143
-0.0332859
-0.0326614
-0.0323026
-0.0316278
-0.329004
-0.13369
-0.312214
-0.18894
-0.259464
-0.274415
-0.267762
-0.244688
-0.0594966
-0.0290749
-0.0684078
-0.076616
-0.0592249
-0.0397007
-0.073021
-0.0530579
-0.295347
-0.115179
-0.302255
-0.173933
-0.231379
-0.207382
-0.238308
-0.202622
-0.136015
-0.10721
-0.137545
-0.104219
-0.115716
-0.131854
-0.118764
-0.114439
-0.116715
-0.249877
-0.166268
-0.11003
-0.141688
-0.20031
-0.127197
-0.175833
-0.0954984
-0.102361
-0.0728413
-0.226515
-0.107827
-0.113795
-0.11248
-0.101917
-0.247641
-0.172602
-0.124896
-0.156677
-0.186482
-0.161534
-0.167456
-0.141428
-0.218715
-0.157341
-0.104551
-0.0938107
-0.177158
-0.172729
-0.144807
-0.128083
-0.0324729
-0.0742376
-0.0664284
-0.0864134
-0.0535744
-0.0646231
-0.0671393
-0.0744013
-0.152587
-0.236552
-0.183332
-0.180772
-0.160803
-0.186603
-0.186667
-0.192871
-0.10703
-0.170437
-0.280031
-0.176444
-0.148442
-0.162176
-0.177306
-0.195302
-0.121153
-0.156279
-0.145198
-0.131297
-0.137723
-0.151766
-0.140948
-0.149598
-0.106721
-0.0871795
-0.110581
-0.151388
-0.122048
-0.103312
-0.132583
-0.12212
-0.124041
-0.171398
-0.157715
-0.0960598
-0.126846
-0.166653
-0.109489
-0.138251
-0.104739
-0.116336
-0.165596
-0.153479
-0.121752
-0.125769
-0.147221
-0.151398
-0.119076
-0.166683
-0.169
-0.17056
-0.156353
-0.157254
-0.161413
-0.164279
0.106917
0.0779155
0.0690214
0.0129691
0.0778526
0.0797038
0.0507539
0.0573485
0.00410571
-0.255432
-0.145978
-0.152357
-0.0604405
-0.0922436
-0.12379
-0.185395
-0.0249799
-0.132336
-0.220644
-0.142458
-0.0894494
-0.134374
-0.155312
-0.169926
-0.088524
-0.123323
-0.118636
-0.119904
-0.101154
-0.113064
-0.107426
-0.122126
0.0295602
0.0308044
-0.0226454
-0.107199
-0.00641803
0.00711641
-0.0673196
-0.0351932
0.0257992
-0.113228
-0.0944034
0.0226118
-0.0208036
-0.076217
-0.013369
-0.061312
-0.0122123
-0.0654102
-0.106573
-0.12795
-0.0762907
-0.0773948
-0.108539
-0.0971576
-0.0274863
-0.139709
-0.126569
-0.128914
-0.0744343
-0.131576
-0.101376
-0.138955
-0.216249
-0.040921
-0.0907877
-0.133748
-0.155634
-0.128037
-0.139692
-0.0927449
0.0187806
0.033901
-0.0264664
-0.0140767
0.0236444
0.0202764
-0.0131706
-0.00212706
-0.0707747
-0.0532794
-0.0536057
-0.0675374
-0.0681957
-0.063506
-0.0665481
-0.0593606
-0.0913291
-0.0563218
-0.0706727
-0.0760126
-0.0847336
-0.077102
-0.0875242
-0.0779427
-0.0413092
-0.0806286
-0.112536
-0.0526681
-0.0573802
-0.0878202
-0.0582122
-0.0965365
-0.029426
-0.041345
-0.040796
-0.0729697
-0.0359984
-0.0359323
-0.0615025
-0.0446182
-0.0902236
-0.108106
-0.0612088
-0.0786667
-0.0865743
-0.0855638
-0.078089
-0.0726389
-0.0728944
-0.0708559
-0.0497978
-0.0430515
-0.0650187
-0.0684422
-0.0576481
-0.0565661
-0.179279
-0.00455971
-0.00403397
-0.12238
-0.0951233
-0.0540785
-0.0916482
0.00364668
0.0666322
0.0954936
0.0580434
0.0450416
0.0653475
0.0699966
0.0525662
0.0675357
0.0214232
0.0340797
0.0125675
0.0101634
0.0229744
0.0229615
0.00995904
0.0187753
-0.101215
-0.0274735
-0.0288048
-0.0871611
-0.0739798
-0.0472658
-0.0760313
-0.0377767
0.00908253
0.00699271
-0.085278
-0.015121
0.00394505
-0.0131046
-0.025068
-0.0474924
0.0344187
0.0141188
0.0439445
0.0201812
0.0416781
0.0464666
0.0436978
0.0469959
-0.0109935
-0.0836253
-0.0181325
-0.0181326
-0.026902
-0.0360006
-0.0120168
-0.0259457
0.018719
0.0109648
0.0199354
0.0395469
0.0195175
0.00695201
0.027408
0.02307
0.0353364
0.0200011
-0.0185106
-0.000618386
0.0286072
0.0176924
0.00741039
-0.0114193
-0.0407598
-0.212352
-0.0835564
-0.105771
-0.113933
-0.133834
-0.0950451
-0.131869
-0.0500845
-0.0634036
-0.0550451
-0.0592968
-0.0617981
-0.0668762
-0.0553698
-0.0563922
-0.0295916
-0.0693084
-0.055279
-0.0526018
-0.0507471
-0.0595391
-0.0490391
-0.0629443
-0.01418
-0.0396875
-0.0146883
-0.0698648
-0.0243673
-0.0250785
-0.0317474
-0.0229089
-0.0328227
-0.088098
-0.0794661
-0.0479369
-0.0505086
-0.090673
-0.0571061
-0.0691717
-0.0412625
-0.0233254
-0.0709815
-0.0568206
-0.0403917
-0.0402309
-0.0550705
-0.0610401
-0.0501698
-0.0643563
-0.089876
-0.0711124
-0.0544214
-0.0646604
-0.0619324
-0.0694284
-0.160088
-0.084749
-0.111773
-0.168862
-0.152954
-0.11781
-0.162349
-0.117709
-0.045224
-0.0149185
-0.0156877
-0.0533236
-0.0331063
-0.0208066
-0.038639
-0.0240927
-0.0527677
-0.015285
-0.0183124
-0.0731286
-0.0496542
-0.0226018
-0.0593939
-0.0301804
-0.143114
-0.0953989
-0.110574
-0.12982
-0.116678
-0.0999403
-0.121467
-0.106994
-0.0751878
-0.0911069
-0.125756
-0.0737802
-0.0787807
-0.0998275
-0.0975631
-0.103318
-0.0545615
-0.0586302
-0.0188199
-0.0584194
-0.057087
-0.0513063
-0.0507003
-0.0429103
-0.0994218
-0.133441
-0.0782863
-0.101604
-0.1087
-0.109288
-0.0936253
-0.100249
-0.0618494
-0.0745484
-0.0660601
-0.0255075
-0.0608522
-0.0669692
-0.047843
-0.0601335
-0.00623925
-0.02111
-0.00430869
-0.0153735
-0.0116688
-0.0124379
-0.0099953
-0.011546
-0.0345168
-0.0419969
-0.02871
-0.0343393
-0.0357444
-0.0360626
-0.032946
-0.0339605
-0.0048014
-0.0158122
-0.00493919
-0.0118708
-0.010402
-0.0110726
-0.00879416
-0.00989015
-0.0205033
-0.0289738
-0.0187798
-0.0261932
-0.0252111
-0.0256847
-0.022944
-0.0239647
-0.0254716
-0.0109019
-0.0198964
-0.0295331
-0.0236551
-0.0158442
-0.0264754
-0.0206075
-0.0262184
-0.0299959
-0.0231259
-0.0119311
-0.0246159
-0.0268996
-0.0183044
-0.0223911
-0.00976909
-0.0176149
-0.0274113
-0.0160028
-0.0126534
-0.0183472
-0.0177154
-0.022149
-0.0107864
-0.0170577
-0.0283963
-0.0213516
-0.0146675
-0.0180393
-0.0204798
-0.0224772
-0.233716
-0.11802
-0.0271134
-0.101422
-0.146457
-0.117485
-0.140269
-0.109151
-0.0766197
-0.0727649
-0.0525422
-0.0757966
-0.0857018
-0.0758647
-0.0788173
-0.0691283
0.0467774
-0.0179571
0.0760863
-0.0084999
0.0148008
0.0238731
0.02469
0.0325875
-0.0951736
-0.080616
-0.0629167
-0.0903182
-0.0963517
-0.0925232
-0.0924149
-0.086873
-0.110678
-0.0652741
-0.122217
-0.0838523
-0.0992481
-0.0843674
-0.0813147
-0.105663
-0.0938879
-0.0808598
-0.046571
-0.0392716
-0.0816366
-0.071927
-0.0584454
-0.0584123
-0.0447416
-0.114759
-0.0844142
-0.0574866
-0.065313
-0.0944508
-0.0640653
-0.079552
-0.0238472
-0.0427948
-0.0791891
-0.038447
-0.0394328
-0.0523502
-0.0492036
-0.0605922
-0.0267705
-0.029203
-0.0277182
-0.0281992
-0.0271007
-0.0278116
-0.0275307
-0.0278869
-0.0353911
-0.0440156
-0.034929
-0.0377746
-0.037726
-0.0393812
-0.0362747
-0.0368131
-0.0289787
-0.0306091
-0.0295059
-0.0297614
-0.0296133
-0.0300308
-0.0297286
-0.0298427
-0.0308673
-0.0345258
-0.0308908
-0.033571
-0.0327502
-0.0329896
-0.0324942
-0.032327
-0.0311177
-0.0288345
-0.029899
-0.0343633
-0.0308646
-0.0291
-0.032505
-0.0303505
-0.0321566
-0.0351149
-0.0326357
-0.0291489
-0.0314415
-0.0339767
-0.0300489
-0.0316883
-0.028959
-0.0298659
-0.033691
-0.0306571
-0.0293997
-0.0301007
-0.0305493
-0.0318624
-0.0291493
-0.0307155
-0.0338303
-0.0318153
-0.0301101
-0.03121
-0.0313406
-0.0323557
-0.226168
-0.164417
-0.0164881
-0.188894
-0.161309
-0.102908
-0.121636
-0.0738054
-0.178134
-0.298118
-0.0406849
-0.1787
-0.187041
-0.157937
-0.154812
-0.129431
0.0721343
0.070026
0.0897581
-0.00243856
0.0539894
0.0818338
0.0530684
0.0767239
-0.158938
-0.142911
-0.0990552
-0.135523
-0.138209
-0.125792
-0.118678
-0.11129
-0.147023
-0.0194898
-0.150478
-0.144671
-0.10771
-0.0971066
-0.152574
-0.1249
-0.108647
-0.144131
0.0159804
0.0205578
-0.0965969
-0.125657
-0.0189224
-0.0334259
-0.00451538
-0.124213
-0.121342
-0.0529475
-0.0734237
-0.106416
-0.0766251
-0.114563
0.0255199
-0.0341978
-0.121803
0.0234926
0.00464072
-0.0399129
-0.0193038
-0.0798592
-0.288926
-0.00409242
-0.29253
-0.115196
-0.171813
-0.13677
-0.239837
-0.192689
0.0694739
0.0936476
0.0541123
-0.00390293
0.0599662
0.0908336
0.0124936
0.0526037
-0.305743
-0.0444992
-0.2983
-0.111496
-0.176972
-0.142416
-0.232244
-0.189993
-0.107846
-0.0688805
-0.11573
-0.0938173
-0.106601
-0.102671
-0.101673
-0.106223
-0.0237385
-0.178373
-0.119444
-0.050767
-0.0782122
-0.120203
-0.0695403
-0.119823
0.025661
-0.0354022
0.0168119
-0.144869
-0.0350128
-0.0191061
-0.0370292
-0.0307097
-0.249117
-0.123458
-0.0727105
-0.125905
-0.12461
-0.0924016
-0.11423
-0.0996965
-0.198591
-0.0897761
-0.0419343
-0.0404475
-0.120669
-0.120447
-0.0893476
-0.0561809
-0.0127582
-0.0157617
-0.0305938
-0.0352853
-0.0175171
-0.0189764
-0.0247572
-0.0261352
-0.0184236
-0.0217199
-0.0487963
-0.0531424
-0.0267309
-0.0281673
-0.0454971
-0.04599
-0.0471072
-0.0573702
-0.0560725
-0.0617695
-0.0535683
-0.0550258
-0.055548
-0.0568728
-0.0637685
-0.0764383
-0.0715299
-0.0811618
-0.0758781
-0.0782366
-0.0771949
-0.0796363
-0.0214314
-0.0398198
-0.0437885
-0.0562905
-0.0326716
-0.0383056
-0.0431903
-0.0461803
-0.0233917
-0.0588853
-0.0508112
-0.0415315
-0.033265
-0.047381
-0.041383
-0.0470088
-0.0485953
-0.0511247
-0.0723966
-0.0705393
-0.0491948
-0.0531164
-0.0602657
-0.0686212
-0.0498044
-0.0718073
-0.0727366
-0.0594526
-0.0591218
-0.0623937
-0.0591296
-0.0638585
-0.0308828
-0.0656035
-0.0780504
-0.0711523
-0.0501134
-0.0649753
-0.0652385
-0.078561
-0.0780889
-0.0729264
-0.10215
-0.072609
-0.0771825
-0.0837799
-0.0816838
-0.0833059
-0.132584
-0.147808
-0.202821
-0.15677
-0.150687
-0.164632
-0.173859
-0.176603
-0.0888689
-0.0804947
-0.125379
-0.0895442
-0.0884128
-0.0913883
-0.0996814
-0.0976163
-0.07363
-0.0907169
-0.081458
-0.0797541
-0.087793
-0.0961165
-0.0814795
-0.092007
-0.0842496
-0.0862258
-0.114309
-0.10265
-0.0952912
-0.100278
-0.114112
-0.107853
-0.110532
-0.0983598
-0.087892
-0.137829
-0.111774
-0.104133
-0.119612
-0.107952
-0.122445
-0.135155
-0.0892993
-0.116468
-0.138478
-0.125775
-0.120313
-0.109958
-0.250595
-0.152726
-0.0936975
-0.167741
-0.163467
-0.145375
-0.153414
-0.136375
-0.130091
-0.213587
-0.0948754
-0.153398
-0.168232
-0.153345
-0.165569
-0.142527
-0.060466
-0.0580987
-0.025737
-0.0693325
-0.060058
-0.0517607
-0.0549398
-0.0414167
-0.142365
-0.134603
-0.114463
-0.111113
-0.12058
-0.129666
-0.115299
-0.113595
-0.135186
-0.104287
-0.135697
-0.138087
-0.130157
-0.140202
-0.144724
-0.14039
-0.126
-0.146237
-0.0815113
-0.077578
-0.117407
-0.141998
-0.0951132
-0.0953944
-0.0963583
-0.130596
-0.13236
-0.110411
-0.130845
-0.126294
-0.111203
-0.123586
-0.0791116
-0.0949018
-0.127241
-0.0666902
-0.0914956
-0.103033
-0.0927804
-0.105547
-0.00726617
-0.00653575
-0.0217747
-0.0145611
-0.00760819
-0.00899569
-0.0139049
-0.0148389
-0.00576413
-0.00563667
-0.0149757
-0.0131671
-0.00763976
-0.00927471
-0.0134996
-0.0130903
-0.0337259
-0.0285124
-0.0424281
-0.0358482
-0.0341425
-0.0346718
-0.0377758
-0.0373523
-0.0215962
-0.0212126
-0.0323816
-0.0300527
-0.0246389
-0.0247569
-0.0290727
-0.028994
-0.00680648
-0.0223137
-0.0171921
-0.0173501
-0.0117595
-0.0164194
-0.0137023
-0.0178252
-0.00860346
-0.0183405
-0.021165
-0.0231592
-0.0118363
-0.0149874
-0.0204794
-0.019595
-0.0281881
-0.0213111
-0.0210184
-0.0323313
-0.0265569
-0.0214317
-0.0287019
-0.0226698
-0.0286007
-0.0319002
-0.0204045
-0.0254455
-0.0269662
-0.02888
-0.0261451
-0.0248861
0.084447
0.0479133
0.0611987
0.0144753
0.0573762
0.0635669
0.0454453
0.0529752
0.0222095
0.00831254
0.0192591
-0.0117724
0.0123824
0.0130956
0.0116236
0.0129511
-0.00528898
-0.0061207
-0.162322
-0.0823717
-0.0300325
-0.0214642
-0.0872233
-0.0747223
-0.0392133
-0.0374799
-0.0667396
-0.0617311
-0.0525165
-0.0465855
-0.0639439
-0.0587908
0.0341707
0.0278786
-0.0171514
-0.0170451
0.030303
0.0271821
-0.0100454
-0.00949579
0.0358715
-0.0120909
0.0199941
0.0376294
0.0324262
0.0140772
0.0318485
0.0165477
-0.00656427
-0.0299451
-0.0296685
-0.0694001
-0.0298421
-0.024935
-0.0494904
-0.0367317
0.00345278
-0.0611081
-0.0262935
-0.00105694
-0.015836
-0.0440069
-0.00598719
-0.0283606
-0.0296064
-0.0310872
-0.0289067
-0.0301824
-0.0299258
-0.0298225
-0.029874
-0.0296506
-0.0353494
-0.0448169
-0.0368744
-0.037058
-0.0367421
-0.0396023
-0.0364816
-0.0393273
-0.0277331
-0.0294326
-0.0261551
-0.0289257
-0.0280322
-0.0273513
-0.0279753
-0.0271126
-0.031215
-0.0338589
-0.0312746
-0.0324875
-0.0322951
-0.0328141
-0.0321431
-0.0326005
-0.0317798
-0.0291845
-0.0308795
-0.0335447
-0.0316431
-0.0302166
-0.0323255
-0.0311151
-0.0323472
-0.03531
-0.032274
-0.0290325
-0.0318919
-0.0339309
-0.030444
-0.0316463
-0.029142
-0.0307369
-0.0332422
-0.0304443
-0.0298111
-0.0309664
-0.0306769
-0.0319656
-0.0288216
-0.0307079
-0.0349293
-0.0318458
-0.0295133
-0.0309644
-0.0312447
-0.0331723
-0.00749174
-0.0281746
-0.00766209
-0.0236354
-0.020388
-0.0224565
-0.0175233
-0.0227854
-0.0468195
-0.0558975
-0.0556797
-0.0591656
-0.0540638
-0.0575075
-0.0545839
-0.0603933
-0.00905352
-0.0450236
-0.0143425
-0.037756
-0.0293382
-0.0337836
-0.0266239
-0.0322405
-0.0439185
-0.0609785
-0.0523576
-0.0630132
-0.0574726
-0.0616432
-0.0574999
-0.0652232
-0.0426079
-0.0239031
-0.038286
-0.0544267
-0.0401044
-0.0291498
-0.0454388
-0.0430514
-0.0452299
-0.0598478
-0.0527983
-0.0278329
-0.0457811
-0.0537431
-0.0360114
-0.0499117
-0.0201904
-0.0376833
-0.0542641
-0.0392568
-0.0282833
-0.0421406
-0.0448676
-0.0521705
-0.0261667
-0.0475935
-0.0632863
-0.0533455
-0.0378389
-0.0485681
-0.0487811
-0.0594705
0.00182635
0.00407917
-0.0167064
-0.0152468
-0.000683897
-0.00233879
-0.0113991
-0.0166534
-0.0174848
-0.199913
-0.106557
-0.103419
-0.0788056
-0.0676795
-0.0707611
-0.110445
-0.0468311
-0.0630862
-0.0629577
-0.0635743
-0.0580805
-0.0647708
-0.0584773
-0.0675581
-0.0310547
-0.0692086
-0.05376
-0.051419
-0.0439976
-0.0482714
-0.0473382
-0.0650945
-0.0107898
-0.0276133
-0.0209276
-0.0523787
-0.0258025
-0.0186531
-0.0325719
-0.0221384
-0.0181421
-0.0626201
-0.0756734
-0.0329607
-0.041553
-0.056978
-0.0419689
-0.0668727
-0.0364884
-0.0270529
-0.0598703
-0.049348
-0.0383963
-0.0391569
-0.0465633
-0.0416055
-0.0457561
-0.0640841
-0.0822651
-0.0757321
-0.0481587
-0.0495409
-0.05756
-0.0717461
0.00482691
0.0132849
0.0158447
-0.0128094
0.00270879
0.0142296
0.00130391
0.0116623
0.0250099
0.044853
0.0394673
-0.00297776
0.0233925
0.0415476
0.0197565
0.0355737
-0.00655842
-0.00923425
-0.148736
-0.0910956
-0.0323608
-0.0384564
-0.0724455
-0.0863494
-0.0407598
-0.0428479
-0.0681929
-0.0609236
-0.0455447
-0.0499547
-0.0569677
-0.0621272
0.0112997
0.00904961
-0.0193546
-0.0184111
0.00910262
0.00520866
-0.00601776
-0.012893
0.0255814
-0.0106533
0.0267917
0.0184423
0.0214131
0.0131168
0.0265688
0.0125748
-0.0102808
-0.0269922
-0.0288378
-0.0608909
-0.030908
-0.025216
-0.0412334
-0.0340124
-0.000828901
-0.0702129
-0.0299222
-0.00210882
-0.0163884
-0.0494968
-0.00751608
-0.0356608
-0.0292999
-0.0286482
-0.0286711
-0.0298956
-0.0292203
-0.0288062
-0.0294081
-0.0288523
-0.0273831
-0.0262065
-0.0264086
-0.0283938
-0.0271449
-0.026514
-0.0273141
-0.0265179
-0.0272505
-0.026137
-0.0255734
-0.0284948
-0.0267304
-0.0260303
-0.026565
-0.0257963
-0.034212
-0.034124
-0.035324
-0.0442767
-0.0355721
-0.0342941
-0.03919
-0.0372733
-0.0285474
-0.0283548
-0.0304101
-0.0297575
-0.0287747
-0.0289921
-0.0291779
-0.0294457
-0.0279246
-0.0284919
-0.0265156
-0.0278805
-0.0278997
-0.0275308
-0.0277648
-0.0271632
-0.0284539
-0.0316293
-0.0313095
-0.0313996
-0.0295843
-0.0300761
-0.0300016
-0.0314014
-0.0276996
-0.0297871
-0.0296516
-0.0264385
-0.0272907
-0.0285428
-0.0271895
-0.0285579
-0.015668
-0.0425243
-0.0172376
-0.0444519
-0.0294968
-0.0295358
-0.0318439
-0.0318278
-0.0861738
-0.186585
-0.100428
-0.133534
-0.128364
-0.128871
-0.128818
-0.136163
-0.0175332
-0.0583713
-0.0229607
-0.0578651
-0.0412538
-0.0373369
-0.0447089
-0.0421681
-0.0702002
-0.0940307
-0.0722541
-0.0709744
-0.0739864
-0.0777878
-0.0730411
-0.0762109
-0.0629826
-0.0351564
-0.0566445
-0.104084
-0.0638643
-0.0479473
-0.0792202
-0.0582696
-0.0626181
-0.111149
-0.0763548
-0.0261403
-0.0667787
-0.0914143
-0.0457813
-0.0798031
-0.0390424
-0.0588192
-0.100967
-0.0719724
-0.0502895
-0.059015
-0.0707082
-0.0783028
-0.031699
-0.0713861
-0.111725
-0.0817445
-0.0497958
-0.0692851
-0.0810591
-0.0961998
-0.0144681
-0.0311675
-0.0106588
-0.0371856
-0.0253065
-0.025305
-0.0187171
-0.0200996
-0.0465758
-0.0558299
-0.0490067
-0.060083
-0.050908
-0.0504248
-0.0515756
-0.0504622
-0.0118623
-0.0330573
-0.0128074
-0.0357714
-0.0224148
-0.0226129
-0.0227434
-0.0221288
-0.0637491
-0.0685143
-0.0600004
-0.0790163
-0.073286
-0.0714097
-0.0696941
-0.06841
-0.0416846
-0.0223206
-0.0486008
-0.0610292
-0.0400379
-0.0328786
-0.0481208
-0.0474979
-0.0416326
-0.0596088
-0.0415146
-0.0229066
-0.039256
-0.048773
-0.0347957
-0.0419406
-0.0197295
-0.0437277
-0.0598829
-0.0473221
-0.0322077
-0.0436753
-0.0478744
-0.0560302
-0.0202717
-0.0462733
-0.0589997
-0.0397925
-0.0324076
-0.0463524
-0.0407323
-0.0524959
-0.00217407
-0.0026554
-0.0025428
-0.0102299
-0.00620911
-0.00288806
-0.00934924
-0.00568824
-0.00288875
-0.00262429
-0.00245597
-0.0118946
-0.00560783
-0.00233725
-0.00776906
-0.00384945
-0.00207577
-0.00225919
-0.00196681
-0.0104197
-0.00462556
-0.00219716
-0.00585514
-0.00395677
-0.0180383
-0.0205124
-0.0171986
-0.0268535
-0.0223615
-0.0192233
-0.02363
-0.0219187
-0.0057152
-0.00498668
-0.0143399
-0.0142165
-0.00760617
-0.00810128
-0.0118487
-0.0112905
-0.00266842
-0.0105324
-0.00245402
-0.00200113
-0.00451538
-0.00793949
-0.0024268
-0.00523437
-0.0061535
-0.0160481
-0.016649
-0.0144633
-0.0101194
-0.0138526
-0.01373
-0.0172884
-0.00412137
-0.012652
-0.0133429
-0.00372708
-0.00696618
-0.0107553
-0.00652296
-0.0112766
-0.138057
-0.105855
-0.0187404
-0.0963902
-0.0861751
-0.119467
-0.0878281
-0.0906738
-0.0529504
-0.0474111
-0.0264109
-0.0518032
-0.0556303
-0.0517302
-0.0527937
-0.0453835
0.0396773
0.00651068
0.0475976
0.00977689
0.0293925
0.0226773
0.0273832
0.0262117
-0.059956
-0.0513349
-0.0197873
-0.0470276
-0.0540933
-0.0506922
-0.0493642
-0.0421125
-0.0766054
-0.0214295
-0.0663556
-0.0522578
-0.063596
-0.0684692
-0.0619408
-0.0620462
-0.0742948
-0.0536548
-0.0223988
-0.0209207
-0.0616033
-0.0493794
-0.0267465
-0.0259795
-0.0157056
-0.0645986
-0.046318
-0.0150055
-0.0201151
-0.052314
-0.0192975
-0.0426219
-0.00754013
-0.0129959
-0.0461734
-0.0190175
-0.0112954
-0.0213828
-0.022733
-0.0268491
0.00563156
-0.0147007
0.021228
-0.00261327
0.00175723
0.00155678
0.00789864
0.00741963
-0.0382507
-0.0603826
-0.036351
-0.0685508
-0.0562212
-0.0582042
-0.0554906
-0.0574474
0.0458585
0.0140975
0.0785395
0.0310741
0.039558
0.040096
0.0519098
0.051521
-0.0334227
-0.0736204
-0.0368295
-0.0841068
-0.0532763
-0.0549834
-0.0599695
-0.0617224
-0.0240783
0.0174546
-0.0133746
-0.0523906
-0.0226933
-0.000559956
-0.0390616
-0.0150798
-0.0244085
-0.0528173
-0.0230838
0.0165829
-0.0252859
-0.0380424
-0.0117997
-0.0216614
0.0258174
-0.00987831
-0.0607252
-0.00198827
0.00659548
-0.0113109
-0.00443484
-0.0359349
0.0261497
-0.00403597
-0.0624689
-0.0217578
0.0101686
-0.00745807
-0.0185384
-0.0371696
-0.0151414
-0.0343083
-0.0260708
-0.0387318
-0.0249698
-0.0287224
-0.0268465
-0.0306417
-0.0490931
-0.0535923
-0.0466286
-0.0598589
-0.0530361
-0.0495641
-0.0537781
-0.0509206
-0.0312468
-0.0412186
-0.0355281
-0.0445449
-0.0395512
-0.0378375
-0.0406582
-0.0397793
-0.0619399
-0.0679301
-0.0565321
-0.0781283
-0.0709748
-0.0659582
-0.0694848
-0.0667629
-0.0438585
-0.0358117
-0.0481027
-0.0608382
-0.0447182
-0.0397525
-0.0543184
-0.0478724
-0.0438905
-0.0567098
-0.0437453
-0.0350058
-0.0450912
-0.0501914
-0.0402231
-0.0456389
-0.0366168
-0.04771
-0.0611355
-0.0523834
-0.040982
-0.0489575
-0.0521511
-0.0564761
-0.036086
-0.0515137
-0.0574446
-0.0450592
-0.0429506
-0.0491428
-0.047619
-0.0515502
-0.214611
-0.0944481
-0.0433305
-0.0882026
-0.137074
-0.113707
-0.108733
-0.0871213
-0.0663259
-0.0690602
-0.0547997
-0.065647
-0.0759047
-0.0678064
-0.0679104
-0.0625236
0.0201149
-0.0199988
0.0452159
-0.00733
0.00308494
0.0110969
0.0134831
0.0212601
-0.0807412
-0.0721542
-0.050242
-0.0779501
-0.0842713
-0.0782377
-0.0768573
-0.0704078
-0.0984836
-0.0480144
-0.100375
-0.0800534
-0.0906757
-0.0793593
-0.0760758
-0.0887833
-0.084932
-0.0722453
-0.0392295
-0.0310991
-0.0729968
-0.0631892
-0.0486683
-0.0504008
-0.0300733
-0.0900714
-0.0745513
-0.0417671
-0.0502392
-0.0771075
-0.0509872
-0.0721367
-0.0131702
-0.0305099
-0.0657333
-0.0316132
-0.0301924
-0.0399535
-0.0389872
-0.0513016
-0.0147409
-0.0422316
-0.0188234
-0.0444018
-0.0268214
-0.0278829
-0.0338013
-0.034659
-0.0639868
-0.0650805
-0.0676822
-0.0724291
-0.0687042
-0.0694675
-0.0757001
-0.076921
-0.0186319
-0.0535384
-0.0240259
-0.0619216
-0.04334
-0.0438688
-0.0480786
-0.0486803
-0.0638051
-0.0774466
-0.083745
-0.0813539
-0.0743712
-0.0771532
-0.0811805
-0.0830329
-0.0541349
-0.036182
-0.0523739
-0.0722264
-0.0591514
-0.0483763
-0.0614414
-0.0548577
-0.0552005
-0.0741604
-0.0670275
-0.036757
-0.0613165
-0.0717831
-0.046636
-0.0653814
-0.0374512
-0.0582004
-0.0794804
-0.0772603
-0.0539486
-0.0601029
-0.0666154
-0.0716665
-0.0379397
-0.078363
-0.0808399
-0.0734029
-0.0572202
-0.0701474
-0.0715866
-0.0742521
-0.00434715
-0.00377632
-0.0130526
-0.0126125
-0.00583065
-0.0058687
-0.00883199
-0.00943488
-0.0042806
-0.00422255
-0.0153594
-0.0124182
-0.00709662
-0.00672152
-0.0111551
-0.0131649
-0.0214071
-0.0232676
-0.0300258
-0.0275379
-0.0235797
-0.0243079
-0.0266307
-0.0274282
-0.020286
-0.0211208
-0.0273294
-0.0291863
-0.023039
-0.02227
-0.0261856
-0.0266518
-0.00609305
-0.0147791
-0.0135493
-0.0151574
-0.00969173
-0.0119856
-0.012113
-0.0141334
-0.00609382
-0.0135768
-0.0160696
-0.0152727
-0.0116634
-0.0136085
-0.013628
-0.0158747
-0.0179909
-0.01729
-0.0184702
-0.025591
-0.0205278
-0.0175225
-0.0221533
-0.020467
-0.0182932
-0.0257424
-0.0196804
-0.0213489
-0.0212114
-0.0228086
-0.0199722
-0.0212954
-0.0150685
-0.0271704
-0.00680895
-0.0221304
-0.0190816
-0.0193147
-0.0155052
-0.0148995
-0.0428832
-0.0519746
-0.0451638
-0.0594048
-0.0486281
-0.0490392
-0.0514588
-0.0529599
0.00804501
-0.0163594
0.0285474
-0.00839347
0.00253644
0.00293876
0.00757637
0.00770585
-0.043919
-0.0680228
-0.0462393
-0.0709533
-0.0538621
-0.055403
-0.0565648
-0.0579348
-0.0343656
-0.0096701
-0.0290211
-0.0505559
-0.033822
-0.0213794
-0.0439333
-0.0303276
-0.0349765
-0.0510387
-0.0345865
-0.00953312
-0.0350134
-0.0426409
-0.0241568
-0.0338936
-0.00556144
-0.0277343
-0.0600254
-0.0301698
-0.016231
-0.0285867
-0.0273532
-0.045606
-0.00459501
-0.0309634
-0.0614032
-0.0359423
-0.0165758
-0.0290988
-0.0339941
-0.0462458
0.00966952
0.0259142
0.0238316
0.0177044
0.017444
0.0214724
0.0192856
0.0239056
0.0537011
0.0946613
0.0906798
0.0796956
0.0776447
0.0821492
0.0760267
0.079835
0.0185776
0.0348241
-0.090674
0.0264309
0.0414666
0.0232368
0.00844743
-0.0161177
0.0321772
0.0663944
0.0637833
0.0588902
0.0483583
0.0556271
0.0542983
0.0587588
0.0401372
0.0394698
0.0294837
0.0601487
0.0421056
0.0343755
0.0414422
0.03483
0.0445619
0.0659062
0.0746764
0.0423385
0.0463764
0.0601113
0.0447536
0.0767604
0.0347151
0.0334723
0.0622339
0.0580307
0.0379489
0.0383447
0.0642285
0.0490528
0.0396769
0.0532375
0.0688795
0.058992
0.0396757
0.0602038
0.0689322
0.0807722
-0.333858
-0.342571
-0.166253
-0.204298
-0.277987
-0.294321
-0.231981
-0.206882
-0.34048
-0.362637
-0.15996
-0.199568
-0.267538
-0.291598
-0.21265
-0.202315
-0.0809431
-0.0677043
-0.0290059
-0.0848415
-0.0792986
-0.0604151
-0.0741062
-0.0605001
-0.155907
-0.144049
-0.116722
-0.128132
-0.138126
-0.137317
-0.133452
-0.12208
-0.271033
-0.159871
-0.179039
-0.178972
-0.227869
-0.203594
-0.197318
-0.186829
-0.296823
-0.182061
-0.12983
-0.129329
-0.204891
-0.198744
-0.163944
-0.157165
-0.130916
-0.165475
-0.163294
-0.118276
-0.141211
-0.158879
-0.128111
-0.149901
-0.112488
-0.106074
-0.156738
-0.121218
-0.115244
-0.126222
-0.129252
-0.133396
-0.262614
-0.262326
-0.0360083
-0.14477
-0.209175
-0.132092
-0.113325
-0.0878113
-0.319108
-0.334266
-0.038437
-0.160212
-0.267311
-0.178412
-0.139101
-0.0888942
0.0514434
0.0610548
0.0767958
-0.00838
0.0472511
0.0822032
0.0428226
0.0761931
-0.116283
-0.119198
-0.0834723
-0.102997
-0.111645
-0.105339
-0.102741
-0.100912
-0.247703
-0.0482901
-0.127819
-0.13351
-0.139412
-0.103324
-0.137976
-0.122181
-0.160057
-0.129615
0.022102
0.0129761
-0.090035
-0.10559
-0.0293158
-0.0525144
-0.0124773
-0.117529
-0.118797
-0.0493974
-0.0753086
-0.10827
-0.0784399
-0.106048
0.0314743
-0.0250588
-0.118844
0.026571
0.0127788
-0.0417756
-0.00233223
-0.094376
-0.0155695
-0.0116373
-0.0418053
-0.0451558
-0.0236862
-0.0238381
-0.0381002
-0.0380629
-0.0115386
-0.0116268
-0.038214
-0.0369814
-0.0181874
-0.0182175
-0.031321
-0.031322
-0.063066
-0.0597424
-0.0644697
-0.0702547
-0.0665061
-0.0645427
-0.0689441
-0.0675179
-0.0630342
-0.0613738
-0.0755227
-0.0788382
-0.067087
-0.0642413
-0.0775312
-0.0758696
-0.0194982
-0.0480007
-0.0494628
-0.0456663
-0.0354607
-0.0411877
-0.0400916
-0.0481227
-0.0198849
-0.0441218