/*--------------------------------*- C++ -*----------------------------------*\
| =========                 |                                                 |
| \\      /  F ield         | OpenFOAM: The Open Source CFD Toolbox           |
|  \\    /   O peration     | Version:  2506                                  |
|   \\  /    A nd           | Website:  www.openfoam.com                      |
|    \\/     M anipulation  |                                                 |
\*---------------------------------------------------------------------------*/
FoamFile
{
    version     2.0;
    format      ascii;
    arch        "LSB;label=32;scalar=64";
    class       surfaceScalarField;
    location    "1300";
    object      phi;
}
// * * * * * * * * * * * * * * * * * * * * * * * * * * * * * * * * * * * * * //

dimensions      [0 3 -1 0 0 0 0];

oriented        oriented;

internalField   nonuniform List<scalar> 
110688
(
-1.6773e-06
1.08246e-06
-3.15063e-08
6.26349e-07
-7.36619e-08
-1.84792e-06
1.18056e-06
7.41028e-07
1.10909e-06
-1.74503e-06
2.07513e-08
6.15189e-07
6.48325e-07
-1.73856e-06
1.10861e-06
-1.83711e-08
-1.06617e-06
-1.71806e-06
1.10692e-06
-1.77069e-06
6.3086e-07
-1.055e-06
-1.47291e-08
-1.7166e-06
-2.1759e-06
-3.39992e-08
1.33855e-06
8.71347e-07
9.29394e-08
1.47599e-06
-2.50446e-06
9.35528e-07
1.17548e-06
2.15297e-08
-2.0328e-06
8.35786e-07
8.59544e-07
3.86544e-08
1.31906e-06
-2.21725e-06
-1.42858e-06
-2.14647e-06
1.39915e-06
-2.23422e-06
8.98584e-07
-1.29279e-06
5.86629e-09
-2.35153e-06
-1.78953e-06
1.08176e-06
7.34758e-08
6.34294e-07
8.68331e-08
1.08208e-06
-1.80438e-06
6.35466e-07
1.04727e-06
7.18036e-08
-1.73206e-06
6.12987e-07
6.1649e-07
1.0401e-06
8.48211e-08
-1.74141e-06
-1.16489e-06
-1.70139e-06
1.07676e-06
-1.70962e-06
6.31561e-07
-1.15224e-06
6.73383e-08
-1.81459e-06
-1.79314e-06
6.68773e-07
1.10992e-06
1.44471e-08
4.11669e-08
7.23494e-07
1.15567e-06
-1.92033e-06
1.06409e-06
6.46e-07
6.86953e-08
-1.77879e-06
6.81597e-07
1.04385e-06
6.91315e-08
-1.79458e-06
-1.14214e-06
-1.75117e-06
1.10017e-06
-1.76063e-06
6.59655e-07
-1.12255e-06
5.2985e-08
-1.81908e-06
-1.92418e-06
-1.14017e-06
1.21642e-06
1.11408e-06
-1.12831e-06
-1.7308e-06
-1.09416e-06
-1.76326e-06
1.11886e-06
1.97037e-06
-1.25019e-06
-1.92728e-06
1.2071e-06
-6.28305e-08
-7.50091e-07
-1.11126e-06
-6.65349e-07
-2.78511e-08
1.24813e-06
-1.78736e-06
-1.93306e-06
7.58898e-07
7.58707e-07
-1.97024e-06
1.17717e-06
-1.90258e-06
7.46946e-07
-4.45435e-08
-1.7234e-06
6.39638e-07
-1.91772e-06
-1.1266e-06
-1.15315e-06
-1.88516e-06
7.14021e-07
-1.86115e-06
-6.32681e-07
-1.10971e-06
1.15863e-08
-1.10029e-06
5.80681e-09
3.29438e-08
-1.23673e-06
1.73187e-06
-1.13006e-06
4.41945e-08
1.09908e-06
-1.75945e-06
2.7687e-08
-1.78858e-06
1.09598e-06
-1.12356e-06
-1.75136e-06
1.7119e-06
-1.80186e-06
-1.12573e-06
-2.08124e-06
1.22481e-06
-2.04531e-06
-6.34938e-07
-3.96593e-08
-4.65982e-08
-6.76e-07
-1.84833e-06
1.62699e-06
-9.65539e-07
-5.76931e-07
-8.45159e-08
-9.90912e-07
1.65608e-06
-5.8896e-07
-7.62119e-08
-3.74781e-08
1.66171e-06
-1.01928e-06
-6.04953e-07
-5.94154e-07
1.6625e-06
-9.89071e-07
-7.92767e-08
1.0529e-06
6.56463e-07
-8.23799e-08
6.53631e-07
-5.91639e-07
1.04387e-06
-9.81561e-07
1.66002e-06
1.69207e-06
-1.00199e-06
-5.99831e-07
-9.02481e-08
-9.80338e-07
1.72979e-06
-6.20242e-07
-1.29212e-07
-1.10098e-07
-1.02458e-06
1.78459e-06
-6.49915e-07
-5.95e-07
-1.02213e-06
1.73803e-06
-1.20899e-07
1.09331e-06
7.01272e-07
-1.02513e-07
7.46596e-07
-6.33621e-07
1.13324e-06
-1.02697e-06
1.76974e-06
1.79587e-06
3.65308e-08
-1.16515e-06
-6.67252e-07
-1.16019e-06
6.31986e-10
1.9097e-06
-7.50144e-07
1.95222e-07
-1.72539e-06
2.44981e-06
-9.19644e-07
-8.11097e-07
-2.76981e-08
-1.29563e-06
2.13443e-06
1.12029e-06
6.4544e-07
3.01413e-08
6.98503e-07
-7.38397e-07
1.25542e-06
-1.42108e-06
2.14915e-06
1.71125e-06
-6.0481e-07
-1.01064e-06
-9.57938e-08
-1.00586e-06
-6.32551e-07
1.77321e-06
-1.34799e-07
-1.00325e-07
-6.36568e-07
-1.14668e-06
1.88358e-06
-5.88543e-07
-1.08977e-06
1.81162e-06
-1.33305e-07
1.12039e-06
6.94907e-07
-1.04048e-07
7.30291e-07
-6.15764e-07
1.20581e-06
-1.09945e-06
1.83578e-06
6.65878e-07
1.07219e-06
-8.19865e-08
-3.73059e-08
1.07353e-06
6.25488e-07
1.08146e-06
6.6439e-07
-8.33521e-08
-1.71118e-06
1.10975e-06
7.08171e-07
-1.06741e-07
-1.01391e-06
6.07219e-07
1.07257e-06
6.08809e-07
-1.01274e-06
-9.12225e-08
6.77537e-07
6.82154e-07
-6.11955e-07
-6.23916e-07
7.11534e-07
-1.10771e-06
7.42993e-07
-6.59859e-07
1.06313e-06
6.49887e-07
-6.39484e-07
1.71018e-06
4.45392e-08
5.9293e-08
1.73516e-06
-6.27486e-07
6.86738e-07
6.40939e-07
1.08409e-06
-1.09954e-06
1.09788e-06
-1.0383e-06
-1.03552e-06
1.11114e-06
-6.95909e-07
1.25649e-06
-1.19715e-06
-5.40578e-08
1.75177e-06
-1.05678e-06
1.72136e-06
-7.00786e-08
1.12594e-06
1.77051e-06
-7.30517e-07
1.95931e-06
5.72158e-08
1.76546e-06
-1.11819e-06
1.86182e-06
6.74411e-07
1.12624e-06
1.06984e-06
6.94789e-07
1.82184e-06
-1.42386e-07
5.61308e-07
6.63539e-07
-1.12274e-06
-1.38202e-07
5.5841e-07
7.0253e-07
5.95053e-07
-1.70979e-07
7.56482e-07
6.83567e-07
-1.6138e-07
5.86422e-07
5.36314e-07
-1.24318e-06
5.64483e-07
-1.29551e-06
7.09085e-07
5.47304e-07
-1.53151e-07
-1.16665e-07
-1.17416e-06
5.48509e-07
7.4232e-07
-1.21149e-06
-5.5961e-08
5.22109e-07
7.45341e-07
5.27433e-07
-1.27416e-06
-6.40343e-08
8.10764e-07
7.7144e-07
-1.17998e-06
-1.29405e-07
5.37942e-07
6.64602e-07
-1.34352e-06
5.62255e-07
-1.29873e-06
7.51838e-07
7.07152e-07
-1.27923e-06
-6.41409e-08
-2.06063e-07
6.79002e-07
8.65615e-07
-1.34962e-06
5.42424e-07
-8.39776e-08
8.91177e-07
6.25912e-07
-8.37766e-08
9.33858e-07
8.86363e-07
6.8875e-07
-2.56056e-07
6.97854e-07
-1.61171e-06
7.0779e-07
-1.52266e-06
8.70891e-07
6.73801e-07
-2.22947e-07
-1.98738e-07
7.00342e-07
6.08312e-07
-1.12585e-06
7.5128e-07
-2.06615e-07
5.81182e-07
6.34701e-07
7.6073e-07
-2.39762e-07
7.05197e-07
-2.67685e-07
6.06343e-07
5.06186e-07
-1.31263e-06
6.07703e-07
-1.35631e-06
7.36652e-07
4.92736e-07
-2.28876e-07
-1.29847e-06
5.82351e-07
5.77922e-07
6.12085e-07
5.9233e-07
-1.37539e-06
5.34578e-07
-1.2766e-06
5.80637e-07
1.49035e-07
6.02289e-07
-1.34143e-06
5.90105e-07
-1.18833e-06
-7.22097e-07
6.11956e-07
-7.294e-07
-1.15297e-06
5.79912e-07
-1.3478e-06
-1.32967e-06
7.37859e-07
7.79036e-07
-1.35672e-06
-7.184e-07
-1.38617e-06
8.30412e-07
1.2534e-06
-1.45046e-06
7.89387e-07
-1.23007e-07
-5.94708e-07
-6.23205e-07
-1.27503e-07
7.86194e-07
-1.46911e-06
-7.69182e-07
6.10212e-07
5.42604e-07
-1.20238e-06
6.12233e-07
1.40229e-06
5.65543e-07
6.41363e-07
-1.62417e-07
-1.63829e-07
6.29559e-07
6.10311e-07
-1.61244e-07
1.49032e-06
-2.36024e-07
-5.92775e-07
-1.51716e-07
-7.36381e-07
-1.07369e-07
-8.30657e-07
1.3772e-06
1.26997e-06
-8.28286e-07
-1.5109e-07
5.45921e-08
1.61257e-06
-2.49321e-06
8.2605e-07
1.33171e-06
7.45235e-08
-2.12812e-06
7.21883e-07
-2.2343e-06
-6.9566e-08
1.46213e-06
8.41735e-07
8.15531e-07
5.03519e-08
1.31057e-06
-2.17645e-06
8.57949e-07
1.56511e-06
-2.36846e-06
1.38033e-06
8.09326e-07
8.20969e-07
1.55967e-06
-3.29972e-08
9.44224e-08
1.10428e-06
-1.84443e-06
6.45726e-07
1.0726e-06
8.28131e-08
-1.74125e-06
5.8584e-07
-1.77319e-06
1.10132e-06
6.90721e-08
6.02805e-07
5.94907e-07
1.03864e-06
6.59283e-08
-1.69948e-06
7.1868e-07
1.18144e-06
-1.8057e-06
1.17104e-06
6.20242e-07
6.81335e-07
1.09501e-06
7.91779e-08
-4.58071e-08
-1.82939e-06
1.19506e-06
6.80138e-07
1.10157e-06
-1.72727e-06
2.42111e-08
6.01491e-07
-1.6585e-06
1.07757e-06
-1.74921e-08
5.98423e-07
6.09547e-07
-1.72467e-06
1.12936e-06
-1.42339e-08
5.93653e-07
1.08581e-06
-1.72527e-06
1.07916e-06
6.16062e-07
5.68595e-07
1.12677e-06
-1.07492e-08
3.70618e-08
6.8765e-07
1.15423e-06
-1.87895e-06
1.10342e-06
5.93233e-07
5.88841e-08
-1.75554e-06
-1.80835e-06
6.32245e-07
1.15603e-06
2.00735e-08
6.58975e-07
1.06966e-06
7.85831e-08
-1.80722e-06
6.85146e-07
1.17793e-06
-1.82601e-06
1.14979e-06
6.38775e-07
6.85305e-07
1.1516e-06
2.67488e-08
1.32925e-06
8.55058e-07
-2.10978e-06
-1.93105e-06
6.88957e-07
1.17253e-06
8.17411e-07
1.32366e-06
-2.09072e-06
-7.33143e-08
7.01971e-07
1.20436e-06
-1.83301e-06
1.21977e-06
-6.44173e-07
7.53647e-07
-7.44279e-07
1.1703e-06
-1.88779e-06
1.24344e-06
1.24768e-06
7.11658e-07
6.06893e-07
1.13372e-06
-6.49085e-07
1.13425e-06
6.1615e-07
-1.21346e-06
1.184e-06
7.18423e-07
5.67568e-08
1.94457e-06
1.75866e-06
3.89594e-08
6.92149e-07
1.14854e-06
-7.18323e-07
6.1765e-07
1.2732e-06
7.3315e-07
1.27816e-06
1.13051e-06
6.67078e-07
-1.13919e-06
6.04207e-07
1.16723e-06
-1.96666e-06
-9.19042e-09
1.25753e-06
9.92183e-09
-1.77921e-06
6.30826e-07
-2.77395e-08
-1.11453e-06
-5.94062e-09
1.75703e-06
4.37745e-08
-6.22083e-07
2.90678e-08
-6.22472e-07
-1.13054e-06
-1.10617e-06
-6.04085e-07
4.67689e-08
-1.10295e-06
3.95624e-07
6.75816e-07
6.85266e-07
-1.08479e-06
4.20279e-07
1.03842e-08
-1.08112e-06
3.93394e-07
6.77339e-07
4.04205e-07
-1.12841e-06
7.05833e-07
-6.94763e-07
-4.22913e-07
-4.11005e-07
4.01509e-07
-7.10084e-07
6.91376e-07
-1.11071e-06
-1.06148e-06
6.95016e-07
4.39939e-07
6.77874e-07
-1.0507e-06
4.44634e-07
-4.62911e-08
6.80771e-07
-1.06311e-06
4.28629e-07
4.39612e-07
6.9095e-07
-1.04574e-06
-6.19634e-07
-3.74507e-07
-3.7854e-07
4.36781e-07
-6.2747e-07
6.92575e-07
-1.0523e-06
-1.06527e-06
-1.15248e-08
4.07449e-07
6.6935e-07
6.76863e-07
-2.7774e-08
-1.06457e-06
4.1548e-07
-2.51939e-08
-1.06187e-06
4.16008e-07
6.71057e-07
4.19841e-07
-2.42522e-08
-1.08121e-06
6.85622e-07
-6.54294e-07
-3.9386e-07
-1.71199e-08
-3.87886e-07
4.10455e-07
-6.46609e-07
6.7259e-07
-1.05969e-06
-1.12403e-06
4.304e-07
7.08078e-07
6.91921e-07
4.5046e-07
-1.07369e-06
-3.5777e-08
4.34666e-07
-1.10029e-06
7.01397e-07
4.64621e-07
-1.0923e-06
6.96811e-07
-6.56379e-07
-4.14667e-07
-4.04936e-07
4.40478e-07
-6.41829e-07
6.91782e-07
-1.08254e-06
-4.10113e-07
-6.63095e-07
-5.64129e-10
-6.79977e-07
-4.00576e-07
-7.03101e-07
-4.19501e-07
1.10113e-06
-6.51597e-07
-4.05342e-07
6.96656e-07
-4.242e-07
-6.8257e-07
-4.14613e-07
7.04621e-07
-4.13093e-07
-3.84428e-07
4.16349e-07
4.24343e-07
-3.84989e-07
6.50189e-07
-3.89439e-07
4.20022e-07
-6.83048e-07
-3.98265e-07
4.01335e-07
-1.08195e-06
1.49533e-08
3.49666e-08
-1.07804e-06
4.09942e-07
-3.92881e-07
-4.09504e-07
-6.72282e-07
6.8121e-07
-6.87081e-07
6.97979e-07
6.90882e-07
-6.45764e-07
4.03693e-07
-6.60141e-07
6.91113e-07
-3.46324e-09
-1.10233e-06
6.96286e-07
-1.10364e-06
-2.77234e-08
-6.70909e-07
-1.08207e-06
3.98481e-07
-1.08287e-06
3.67159e-08
-1.06747e-06
6.46609e-07
-1.06382e-06
-4.18651e-07
-6.8054e-07
-6.91079e-07
-4.26812e-07
-1.08118e-06
-7.21722e-08
-1.07831e-06
8.16011e-07
3.34468e-07
7.86672e-07
-1.4704e-08
-1.07739e-06
3.05421e-07
-1.02812e-06
-3.86152e-08
7.76582e-07
2.90153e-07
2.83216e-07
-3.64315e-08
-1.0182e-06
7.71417e-07
2.62996e-07
7.57516e-07
-1.09268e-06
7.4325e-07
3.06418e-07
2.45833e-07
7.94899e-07
-3.90368e-08
2.61837e-08
7.48548e-07
-1.02882e-06
2.54086e-07
7.57751e-07
-9.95232e-07
3.66327e-08
2.00848e-07
-9.82737e-07
7.46602e-07
1.40054e-08
2.2213e-07
2.05569e-07
7.8034e-07
-1.02031e-06
3.4401e-08
2.39022e-07
8.25559e-07
-1.0384e-06
7.78548e-07
2.18224e-07
2.27844e-07
8.03285e-07
2.36548e-08
-4.78145e-08
-9.23411e-07
7.12662e-07
2.58564e-07
7.31201e-07
-9.37146e-07
-1.41902e-08
2.20136e-07
-8.93082e-07
7.08831e-07
-3.34876e-08
2.17739e-07
2.0379e-07
-9.32921e-07
7.57295e-07
-2.81636e-08
1.79584e-07
7.20702e-07
-9.48101e-07
6.90512e-07
2.20272e-07
1.79139e-07
7.45352e-07
-2.34301e-08
-1.02156e-08
2.13596e-07
-1.01999e-06
8.16607e-07
7.77059e-07
1.87689e-07
-9.75511e-07
1.07634e-08
-9.71678e-07
1.93387e-07
7.88949e-07
-1.06583e-08
2.05624e-07
-1.00469e-06
7.84681e-07
1.43854e-08
2.0135e-07
8.32626e-07
-1.04419e-06
7.85768e-07
1.92641e-07
1.9995e-07
8.383e-07
1.404e-08
8.10052e-07
2.63803e-07
-1.08856e-06
-9.97978e-07
2.09356e-07
7.50007e-07
2.17288e-07
7.97789e-07
-1.05151e-06
-6.96601e-09
2.22028e-07
8.00324e-07
-1.01539e-06
8.07813e-07
-2.24118e-07
2.26357e-07
-2.29202e-07
7.67276e-07
-9.9836e-07
7.55362e-07
7.46205e-07
2.66145e-07
2.06476e-07
7.95892e-07
-2.09382e-07
7.31061e-07
2.24923e-07
-7.30053e-07
6.68167e-07
2.71242e-07
4.13706e-09
9.68426e-07
1.0139e-06
-2.71621e-08
2.65535e-07
7.77353e-07
-2.27441e-07
2.19555e-07
7.57892e-07
1.82771e-07
8.28613e-07
7.89531e-07
1.98482e-07
-7.52467e-07
1.68279e-07
7.77576e-07
-9.59095e-07
-2.97618e-08
7.61416e-07
-2.09624e-08
-9.61209e-07
1.78981e-07
-3.56894e-08
-7.50668e-07
-1.39737e-08
9.80629e-07
1.37452e-08
-2.01483e-07
-4.60217e-09
-2.03114e-07
-7.80676e-07
-7.74801e-07
-2.04807e-07
1.02145e-09
-2.09004e-07
1.91095e-07
-1.0328e-06
-1.02735e-06
-2.16211e-07
1.80454e-07
1.97531e-07
-2.06114e-07
-1.03716e-06
1.03257e-06
-2.06557e-07
1.96514e-07
-1.02253e-06
8.38218e-07
-1.23407e-06
1.86844e-07
-1.24144e-06
8.31739e-07
-1.03324e-06
-2.12166e-07
-2.22176e-07
-1.01195e-06
1.69555e-07
-1.00385e-06
1.67072e-07
-2.25096e-07
1.65971e-07
-1.02189e-06
-2.25295e-07
1.05686e-06
-1.01365e-06
1.77008e-07
-2.2022e-07
8.39078e-07
-1.22866e-06
1.67406e-07
-1.22446e-06
8.40262e-07
-1.01206e-06
-2.18224e-07
-2.2746e-07
1.99099e-07
-1.04532e-06
-1.05379e-06
1.88831e-07
-2.35325e-07
2.17792e-07
-1.06834e-06
-2.41747e-07
1.05629e-06
2.09262e-07
-1.04051e-06
-2.2504e-07
8.45851e-07
-1.26697e-06
1.93659e-07
-1.29048e-06
8.37684e-07
-1.04836e-06
-2.35006e-07
-2.07834e-07
1.02081e-06
2.02309e-07
-1.01529e-06
-1.01869e-06
1.04013e-06
1.96531e-07
-2.17973e-07
2.08253e-07
1.02922e-06
-1.02165e-06
-2.15824e-07
1.0146e-06
2.07733e-07
-1.01079e-06
-2.11542e-07
8.17489e-07
-1.22022e-06
1.94894e-07
-1.23255e-06
1.03135e-06
8.09079e-07
-1.0147e-06
-2.15219e-07
-1.22889e-06
8.42311e-07
1.70364e-07
1.88701e-07
8.48704e-07
-1.24352e-06
8.25514e-07
-1.22244e-06
1.90369e-07
2.14773e-07
8.31147e-07
-1.22785e-06
1.81933e-07
-1.0158e-06
-1.04606e-06
8.32973e-07
-1.03926e-06
-1.01667e-06
1.85379e-07
-1.23041e-06
-1.23346e-06
1.0535e-06
-1.23601e-06
-8.47749e-07
-1.25701e-06
1.03741e-06
-1.25617e-06
-2.18528e-07
-1.81959e-07
-1.77085e-07
-2.25729e-07
-1.25056e-06
-1.03958e-06
8.35424e-07
-1.03937e-06
8.19956e-07
-1.02159e-06
-1.01324e-06
8.25519e-07
1.23564e-06
8.21636e-07
-1.02806e-06
1.98288e-07
-2.10975e-07
-1.02689e-06
-2.1217e-07
1.94061e-07
8.30609e-07
-2.21647e-07
1.25467e-06
-2.23771e-07
-1.90348e-07
-2.2014e-07
-8.43822e-07
-2.24359e-07
-1.05465e-06
1.02667e-06
1.03062e-06
-1.06772e-06
-2.27443e-07
2.34978e-07
-1.71903e-06
2.53763e-06
-1.05358e-06
1.85274e-06
5.39291e-08
-1.15691e-06
-7.49757e-07
-1.23558e-06
5.10411e-08
1.99354e-06
-8.09005e-07
-6.52014e-07
-3.24699e-08
-1.29105e-06
1.97553e-06
-6.31237e-07
2.14989e-06
-1.28368e-06
2.05226e-06
-8.30757e-07
-7.79617e-07
2.27749e-06
3.70598e-08
-2.82485e-08
1.66971e-06
-1.02121e-06
-6.20249e-07
1.61161e-06
-9.62825e-07
-5.72796e-07
-7.59891e-08
-9.89674e-07
1.64731e-06
-5.89191e-07
-6.84404e-08
-5.8541e-07
1.64936e-06
-1.00062e-06
-6.3337e-08
-6.31379e-07
1.5888e-06
-9.85667e-07
1.55717e-06
-5.76936e-07
-6.34446e-07
1.63783e-06
-6.69512e-08
-6.20039e-08
-1.02304e-06
1.7517e-06
-6.66652e-07
1.6918e-06
-9.93788e-07
-6.18317e-07
-7.96945e-08
-9.70208e-07
1.72477e-06
-6.41989e-07
-1.12568e-07
-6.15447e-07
-9.92574e-07
1.71825e-06
-1.10234e-07
-6.97641e-07
1.64469e-06
-1.00906e-06
1.62161e-06
-6.27455e-07
-7.39238e-07
1.76848e-06
-8.78333e-08
-8.86215e-08
-6.43235e-07
-1.12764e-06
1.8595e-06
1.72726e-06
-6.01402e-07
-1.04823e-06
-7.76332e-08
-1.00974e-06
-6.37774e-07
1.76704e-06
-1.19535e-07
-6.19432e-07
-1.06332e-06
1.79788e-06
-1.15135e-07
-6.95016e-07
1.69944e-06
-1.09305e-06
1.64929e-06
-6.17047e-07
-7.37601e-07
1.81761e-06
-9.80429e-08
1.77073e-06
-6.22953e-07
-1.09385e-06
-1.12444e-06
-6.58232e-07
1.83371e-06
-6.72138e-07
1.79994e-06
-1.16028e-06
3.53028e-08
-6.45446e-07
1.65889e-06
-1.04874e-06
1.77264e-06
6.442e-07
-6.46108e-07
6.85265e-07
1.75884e-06
-1.07934e-06
1.77197e-06
1.69611e-06
-6.49353e-07
-6.01799e-07
1.60572e-06
6.51616e-07
1.59679e-06
-6.011e-07
-1.73637e-06
1.73594e-06
-6.57803e-07
-1.73158e-08
1.06731e-06
1.01872e-06
-3.11783e-08
-6.37874e-07
1.63916e-06
6.5642e-07
-7.75068e-07
1.95236e-06
-7.75213e-07
1.93192e-06
1.71868e-06
-6.61194e-07
-1.65725e-06
-7.36518e-07
1.756e-06
-1.05657e-06
-8.53025e-08
1.79829e-06
-5.9811e-08
-1.04182e-06
-7.00737e-07
-6.21759e-08
-1.63136e-06
-9.77323e-08
1.00523e-06
-6.07104e-08
6.75685e-07
-7.26843e-08
6.30476e-07
-1.70171e-06
-1.70162e-06
6.13134e-07
-8.32551e-08
3.45991e-07
1.87779e-07
-1.42539e-06
8.9162e-07
8.72127e-07
3.46341e-07
1.7544e-07
-1.39391e-06
-1.39942e-06
3.38776e-07
1.78576e-07
8.82067e-07
1.84346e-07
3.48292e-07
-1.40729e-06
8.74652e-07
5.26088e-07
1.22857e-06
-1.40866e-06
1.21912e-06
1.79093e-07
5.21554e-07
8.91357e-07
3.41257e-07
3.4458e-07
8.71065e-07
1.63097e-07
-1.37874e-06
8.77203e-07
1.50844e-07
-1.37226e-06
3.44214e-07
-1.37113e-06
8.74196e-07
1.51774e-07
3.4516e-07
1.49916e-07
8.75728e-07
-1.37438e-06
3.48737e-07
4.97504e-07
1.22113e-06
-1.37406e-06
1.22124e-06
1.53463e-07
4.944e-07
8.76651e-07
3.44514e-07
3.35695e-07
-1.37854e-06
1.685e-07
8.74341e-07
8.70675e-07
-1.36648e-06
1.54151e-07
3.41658e-07
-1.35944e-06
1.55033e-07
8.69037e-07
3.35373e-07
1.52647e-07
-1.36983e-06
8.71998e-07
3.45189e-07
4.93449e-07
1.21215e-06
-1.3699e-06
1.20749e-06
1.56631e-07
4.89305e-07
8.75489e-07
3.37355e-07
3.52067e-07
1.6945e-07
-1.39467e-06
8.73149e-07
8.73795e-07
1.50774e-07
-1.3787e-06
3.5413e-07
-1.37882e-06
1.51958e-07
8.73669e-07
3.53196e-07
1.52806e-07
-1.386e-06
8.7271e-07
3.60485e-07
5.08713e-07
1.23049e-06
-1.38714e-06
1.22726e-06
1.55245e-07
5.05342e-07
8.77954e-07
3.53783e-07
1.22043e-06
5.11314e-07
-1.38541e-06
-1.3878e-06
5.07814e-07
1.21876e-06
5.18147e-07
1.22571e-06
-1.39556e-06
-3.48727e-07
5.02362e-07
1.22491e-06
-1.37854e-06
8.77185e-07
-1.63566e-07
5.06815e-07
-1.69359e-07
8.71416e-07
-1.38371e-06
1.2202e-06
1.21657e-06
1.65812e-07
1.53664e-07
1.22443e-06
-4.97427e-07
1.21557e-06
1.56056e-07
-8.73328e-07
1.21318e-06
1.67959e-07
3.43292e-07
1.38009e-06
1.37361e-06
3.41973e-07
1.64789e-07
1.21815e-06
-1.67895e-07
5.05228e-07
8.81429e-07
5.14288e-07
8.80868e-07
8.75824e-07
4.99859e-07
-1.222e-06
4.96806e-07
8.77153e-07
-1.38738e-06
3.43722e-07
8.75764e-07
3.47111e-07
-1.37818e-06
4.99901e-07
3.39876e-07
-1.21912e-06
3.46091e-07
1.37441e-06
3.49871e-07
-4.92699e-07
3.41782e-07
-1.54021e-07
-8.76003e-07
-8.7324e-07
-1.50549e-07
3.50624e-07
1.7368e-06
1.09012e-06
-2.37025e-06
-4.56679e-07
-2.66259e-06
1.79474e-06
1.08293e-06
-2.15088e-07
1.1477e-06
1.83281e-06
-2.52265e-06
-4.57858e-07
-3.05581e-07
1.31864e-06
8.36768e-07
-1.84982e-06
1.44325e-06
-6.37065e-07
9.30612e-07
-7.67284e-07
-4.52048e-07
1.30692e-06
-2.24957e-06
1.68733e-06
1.82376e-06
-2.70555e-06
1.11796e-06
-2.36172e-07
-2.74702e-06
1.90727e-06
1.15816e-06
-3.18407e-07
1.26717e-06
-2.87317e-06
2.01663e-06
-4.10629e-07
-3.31363e-07
-2.11446e-06
1.51892e-06
9.26902e-07
1.52291e-06
-8.57542e-07
1.1584e-06
-8.75205e-07
-3.48906e-07
1.5436e-06
-2.7325e-06
1.93557e-06
1.91944e-06
1.21554e-06
-2.69825e-06
-4.36738e-07
-2.85785e-06
1.28284e-06
1.98539e-06
-4.10373e-07
1.28951e-06
1.85288e-06
-2.7475e-06
-3.94885e-07
-3.36629e-07
9.52724e-07
1.63309e-06
-2.24918e-06
1.54996e-06
-8.8854e-07
1.25801e-06
-9.02303e-07
-4.05588e-07
1.51186e-06
-2.73702e-06
1.89906e-06
1.25738e-06
-2.23048e-07
7.49377e-07
-1.78371e-06
-1.81245e-06
-2.4458e-07
1.28851e-06
7.68526e-07
7.81169e-07
-2.50427e-07
1.31714e-06
-1.84788e-06
-2.06483e-07
1.13762e-06
7.01614e-07
-1.63275e-06
1.04017e-06
-5.50181e-07
7.67388e-07
-5.36433e-07
-2.35844e-07
1.01341e-06
-1.77008e-06
1.25815e-06
-7.86516e-07
1.48108e-06
1.10018e-06
1.15029e-06
1.47019e-06
-7.87664e-07
1.0614e-06
-5.66289e-07
8.23526e-07
-1.41552e-06
1.16174e-06
-6.19069e-07
8.72842e-07
-2.52929e-06
3.17385e-07
1.42539e-06
3.08333e-07
-1.9488e-06
8.50666e-07
-5.79063e-07
-8.22924e-07
-4.01552e-07
-3.12221e-07
-6.40495e-07
-1.58662e-06
-8.67008e-07
-4.19538e-07
2.70613e-06
-8.04457e-07
-4.31487e-07
1.79942e-06
-1.19696e-06
-1.24531e-06
1.95113e-06
-4.41959e-07
-8.80795e-07
3.19308e-07
1.39435e-06
-2.50132e-06
1.08121e-06
-1.87055e-06
-2.04313e-06
1.17948e-06
6.20316e-07
1.15186e-06
-2.02261e-06
8.80648e-07
1.48337e-06
-2.04471e-06
1.3828e-06
8.96179e-07
1.20751e-06
1.80544e-06
6.24754e-07
1.47983e-06
-9.58508e-07
1.4975e-06
-1.50145e-06
1.91728e-06
3.25421e-07
2.73803e-06
2.15769e-06
3.55785e-07
1.55496e-06
1.79285e-06
1.11223e-06
-2.48374e-06
-4.21335e-07
-2.58547e-06
1.74428e-06
1.05151e-06
-2.10321e-07
1.08189e-06
1.76306e-06
-2.42945e-06
-4.15503e-07
-3.14491e-07
1.38061e-06
8.42721e-07
-1.90884e-06
1.43589e-06
-6.42079e-07
9.99042e-07
-7.21719e-07
-4.27863e-07
1.2815e-06
-2.23807e-06
1.64168e-06
1.74723e-06
-2.58421e-06
1.04584e-06
-2.08855e-07
-2.54263e-06
1.75603e-06
1.09012e-06
-3.03511e-07
1.18378e-06
-2.68965e-06
1.89464e-06
-3.88768e-07
-3.3165e-07
-2.12654e-06
1.52844e-06
9.29748e-07
1.43127e-06
-7.89558e-07
1.10551e-06
-7.92163e-07
-3.19201e-07
1.47611e-06
-2.59731e-06
1.86772e-06
1.84108e-06
1.1495e-06
-2.56626e-06
-4.24315e-07
-2.67739e-06
1.17015e-06
1.90209e-06
-3.94847e-07
1.18652e-06
2.02221e-06
-2.80235e-06
-4.06384e-07
-3.08119e-07
9.64009e-07
1.60972e-06
-2.26561e-06
1.48318e-06
-8.0885e-07
1.16675e-06
-7.97233e-07
-3.96979e-07
1.48119e-06
-2.59816e-06
1.87048e-06
1.2168e-06
-2.34706e-07
7.24162e-07
-1.70626e-06
-1.76455e-06
-2.52574e-07
1.27057e-06
7.46552e-07
7.55956e-07
-2.46964e-07
1.2944e-06
-1.80339e-06
-2.04936e-07
1.15052e-06
6.82659e-07
-1.62824e-06
1.00175e-06
-5.06836e-07
7.21892e-07
-5.16487e-07
-2.4632e-07
1.00713e-06
-1.7189e-06
1.2466e-06
-7.25936e-07
1.43602e-06
1.0342e-06
1.09661e-06
1.41227e-06
-7.45817e-07
1.09839e-06
-5.72149e-07
8.54367e-07
-1.4421e-06
1.17145e-06
-6.20973e-07
8.91628e-07
-2.42899e-06
3.2184e-07
1.38121e-06
3.09298e-07
-1.98558e-06
8.65316e-07
-5.77889e-07
-7.65338e-07
-3.82848e-07
-3.13996e-07
-6.41094e-07
-1.49543e-06
-8.04117e-07
-3.90107e-07
2.57259e-06
-7.56088e-07
-4.04234e-07
1.7509e-06
-1.13503e-06
-1.16041e-06
1.85212e-06
-4.14557e-07
-8.03722e-07
3.1225e-07
1.34357e-06
-2.40164e-06
1.09006e-06
-1.89692e-06
-2.0512e-06
1.17765e-06
6.26802e-07
1.18653e-06
-2.06029e-06
8.83565e-07
1.47837e-06
-2.04969e-06
1.39574e-06
9.01778e-07
1.20339e-06
1.73699e-06
6.51664e-07
1.49887e-06
-9.59111e-07
1.49567e-06
-1.43143e-06
1.79746e-06
3.30266e-07
2.57347e-06
2.18533e-06
3.38321e-07
1.56453e-06
-8.70235e-07
7.53767e-07
3.68196e-07
-2.51728e-07
7.54831e-07
-8.73805e-07
3.6891e-07
-2.49936e-07
3.78617e-07
-8.83548e-07
7.71208e-07
-2.66276e-07
-2.62018e-07
-8.81347e-07
7.67712e-07
3.75653e-07
-1.12261e-06
-1.16242e-07
3.68617e-07
-1.16025e-07
-2.51753e-07
-1.14501e-06
7.66746e-07
-8.82414e-07
-8.75586e-07
7.55058e-07
3.6819e-07
-2.47663e-07
7.52643e-07
-8.75322e-07
3.64127e-07
-2.41448e-07
3.7306e-07
7.62887e-07
-8.82434e-07
-2.53513e-07
-2.47216e-07
7.57592e-07
-8.77791e-07
3.67416e-07
-1.11927e-06
-1.22271e-07
3.65952e-07
-1.22195e-07
-2.44428e-07
-1.12875e-06
7.59261e-07
-8.77884e-07
-8.97995e-07
3.8896e-07
7.84604e-07
-2.75569e-07
7.77633e-07
3.84494e-07
-8.93924e-07
-2.68203e-07
3.98415e-07
7.91747e-07
-9.14254e-07
-2.75908e-07
-2.73165e-07
3.9015e-07
7.84997e-07
-9.01982e-07
-1.16864e-06
-1.16796e-07
3.87442e-07
-1.19305e-07
-2.71703e-07
-1.18185e-06
7.91893e-07
-9.02745e-07
-8.84933e-07
-2.64016e-07
7.71517e-07
3.77432e-07
7.62575e-07
-2.51974e-07
-8.80892e-07
3.70291e-07
3.81853e-07
-2.65493e-07
7.75937e-07
-8.92298e-07
-2.57387e-07
7.67861e-07
-8.852e-07
3.74726e-07
-1.14016e-06
-1.18155e-07
3.73378e-07
-1.19397e-07
-2.58183e-07
-1.1479e-06
7.72358e-07
-8.85444e-07
-1.19229e-07
-1.12308e-06
3.68501e-07
3.7796e-07
-1.14766e-06
-1.13848e-07
-1.14042e-06
-1.15245e-07
3.74314e-07
8.80063e-07
-1.13035e-06
-1.1992e-07
3.70212e-07
7.65859e-07
2.54595e-07
-1.13968e-06
2.61405e-07
7.62725e-07
3.71933e-07
-1.16286e-07
-1.18994e-07
-2.49025e-07
-2.52329e-07
-1.20434e-07
1.13954e-06
-1.19523e-07
-2.5713e-07
-7.68896e-07
-1.14642e-07
-2.64122e-07
-8.8158e-07
-3.77097e-07
-3.74648e-07
-8.84026e-07
-2.61966e-07
-1.19135e-07
2.72418e-07
-1.16851e-06
7.82245e-07
-1.15354e-06
7.74281e-07
7.65333e-07
-1.13723e-06
1.17701e-07
-1.16354e-06
7.80349e-07
3.82901e-07
-8.92865e-07
7.82382e-07
-8.86927e-07
3.79777e-07
-1.15494e-06
-8.94194e-07
1.19102e-07
-8.92496e-07
-3.76212e-07
-8.81449e-07
1.15152e-06
-8.86546e-07
2.66894e-07
-7.73647e-07
-7.68944e-07
2.58737e-07
-8.8642e-07
1.00997e-06
1.75242e-07
-6.09324e-07
-5.75889e-07
2.04223e-07
9.83789e-07
-6.05237e-07
-5.82775e-07
-5.62505e-07
1.16061e-06
9.05717e-08
-6.88677e-07
-6.62821e-07
1.10401e-06
1.71187e-07
-6.12377e-07
3.78899e-07
1.22071e-06
-5.89634e-07
1.20802e-06
-6.24895e-07
4.12505e-07
1.45381e-07
1.05802e-06
9.71482e-07
2.14892e-07
-6.01506e-07
-5.84869e-07
2.23007e-07
-6.01417e-07
-5.87128e-07
-5.79135e-07
1.86751e-07
-6.26899e-07
-6.19041e-07
2.20057e-07
-5.90087e-07
3.63525e-07
1.19488e-06
-5.86919e-07
1.1941e-06
-6.07572e-07
3.66591e-07
2.09243e-07
1.34568e-06
-5.3984e-07
3.57351e-08
-8.41578e-07
1.49103e-07
-5.89341e-07
-7.24914e-07
-7.36955e-07
1.12435e-07
-1.10087e-06
-7.97428e-07
-7.29931e-07
2.31724e-07
5.27497e-07
1.47842e-06
-6.60234e-07
1.54351e-06
-8.66908e-07
6.14524e-07
6.6468e-08
1.12127e-06
-6.75823e-07
2.17789e-07
-6.63241e-07
2.30063e-07
-6.36016e-07
-6.04691e-07
-6.84389e-07
-6.97516e-07
2.35221e-07
-6.52259e-07
2.41103e-07
-6.78617e-07
4.48279e-07
1.33842e-06
-6.65426e-07
1.33047e-06
-6.52132e-07
4.53362e-07
2.32802e-07
1.19519e-06
3.68644e-07
-5.8004e-07
-5.8497e-07
4.3909e-07
1.30649e-06
4.2727e-07
1.30257e-06
-6.25826e-07
-1.01329e-06
3.82058e-07
1.23464e-06
-6.03408e-07
1.79571e-07
6.30903e-07
3.84712e-07
6.52617e-07
1.96895e-07
-5.79278e-07
1.27678e-06
1.19915e-06
-6.15616e-07
-6.36659e-07
1.23877e-06
-4.02936e-07
1.2499e-06
-6.6021e-07
-1.55721e-07
1.29912e-06
-7.04306e-07
1.00952e-06
5.74348e-07
5.821e-07
1.06633e-06
-6.47698e-07
1.24549e-06
7.47385e-07
4.67959e-07
9.11461e-08
4.53151e-07
1.73593e-07
1.9591e-07
4.02711e-07
-1.36914e-06
5.11463e-07
1.60163e-07
-6.0595e-07
1.19709e-06
1.56248e-07
1.12398e-06
-6.67761e-07
4.95705e-07
1.22724e-06
-1.41562e-06
6.03183e-07
-4.38989e-07
7.08248e-07
-1.41247e-07
-2.11662e-07
6.65255e-07
-1.23251e-07
-9.70012e-07
7.86398e-07
3.06865e-07
7.60379e-07
-4.16398e-08
-1.01308e-06
2.9434e-07
-9.24457e-07
-8.90436e-08
7.43942e-07
2.69559e-07
2.74985e-07
-9.35088e-08
-9.3934e-07
7.57863e-07
2.05241e-07
6.65375e-07
-9.93867e-07
6.71567e-07
2.94053e-07
1.79532e-07
7.60829e-07
-7.33591e-08
3.02632e-09
7.54507e-07
-1.01256e-06
2.5503e-07
7.11454e-07
-9.66749e-07
3.64878e-08
2.18807e-07
-9.66304e-07
7.19216e-07
6.73825e-09
2.4035e-07
2.35599e-07
7.30603e-07
-9.77015e-07
1.08128e-08
2.48049e-07
7.92209e-07
-1.03723e-06
7.25206e-07
2.34297e-07
2.35414e-07
7.92394e-07
-5.68398e-09
-7.81389e-08
-8.78515e-07
7.01774e-07
2.54879e-07
7.04079e-07
-9.17282e-07
-2.71259e-08
2.40329e-07
-8.64931e-07
6.85074e-07
-5.55619e-08
2.35418e-07
2.29808e-07
-8.88164e-07
7.15733e-07
-5.7378e-08
1.74442e-07
6.51722e-07
-9.04303e-07
6.37143e-07
2.41378e-07
1.71382e-07
7.10149e-07
-5.64063e-08
-5.25789e-08
2.31097e-07
-9.55503e-07
7.76985e-07
7.50326e-07
1.98039e-07
-9.60889e-07
1.25245e-08
-9.35617e-07
2.06389e-07
7.54709e-07
-2.54815e-08
2.25031e-07
-9.94291e-07
7.51992e-07
1.72682e-08
1.85022e-07
7.34586e-07
-9.72188e-07
7.34214e-07
2.01135e-07
1.78223e-07
7.81395e-07
-2.31802e-08
7.58121e-07
2.3282e-07
-1.03258e-06
-9.45318e-07
1.69229e-07
6.87045e-07
1.76794e-07
6.91606e-07
-9.61909e-07
1.33169e-08
2.10229e-07
7.64864e-07
-9.8841e-07
7.90934e-07
-2.29324e-07
1.96511e-07
-2.27743e-07
7.63705e-07
-9.79712e-07
7.12756e-07
7.20148e-07
2.6718e-07
2.23767e-07
7.17065e-07
-2.07397e-07
6.84755e-07
2.41858e-07
-7.25875e-07
6.26268e-07
2.68835e-07
-2.70198e-08
9.43679e-07
9.89141e-07
-4.91302e-08
2.66934e-07
7.32613e-07
-2.28395e-07
1.80358e-07
7.35083e-07
1.42739e-07
7.79964e-07
7.74322e-07
1.88581e-07
-6.96428e-07
1.52323e-07
7.50494e-07
-9.084e-07
-6.34343e-08
7.43439e-07
-5.29047e-08
-9.22552e-07
1.6269e-07
-7.18893e-08
-6.8267e-07
-5.3171e-08
9.3272e-07
-2.70737e-08
-1.95289e-07
-3.72379e-08
-2.22014e-07
-7.54178e-07
-7.41994e-07
-2.16854e-07
-2.61283e-08
-7.9455e-07
6.98498e-07
1.91521e-07
-9.54696e-08
-1.06248e-07
-7.80643e-07
6.98404e-07
1.88488e-07
1.93678e-07
-7.98028e-07
7.10681e-07
-1.0633e-07
7.06379e-07
-7.92441e-07
1.95276e-07
-1.09214e-07
-8.97393e-08
-8.96328e-07
1.91517e-07
-8.97311e-07
7.01323e-07
-8.77646e-08
-1.02184e-07
-7.91398e-07
-7.67641e-07
-1.16713e-07
6.98616e-07
1.85737e-07
-1.27366e-07
6.97944e-07
1.83189e-07
1.88955e-07
-1.22181e-07
7.04434e-07
7.04752e-07
-1.2401e-07
1.8697e-07
-6.35329e-08
-8.90378e-07
1.8627e-07
-8.90925e-07
7.00027e-07
-6.47756e-08
-1.2085e-07
-7.97434e-07
1.97392e-07
7.24354e-07
-1.24312e-07
-1.26488e-07
1.96705e-07
7.14387e-07
2.08183e-07
7.23341e-07
-1.39778e-07
7.16151e-07
2.03655e-07
-1.34809e-07
-7.66138e-08
-9.21864e-07
2.01044e-07
-9.23864e-07
7.20762e-07
-7.6213e-08
-1.295e-07
-7.81181e-07
7.11215e-07
1.93489e-07
-1.23523e-07
-1.2723e-07
7.09362e-07
1.89386e-07
1.96802e-07
7.11748e-07
-1.32613e-07
7.12924e-07
1.88762e-07
-1.33825e-07
-6.76979e-08
-9.04858e-07
1.91375e-07
-9.05627e-07
7.10699e-07
-6.35331e-08
-1.28401e-07
-8.93404e-07
-7.62988e-08
1.89059e-07
1.95548e-07
-8.40357e-08
-9.09541e-07
-8.12394e-08
-9.04634e-07
1.93432e-07
7.79893e-07
-7.08688e-08
-8.99281e-07
1.90257e-07
-1.11971e-07
-7.0564e-07
-7.57929e-08
-7.0782e-07
-1.15393e-07
1.89647e-07
-9.04452e-07
-8.95042e-07
7.0203e-07
7.06562e-07
-9.01441e-07
7.48088e-08
-9.06108e-07
7.09118e-07
1.13642e-07
-9.11217e-07
7.1354e-07
-7.7932e-07
-1.91515e-07
-1.93608e-07
-7.87592e-07
7.09719e-07
-9.06391e-07
-7.14828e-07
-7.92324e-08
-1.15481e-07
-7.46745e-08
-1.18744e-07
-1.23285e-07
-6.66349e-08
9.1209e-07
-7.1296e-08
-1.29046e-07
1.95331e-07
-7.91441e-07
-1.18717e-07
-7.83796e-07
1.96382e-07
-7.5733e-08
-7.93057e-07
9.12709e-07
-1.93795e-07
7.28423e-08
-7.12367e-07
1.20354e-07
1.24608e-07
-7.13195e-07
1.9968e-06
-4.03184e-07
2.59262e-07
-5.85399e-07
2.25945e-06
3.11337e-07
-1.7641e-06
2.01752e-06
-5.18988e-07
2.65576e-07
2.8102e-07
1.83663e-06
-4.84558e-07
2.36598e-06
1.52988e-06
1.50525e-06
2.75332e-07
2.3243e-06
-5.13398e-07
2.06544e-06
2.31521e-06
-6.36156e-07
3.37573e-07
-6.54758e-07
2.27295e-06
2.89078e-07
-1.91166e-06
-6.24985e-07
2.21883e-06