/*--------------------------------*- C++ -*----------------------------------*\
| =========                 |                                                 |
| \\      /  F ield         | OpenFOAM: The Open Source CFD Toolbox           |
|  \\    /   O peration     | Version:  2506                                  |
|   \\  /    A nd           | Website:  www.openfoam.com                      |
|    \\/     M anipulation  |                                                 |
\*---------------------------------------------------------------------------*/
FoamFile
{
    version     2.0;
    format      ascii;
    arch        "LSB;label=32;scalar=64";
    class       volScalarField;
    location    "600";
    object      p;
}
// * * * * * * * * * * * * * * * * * * * * * * * * * * * * * * * * * * * * * //

dimensions      [0 2 -2 0 0 0 0];

internalField   nonuniform List<scalar> 
49216
(
1.86982
1.84869
1.85555
1.8284
1.84411
1.85356
1.83077
1.83911
1.84736
1.85651
1.84718
1.84273
1.83214
1.83761
1.82357
1.83899
1.88041
1.86898
1.91779
1.85582
1.86808
1.88515
1.882
1.89679
1.74964
1.79131
1.76592
1.65172
1.72586
1.75668
1.69464
1.73907
1.83146
1.84467
1.80615
1.79855
1.81771
1.82664
1.84614
1.82995
1.84202
1.81251
1.85138
1.85967
1.83215
1.8198
1.845
1.83782
1.84647
1.78099
1.78336
1.80739
1.8289
1.80352
1.81039
1.79239
1.85773
1.83554
1.81644
1.85591
1.85289
1.83598
1.8436
1.84289
1.88055
1.86328
1.848
1.80483
1.84316
1.863
1.81844
1.83976
1.88463
1.91413
1.86259
1.83568
1.88548
1.90233
1.86456
1.88363
1.77153
1.78532
1.63685
1.53831
1.70526
1.72726
1.63114
1.63626
1.72336
1.73582
1.59732
1.61072
1.6916
1.68921
1.63649
1.62319
1.85428
1.79364
1.77905
1.80649
1.83294
1.82076
1.80862
1.77655
1.86883
1.80973
1.83375
1.82458
1.85154
1.84493
1.83565
1.81564
1.74197
1.73806
1.76221
1.60947
1.71244
1.7347
1.66874
1.7261
1.76481
1.61624
1.7614
1.78242
1.74673
1.67358
1.76443
1.72186
1.57488
1.53962
1.76639
1.61797
1.57213
1.63073
1.63924
1.6781
1.54603
1.57638
1.71773
1.58991
1.56673
1.64628
1.63925
1.69004
1.86025
1.82962
1.92117
1.89593
1.86806
1.88592
1.91024
1.92247
1.61999
1.63312
1.81557
1.70466
1.64888
1.71828
1.73856
1.7829
1.53756
1.72497
1.57166
1.5912
1.60501
1.64419
1.56415
1.63265
1.58547
1.65987
1.77361
1.75192
1.65127
1.65981
1.71331
1.73495
1.78803
1.65853
1.67059
1.85332
1.76925
1.70875
1.77947
1.71184
1.81059
1.8724
1.71924
1.81039
1.82976
1.82068
1.78948
1.75989
2.50119
2.52862
2.48958
2.36343
2.45603
2.5207
2.39857
2.45938
2.58449
1.76395
2.27585
1.66219
2.29153
2.18048
2.00322
2.10774
2.46888
2.29094
2.29396
2.1978
2.38101
2.43351
2.35749
2.36542
2.14177
2.137
2.00833
1.863
2.04404
2.07085
1.94336
1.89909
2.51961
2.43833
2.30642
2.16226
2.4807
2.42178
2.32227
2.30771
2.57851
2.35028
2.41431
2.48041
2.46061
2.2993
2.44305
2.35995
2.3923
2.24871
2.15047
2.18003
2.29416
2.25181
2.22234
2.16539
2.444
2.18379
2.0964
2.35467
2.36168
2.25422
2.32834
2.32268
0.260263
0.242035
0.745719
0.791405
0.432781
0.361794
0.604606
0.617095
0.227404
0.331668
0.755476
0.714231
0.417737
0.427486
0.619073
0.571547
1.15554
1.09939
1.3956
1.41107
1.15498
1.23772
1.33647
1.30707
1.13984
1.06084
1.39354
1.41632
1.2265
1.13444
1.31784
1.3119
0.355955
0.829164
0.865607
0.83306
0.600087
0.766996
0.716026
0.84088
0.411704
0.818779
0.85887
0.815249
0.613567
0.732792
0.76419
0.820929
0.951866
0.970874
0.979185
1.27176
1.09995
1.00563
1.16913
1.11058
1.03572
1.25621
1.04503
0.976302
1.08457
1.12063
0.972898
1.06414
0.470623
1.23938
0.327215
1.26016
0.916189
0.937356
0.925188
0.847205
1.68823
1.93202
1.47811
2.10753
1.95602
1.99283
1.95785
1.98653
0.322054
0.94703
0.142886
1.11148
0.733178
0.646765
0.690934
0.739348
1.82013
2.0987
1.74366
2.23391
2.04202
2.02727
1.96111
1.99185
1.54587
0.883268
1.58686
1.97898
1.5379
1.25117
1.69891
1.56501
1.59115
1.90675
1.25922
0.808523
1.41198
1.68624
1.05773
1.33022
0.817983
1.52997
1.95299
1.46742
1.19737
1.53087
1.46286
1.7714
0.873446
1.41677
1.87298
1.37847
0.995289
1.42694
1.29873
1.60124
0.452833
1.13009
1.03313
0.688537
0.642508
0.83366
0.799461
0.996385
1.76047
2.2368
2.14662
2.0667
1.97514
2.18658
2.06416
2.19394
1.42666
2.12073
1.5137
1.68148
1.3263
1.67244
0.79262
1.4598
1.19372
1.8267
1.90655
1.70354
1.6196
1.74142
1.67362
1.9191
1.51819
1.00928
1.04797
1.85714
1.5773
1.08686
1.79966
1.43628
1.72454
1.94655
2.14735
1.1761
1.75548
1.84818
1.59227
1.91319
0.98017
1.11412
1.94549
2.05047
1.55918
1.26741
1.65367
1.83969
1.38889
1.95422
1.96646
2.2375
1.64921
1.96534
1.98794
2.24672
0.371785
0.865057
0.829035
0.81781
0.628499
0.748681
0.755096
0.873791
1.20341
1.50778
1.43694
1.5088
1.35093
1.42758
1.43449
1.47803
1.2339
1.49866
1.43332
1.4774
1.34081
1.42863
1.44884
1.47729
1.22153
1.53987
1.47072
1.58517
1.43483
1.49981
1.53109
1.58277
1.02932
1.02495
1.05981
1.38122
1.13654
1.05306
1.22178
1.1573
1.12303
1.4416
1.38785
1.08609
1.20664
1.35317
1.17004
1.29475
1.13011
1.18695
1.47189
1.46526
1.22114
1.26402
1.37376
1.38321
1.19233
1.5013
1.52301
1.42434
1.34238
1.41992
1.38211
1.45521
3.15346
2.8932
2.52046
2.82787
3.10214
3.05269
2.9342
2.65769
2.54413
2.09863
1.96693
2.35371
2.42415
2.36158
2.40265
2.08882
1.74868
1.48684
0.584184
1.41762
1.66691
1.5085
1.59341
1.0397
2.47473
2.29484
1.96723
2.33658
2.39678
2.37478
2.33536
2.04994
2.80292
2.45031
2.69714
2.41551
2.72289
2.6209
2.60891
2.63073
2.69898
2.34207
2.0765
2.32422
2.441
2.33295
2.3017
2.13624
2.31528
2.63415
2.41952
2.01331
2.27171
2.35198
2.08136
2.21379
1.91961
1.64465
2.18313
1.73047
1.89279
1.99319
2.11346
1.95829
2.40087
2.33489
2.30559
2.22724
2.36504
2.36843
2.32392
2.32059
2.22167
2.02635
2.16151
1.93799
2.09808
2.08672
2.04748
2.08084
2.21075
2.20274
2.16291
2.07247
2.1551
2.16714
2.11133
2.13268
2.0349
1.85377
1.98723
1.83939
1.94859
1.92432
1.90335
1.90523
2.26879
2.24661
2.15371
1.99154
2.23088
2.25281
2.10627
2.15685
2.26772
1.96998
2.16418
2.2543
2.23228
2.11675
2.2563
2.17048
2.20532
2.12465
1.95956
2.00779
2.13325
2.11903
2.04749
2.02017
2.21777
2.00669
1.95439
2.13957
2.14252
2.0472
2.11182
2.0499
0.105791
0.118321
0.124937
0.633939
0.298113
0.117864
0.365577
0.267257
0.122425
0.148685
0.154147
0.760978
0.268149
0.0993217
0.441879
0.282877
0.148227
0.123479
0.158959
0.613794
0.148691
0.02202
0.243588
0.187215
1.06084
1.06991
1.01714
1.36575
1.13683
1.05536
1.20457
1.12682
0.274331
0.219452
0.718595
0.772196
0.416903
0.484662
0.67955
0.619619
0.0673006
0.643609
0.0864194
0.13899
0.235167
0.476782
0.144994
0.159542
0.292672
0.821385
0.864924
0.774155
0.630683
0.73
0.67835
0.880523
0.303683
0.695685
0.753354
0.25627
0.470329
0.578591
0.345728
0.722934
0.325885
0.956322
0.318615
0.897669
0.598047
0.590499
0.60512
0.613067
1.3705
1.76995
1.39615
1.68807
1.57797
1.57145
1.58049
1.62043
0.365981
0.945993
0.420663
0.951331
0.670873
0.590914
0.814512
0.824131
1.28922
1.64994
1.36159
1.65651
1.47401
1.4812
1.48121
1.55483
1.11618
0.623238
1.10854
1.48404
1.14388
0.844361
1.29776
1.11334
1.12476
1.45933
1.147
0.597253
1.17932
1.38622
0.924874
1.17083
0.65094
1.08919
1.5425
1.21409
0.948184
1.13432
1.19308
1.32788
0.655562
1.25398
1.57273
1.25784
0.925971
1.20289
1.23618
1.33913
3.23952
3.1083
3.35274
3.00722
3.19206
3.21411
3.17036
3.2176
2.87135
2.35028
2.79795
2.48095
2.52846
2.52321
2.59255
2.62762
3.41789
3.13447
3.35842
3.00887
3.21093
3.29139
3.15231
3.20899
2.75405
2.51917
2.67589
2.42035
2.63863
2.64353
2.56074
2.52751
3.01183
3.23543
2.91787
2.68353
2.97313
3.09532
2.80922
2.93006
3.02645
2.65541
2.99827
3.30401
2.9996
2.7674
3.1937
2.95779
3.18634
2.89494
2.58164
2.83321
3.0637
2.89931
2.88789
2.75611
3.24371
2.83451
2.60707
2.96942
3.06359
2.93058
2.89027
2.78804
2.47605
2.51203
2.40779
2.27947
2.45353
2.50395
2.37824
2.39779
2.51992
2.4272
2.26548
2.17061
2.45314
2.52897
2.30064
2.35027
2.25018
2.08894
2.02354
1.91479
2.12493
2.13612
2.00713
2.00303
2.06671
1.96487
1.86367
1.86272
1.98842
1.99476
1.89754
1.87191
2.48038
2.34282
2.22259
2.21133
2.38201
2.32481
2.24722
2.24683
2.53204
2.23364
2.30554
2.37669
2.36938
2.29794
2.38979
2.27293
2.24003
2.16866
2.08393
1.94021
2.1272
2.13096
2.03033
2.06544
2.23724
1.93346
2.06108
2.15717
2.14066
2.05822
2.13426
2.01334
0.575692
1.08277
1.23315
1.16234
0.90877
1.05426
1.05108
1.18367
1.5124
1.86444
1.99973
1.81431
1.69873
1.85676
1.77645
1.86738
1.79894
2.22246
2.42171
2.14509
1.96851
2.06433
2.09876
2.17008
1.52758
1.77136
1.90957
1.74963
1.59656
1.70125
1.77291
1.76573
1.34611
1.49859
1.36209
1.63546
1.47109
1.43144
1.45852
1.49914
1.54731
1.78859
1.95352
1.59825
1.56421
1.77647
1.61324
1.79881
1.66131
1.62342
1.74389
1.9132
1.6739
1.58425
1.75837
1.70889
1.71093
1.91776
1.79634
2.00795
1.88599
1.89321
1.89845
1.96646
2.08485
2.09645
2.01146
1.95467
2.08413
2.11306
2.07765
2.03899
2.01854
1.90767
1.82775
1.85166
1.94327
1.96374
1.9364
1.84959
1.87281
1.73518
1.65666
1.64199
1.76377
1.75059
1.69247
1.64772
1.86007
1.76491
1.6503
1.72038
1.80561
1.78421
1.79667
1.67331
2.03982
1.95996
1.94676
1.85247
2.02854
2.01658
1.95583
1.98026
2.06337
1.86934
1.84287
1.96305
1.98435
1.9415
1.96154
1.8576
1.90331
1.95583
1.82312
1.73218
1.84213
1.8765
1.77022
1.84086
1.87141
1.63178
1.7407
1.737
1.80318
1.74146
1.7887
1.71831
0.426201
0.934551
1.02634
0.984134
0.653276
0.828144
0.824139
0.958982
1.2838
1.54531
1.61455
1.52922
1.39946
1.53173
1.52547
1.57333
1.46005
1.68615
1.80271
1.79194
1.58306
1.67471
1.71902
1.72163
1.30008
1.55806
1.73289
1.68444
1.46291
1.50968
1.59399
1.62104
1.11165
1.13151
1.1079
1.41407
1.24892
1.17451
1.257
1.18935
1.23236
1.52877
1.60792
1.30295
1.33227
1.46279
1.35264
1.45336
1.23222
1.24619
1.56062
1.628
1.37006
1.33236
1.47421
1.51497
1.39274
1.64252
1.59241
1.63862
1.53197
1.56657
1.59866
1.63415
3.30548
3.44856
3.19359
3.084
3.24143
3.31819
3.1234
3.18151
3.53104
3.35464
3.35748
3.12179
3.3658
3.44274
3.24357
3.32328
3.17945
3.25572
3.14208
3.01864
3.18629
3.2343
3.10268
3.14709
2.86925
2.84037
2.83244
2.60316
2.77253
2.81829
2.70649
2.74438
3.32284
3.18901
3.02128
3.01464
3.22545
3.17347
3.15661
3.08787
3.40536
3.08179
3.35868
3.24888
3.29189
3.21306
3.35292
3.29476
3.08797
2.91704
2.89225
2.93691
3.012
2.99216
3.05822
2.93034
3.13655
2.98812
2.97579
3.25951
3.13968
3.09881
3.18288
2.99539
0.19409
0.101685
0.362372
1.06815
0.444572
0.349521
0.840599
0.704259
0.121519
0.111357
0.333586
0.700516
0.275572
0.2634
0.512808
0.538842
0.272792
0.46423
0.62225
1.17838
0.548317
0.293572
0.730835
0.787502
1.45439
1.46116
1.74911
1.91997
1.83045
1.545
2.08149
1.80265
0.317799
0.584357
1.20339
1.01036
0.639418
0.677827
0.950612
1.03369
0.254114
1.1351
0.223978
0.351232
0.575146
0.519108
0.221451
0.281936
0.880393
1.49012
1.20067
1.4593
1.11253
1.29527
1.27299
1.20671
0.79347
1.29529
1.2995
0.524511
0.692255
0.920355
0.591114
1.04107
0.639716
0.56894
1.61135
1.35543
0.843735
1.09477
1.12412
1.3586
0.740459
0.709832
1.78533
1.53081
0.882881
1.05229
1.29597
1.35574
2.51583
2.5406
3.19761
2.98639
2.6063
2.79303
2.82891
3.01377
1.86495
2.06886
2.67723
2.36871
1.93719
2.10958
2.36237
2.46489
0.840929
1.83047
1.4829
1.59747
1.28524
1.66373
1.56556
1.60804
1.04267
1.55206
1.95076
2.12172
1.28348
1.51192
1.75555
1.84307
1.95013
1.79567
1.9189
2.58855
2.11239
1.89771
2.29076
2.11453
2.23571
2.71919
1.99788
2.23874
2.50988
2.34939
2.21316
2.38019
1.85226
1.83619
1.86725
1.80671
1.83831
1.84011
1.84011
1.83835
1.84344
1.8609
1.84108
1.79773
1.84656
1.85847
1.82446
1.836
2.0124
1.86505
3.05941
2.25428
1.86379
2.41675
1.8835
1.85319
1.73665
1.70748
1.62959
1.64368
1.6941
1.69217
1.6252
1.62189
1.82955
1.85586
1.78051
1.77271
1.82067
1.82862
1.79871
1.78978
1.831
1.78779
1.91025
1.92765
1.82582
1.81614
1.86972
1.85375
1.90731
1.75077
1.75336
1.62981
1.69894
1.74862
1.66275
1.71729
1.89108
1.75077
1.74619
1.87173
1.81304
1.75989
1.82053
1.74374
1.99139
2.09634
2.01541
1.99615
2.01719
2.04568
2.00301
2.03335
2.23606
2.40226
2.29142
2.24799
2.27582
2.33237
2.24241
2.31843
2.05977
2.19591
2.12539
2.07662
2.07292
2.13689
2.04919
2.11958
1.96424
2.07409
1.99085
1.88414
1.96649
2.01832
1.90908
1.96815
2.12144
2.02927
2.00922
2.13141
2.09783
2.05126
2.11127
2.04469
2.16328
2.18127
2.22685
2.07535
2.14837
2.16448
2.14358
2.1601
2.00207
1.97511
2.08379
1.97848
2.01634
2.02218
2.03084
2.02638
2.0588
2.05803
2.14802
2.20941
2.06935
2.09453
2.12778
2.15084
1.8704
1.82323
1.81352
1.76094
1.83344
1.83745
1.79476
1.79768
1.72926
1.57451
1.52257
1.48792
1.60711
1.58459
1.52841
1.47556
1.91145
1.30545
1.04679
1.50064
1.72569
1.87794
1.99501
1.74302
1.65978
1.54387
1.6019
1.55909
1.62079
1.6076
1.57747
1.54831
1.73422
1.74325
1.72742
1.61105
1.68543
1.71121
1.64434
1.71447
1.73411
1.57563
1.58263
1.72336
1.66316
1.59424
1.70241
1.64616
1.7239
1.72173
1.57457
1.53788
1.74551
1.70596
1.65741
1.63736
1.71527
1.43753
1.56765
1.48468
1.61694
1.60825
1.66244
1.63307
1.97223
1.99018
1.9106
1.95633
1.98338
1.94626
1.9367
1.93086
2.02555
2.08286
2.00053
1.9987
2.04235
2.04826
2.00354
2.04746
1.83038
1.86795
1.68299
1.6854
1.8033
1.81093
1.69838
1.72075
1.89214
1.89824
1.71207
1.78918
1.89237
1.8473
1.80351
1.79432
2.00554
1.90336
1.9612
1.96316
1.95251
1.93058
1.95735
1.92007
1.98579
1.96232
1.95487
1.90276
1.97709
1.97826
1.95749
1.95248
1.84096
1.88997
1.90911
1.71788
1.82613
1.88234
1.80279
1.87336
1.85917
1.7304
1.92983
1.90776
1.84529
1.81397
1.88366
1.86971
0.338945
0.65681
0.874686
0.817934
0.551536
0.73745
0.618216
0.758309
1.08904
1.91981
1.01644
1.0105
1.12943
1.00956
1.49012
1.34924
1.22638
1.32313
1.45147
1.5422
1.15946
1.23381
1.31293
1.36426
1.08921
1.26843
1.38186
1.49467
1.27181
1.2824
1.37263
1.37746
0.735729
0.862622
0.897825
1.16633
0.817308
0.889325
0.902695
0.915727
0.91924
1.22359
0.984918
0.993599
1.09088
1.48031
0.960694
0.927901
0.956015
1.03894
1.32783
1.30104
1.10423
1.04929
1.2322
1.27338
1.04077
1.34907
1.3277
1.18114
1.18896
1.224
1.06179
1.27171
2.04121
1.947
1.88079
0.812447
1.39007
1.98732
1.39721
1.32078
1.44858
-1.58651
0.00925449
1.29976
0.725786
-2.04051
1.17659
0.212919
1.67291
0.0343011
0.21931
0.932345
1.58146
0.501128
1.47187
1.46182
1.17739
1.39456
1.20518
1.48919
1.31869
1.30001
1.43949
1.3924
1.13254
1.14283
1.10167
1.37221
1.17643
1.18489
1.23802
1.1129
1.01692
1.36953
-0.366651
1.17486
1.12515
2.49624
1.37629
1.6431
0.850448
1.08281
1.38442
0.888376
1.13779
1.18694
1.25003
1.4568
1.08571
1.10558
1.28664
0.584121
2.26845
1.35643
1.72586
1.19753
0.205025
0.167356
0.532664
0.685166
0.351505
0.258139
0.567011
0.579972
0.263547
0.242432
0.480633
0.796037
0.380061
0.382463
0.644167
0.625197
0.941402
1.41374
1.75291
0.847162
1.48151
1.50384
1.1941
1.32323
1.08938
1.15659
1.2563
1.43933
1.15206
1.1235
1.27337
1.27843
0.453078
0.769367
0.740923
0.70716
0.630164
0.800989
0.741883
0.731245
0.31662
0.698521
0.615846
0.645461
0.593548
0.750412
0.578175
0.677424
1.02176
0.79676
0.907321
1.12721
0.865598
0.821803
1.0441
0.962744
1.06323
1.14195
0.898166
0.754871
0.881841
0.997622
0.708173
0.929357
4.07327
3.98172
4.12193
4.00751
4.004
4.03372
4.02497
3.96135
3.78845
3.51413
3.50422
3.35974
3.73397
3.71923
3.59802
3.54578
4.51205
3.01835
4.6513
5.40238
3.49122
3.19891
3.77836
3.10694
3.65222
3.27024
4.02619
3.16509
3.74583
3.76575
3.75759
3.57563
3.90808
4.03443
3.86136
3.65125
3.84781
3.97562
3.75504
3.89464
3.93696
3.58207
3.79676
4.0866
3.80441
3.70766
3.88871
3.78109
4.17732
3.74347
3.57525
4.75055
4.05483
3.76713
3.88845
3.74395
3.99058
3.38294
3.4437
3.60953
3.81593
3.95381
3.9315
3.57955
5.38826
3.30226
2.20524
4.76526
4.12604
3.02129
1.92201
3.57029
3.44409
3.35574
2.82715
3.33281
3.36787
3.21303
3.22765
3.01254
2.20637
2.1937
1.04538
1.68259
2.2172
2.15874
1.99853
1.91183
3.54944
3.04889
2.43945
2.81214
3.16379
3.08833
2.49696
2.76442
3.61721
3.30047
3.63214
3.31061
3.38562
3.55729
3.30128
3.65138
3.45377
3.39626
2.76172
2.76274
3.08837
2.94474
2.82002
2.88851
2.38228
3.0062
3.17929
2.64134
2.69475
3.64858
2.78421
3.01787
2.76791
2.74606
3.12097
2.46604
2.65052
2.81237
2.78453
2.76234
-3.76852
0.39401
-1.58751
0.948581
-0.645117
-0.528817
-0.302569
0.29866
1.20451
1.63271
1.54668
1.21692
1.6653
1.38452
2.05356
2.05184
-0.329172
0.791213
2.10845
1.32635
1.93219
0.00308437
1.96701
2.23421
1.48693
1.32524
1.38584
1.47008
1.49067
1.44216
1.45687
1.44071
0.943771
0.35251
1.30208
1.22428
0.823277
1.31022
1.18458
0.989502
0.904647
1.16494
1.70873
0.302916
1.43532
1.75754
1.44226
1.57723
-0.433058
1.50586
1.24171
1.15212
1.14451
1.3281
1.04848
1.36654
0.725235
1.06975
1.20464
1.92569
2.59256
0.963291
0.991416
1.17472
0.212495
0.239799
0.163138
0.752955
0.298863
0.176674
0.481741
0.347169
0.268167
0.277016
0.193168
0.941818
0.392107
0.191421
0.535313
0.377156
0.152023
0.18683
0.120657
0.688685
0.291391
0.147397
0.417215
0.291044
1.17704
1.26308
1.18058
1.52284
1.31193
1.25143
1.33979
1.27979
0.312703
0.278605
0.926378
1.04122
0.515242
0.47948
0.84518
0.793395
0.167459
0.933022
0.167305
0.145693
0.342629
0.503624
0.203001
0.320691
0.433416
1.00975
1.06405
0.934186
0.751976
0.920072
0.859971
1.02845
0.310829
0.8265
1.02785
0.384028
0.477211
0.734318
0.497144
0.809882
0.256755
0.24951
0.803953
0.860453
0.408923
0.387062
0.73368
0.702116
0.242473
0.267942
0.719287
0.834733
0.413602
0.383909
0.680928
0.674582
1.17283
1.13476
1.44065
1.48529
1.21809
1.20585
1.39557
1.38914
1.22601
1.28214
1.52816
1.60152
1.32624
1.29055
1.48558
1.4756
0.420342
0.866834
0.942415
0.90621
0.733912
0.872873
0.867385
0.919237
0.39323
0.898005
0.827813
0.845841
0.717639
0.813185
0.752491
0.872207
1.09113
1.15919
1.11468
1.41114
1.19
1.14468
1.2608
1.20515
1.09348
1.40324
1.11344
1.08619
1.16863
1.23456
1.07925
1.1761
0.312483
3.05761
0.594683
-3.00022
1.66956
2.2654
2.02241
1.92505
-0.321962
0.291801
3.12695
0.93299
3.07876
3.14929
2.15289
3.48338
0.394202
2.61239
0.200718
4.63799
4.15281
5.06209
3.69397
4.30969
-2.83699
2.73864
-0.734014
-3.21317
0.942361
-4.22964
4.29651
-0.688435
3.77783
3.73964
-1.61303
3.11606
3.19515
0.564427
1.4402
2.35887
2.73853
3.68768
3.21854
4.87915
2.37988
2.25652
1.63873
4.17391
3.386
-4.49399
4.46092
3.64588
2.32313
1.24037
3.23198
-0.866955
3.54251
6.69209
4.46227
3.37068
5.29757
5.87835
3.92049
-0.477853
2.86787
5.16366
3.47268
3.54048
2.60873
4.38063
3.38077
3.45427
9.79576
11.9282
8.36936
12.159
9.64469
9.32534
11.005
8.7633
6.18475
4.86784
4.65258
3.0103
1.33082
2.41021
-2.49572
5.07185
2.28382
12.3125
4.75983
2.2224
4.0533
10.1297
4.492
8.91162
3.35987
3.37525
2.84552
4.10865
4.54297
4.24746
6.36612
6.40581
7.05428
8.08637
6.78561
5.10804
5.72134
10.0027
9.42833
6.45628
4.94193
2.91161
4.46623
2.50736
5.88513
3.70809
6.69297
4.77104
6.76941
5.79747
6.90411
7.36265
5.86612
7.843
6.00716
9.38815
2.11474
1.09658
2.08536
1.44254
1.96359
1.53338
1.45825
1.81413
1.42466
1.50357
1.19959
1.39488
1.41932
1.44421
1.34172
1.31381
2.34557
0.949014
1.71719
0.991179
1.73076
1.07035
2.09473
1.6331
1.44242
1.51832
1.28825
1.46776
1.45843
1.45205
1.40207
1.36909
1.59671
1.60303
1.47953
1.51331
1.58466
1.63272
1.62666
1.38976
1.80888
1.33943
1.15566
0.975955
1.41999
1.22073
1.48495
1.38556
1.84596
1.37174
1.55403
1.55461
1.2096
1.29696
1.35077
1.58871
1.43276
1.2688
1.38953
1.22421
1.38376
1.1971
1.4699
1.32525
0.937117
1.5711
1.51106
1.28841
0.488503
1.25631
1.8126
1.52953
1.66128
2.99952
1.69129
1.59514
1.30649
5.34867
0.966107
1.16774
1.77887
1.83344
1.87339
1.82261
1.79964
1.84913
1.87088
1.8548
1.47185
1.5398
1.74282
1.587
1.58951
1.61616
1.6048
1.59547
0.766586
1.45679
1.49542
1.80464
1.3915
1.5499
1.51413
1.69351
2.89086
1.91077
1.58474
1.503
0.948434
1.37902
1.43156
1.56733
1.74069
1.49631
1.57261
1.71738
1.6002
1.57699
1.58941
1.54285
1.68432
1.78231
1.61289
1.8157
1.76344
1.70265
1.68364
1.65515
6.03699
3.11699
7.11023
2.85434
8.84651
9.39741
4.51921
6.91732
4.40384
4.12069
4.21356
4.11597
4.11179
4.32952
3.92654
4.15283
6.68409
3.63861
5.75784
3.53153
7.45225
5.38689
6.21728
5.63222
3.47586
3.65015
3.86047
3.01976
3.56117
3.63409
3.10654
3.58084
3.99878
7.89944
3.80431
4.07533
3.38244
2.69186
4.0204
5.68007
5.08956
4.18414
4.85227
7.70735
4.07783
4.32569
3.51809
4.03427
5.49376
2.59748
3.90206
4.93759
2.70939
3.46555
3.51344
3.16703
6.89026
3.3328
3.99314
4.14054
4.98041
3.44081
3.32816
3.90701
1.59538
1.1133
0.981111
0.903486
1.06808
1.07174
0.798315
0.79778
1.34939
1.17555
1.11147
1.04624
1.59844
1.7626
0.745929
0.762801
0.49822
0.604501
0.222665
0.750638
0.588472
0.493088
0.525933
0.513181
1.19714
1.36124
1.10032
1.4468
1.36124
1.27537
1.25579
1.2226
1.28355
0.756816
1.00618
1.16142
0.791166
0.757583
1.09999
0.939257
1.26065
1.1709
0.797553
0.817078
0.747082
0.752413
0.488423
0.885582
0.791994
1.03688
1.13264
0.891217
0.838501
0.971431
0.969011
1.11286
0.747811
0.904776
1.09216
0.858898
0.766565
0.886233
0.921662
1.01733
5.74013
2.29257
7.06306
4.37963
4.19677
4.15229
4.93042
4.68065
2.03545
0.798662
0.655032
1.75513
1.39709
1.11749
1.95496
1.25052
1.54351
1.55072
3.67481
3.29659
3.97994
5.06707
2.45665
3.24684
3.49825
2.29723
2.68031
2.78577
3.01312
2.83071
2.78762
2.6004
2.24834
3.33181
3.50007
2.64844
3.1117
1.64988
2.76597
2.6566
2.27817
2.57208
2.80988
4.64714
2.78826
2.02281
3.6833
2.5763
1.62866
3.58593
2.18697
2.95224
2.20163
3.07369
3.39904
3.15334
2.98939
2.73199
2.07381
1.72445
3.37569
3.20879
2.88412
1.64417
1.84905
1.85644
1.83707
1.78739
1.85184
1.84544
1.85064
1.81237
1.45911
3.35875
0.702034
1.98263
1.63035
1.61537
2.01678
-0.652657
1.09425
0.658528
2.76675
0.950006
2.70031
3.1568
1.62215
1.40527
1.69071
1.56613
1.5128
1.59162
1.63569
1.62996
1.58192
1.52854
1.83357
1.78974
1.81039
1.74448
1.77399
1.84856
1.73276
1.68101
0.532973
1.83179
2.29239
0.82876
1.23805
1.8471
2.05812
1.03081
1.50727
1.74597
1.57711
1.44776
1.61293
1.66072
1.57746
1.64633
2.04706
0.957709
1.68123
-1.09812
2.04478
0.965693
2.20035
1.5928
13.4074
14.607
12.8783
14.4883
12.6737
13.3391
14.4177
13.6838
15.3584
13.2149
8.37267
12.3487
16.2821
13.3356
11.7502
11.2666
10.0947
5.27216
6.37274
6.30274
6.17889
5.77724
6.91657
6.45987
13.5944
12.7599
5.10199
3.80101
14.1787
12.1612
12.3828
11.2685
16.8998
11.8166
14.2434
12.9802
14.0287
13.266
14.2854
13.064
15.6813
11.6119
10.8645
12.3291
13.8979
13.1304
12.2775
13.4406
8.11482
12.0956
9.64867
7.63156
8.70228
11.4342
8.94166
9.35865
8.92851
6.38352
8.05623
8.14501
5.93246
8.55596
8.42249
6.79662
3.26495
3.13652
3.30829
3.36522
3.26992
3.21891
3.33131
3.2991
2.99244
2.59603
2.73337
2.68206
2.755
2.7577
2.83175
2.76772
3.35845
3.04468
3.27743
3.31759
3.2662
3.24824
3.41963
3.40609
3.44601
2.86814
3.19239
2.9505
3.2313
3.2113
3.41724
3.37935
3.05185
3.25511
3.33071
3.04218
3.11636
3.22563
3.058
3.29712
3.03869
3.06151
2.95178
3.2042
3.08502
3.05255
3.07498
3.00205
3.34949
3.43899
3.11278
3.37175
3.41071
3.37001
3.25699
3.26041
3.30469
3.25366
2.96891
2.99748
3.24615
3.19383
3.13713
3.04666
0.584946
1.63749
1.49944
1.44364
1.26472
1.54206
1.32245
1.62676
2.46021
3.1279
2.86867
3.10106
2.97458
3.09861
2.91938
3.05586
2.04141
2.52509
2.4047
2.46569
2.27783
2.40386
2.46376
2.47656
1.94909
2.98926
2.49108
2.25416
2.69841
2.82336
2.62543
2.79435
2.23995
1.87169
2.10222
2.83581
2.3192
2.05643
2.28522
2.34914
2.46963
2.98379
2.71989
2.0755
2.494
2.70572
2.30413
2.59368
1.91659
2.1032
2.85951
2.57386
2.09766
2.38557
2.5094
2.67936
2.13158
2.67811
3.00457
2.72187
2.38196
2.64096
2.63659
2.81041
-0.350773
-0.32678
-0.349359
-0.358738
-0.47274
-0.418054
-0.353195
-0.400245
-0.683134
-0.271011
-0.32325
-0.273422
-0.566575
-0.220395
-0.342639
-0.306099
-0.439011
-0.310884
-0.425604
-0.32051
-0.316141
-0.295951
-0.219475
-0.301626
-0.435021
-0.361473
-0.353545
-0.42424
-0.476834
-0.308429
-0.421518
-0.382025
-0.18424
-0.397259
-0.541466
-0.397938
-0.248549
-0.295756
-0.285784
-0.343843
-0.342553
-0.332636
-0.341446
-0.434242
-0.433169
-0.400009
-0.311995
-0.51888
-0.458552
-0.490582
-0.350474
-0.29813
-0.434126
-0.457359
-0.303481
-0.260592
-0.448794
-0.400532
-0.438627
-0.388402
-0.419771
-0.377082
-0.386747
-0.368877
7.08533
4.47886
8.98639
7.33711
5.69941
6.68376
7.56799
7.56653
13.0503
14.7057
16.6938
13.0343
13.5684
15.1208
13.9108
15.9456
11.797
13.7125
14.7717
13.7618
12.7414
12.7683
13.0749
12.9124
8.87692
9.46284
12.76
9.10514
7.07466
9.7502
9.02565
10.1472
6.66431
9.76007
6.17756
9.37618
8.67767
8.55931
7.93839
7.42965
10.1683
12.043
15.575
11.5125
10.7364
13.843
11.9273
14.5556
10.7757
8.773
10.9812
13.152
10.5787
8.06967
11.5722
10.8876
11.5998
12.9177
12.9701
14.6963
11.9336
12.45
14.2225
13.6719
-6.07223
-0.558152
-2.06359
-2.9887
-3.3637
-0.565382
-2.5503
-0.749122
0.336741
-1.47246
0.663055
-1.58213
-1.55875
-0.692282
-1.11244
-0.378684
-0.557284
-0.563179
-0.710098
-0.477502
-0.728675
-1.33782
-1.0866
-1.43908
-1.19993
-0.425306
-0.412752
-0.603308
-0.740743
-0.513541
-0.669435
-0.443592
-2.88281
-0.558767
-1.91027
-0.703498
-1.19058
-0.421652
-2.17398
-0.620019
0.160837
-0.100227
0.178796
-2.07381
0.223754
0.175941
-0.0256179
-0.0929624
-1.10257
-1.62654
-0.519277
-0.452284
-0.730251
-0.5903
-0.523502
-0.552204
-1.77329
-0.390923
-0.0828911
0.188877
-0.332632
-0.197127
-0.132795
-0.110628
7.12782
6.46837
2.76959
5.72063
6.50367
5.89565
5.55477
4.70075
4.56618
6.5141
6.09621
-0.0987444
3.87119
6.60266
2.84684
6.3742
2.10335
2.62389
1.4147
1.31584
2.812
2.58031
1.92537
2.25011
9.11763
6.98452
3.62926
10.3296
9.67003
7.36151
9.79016
7.25563
4.44625
2.40047
6.47352
0.133317
4.09344
5.03875
5.51633
5.34804
3.75333
-0.695445
4.29703
2.62578
3.32146
4.10569
4.22685
4.51676
1.93374
7.40631
2.17332
5.61446
2.70005
5.83946
3.30491
4.57529
2.08727
3.62393
1.3495
3.39264
2.22502
3.52082
3.17442
3.59233
4.44661
3.30655
3.99618
5.89678
5.03052
4.81285
5.58548
4.57657
0.924846
-0.401158
-5.90086
-2.53964
-0.940791
-2.64687
-4.95759
-4.57492
5.11582
6.68176
4.38327
11.5616
7.47573
4.7543
11.3164
7.8582
9.77172
5.13105
11.3959
11.4506
9.21446
6.29641
10.2135
7.34156
0.174071
3.52793
5.42681
7.00166
5.15159
4.68491
7.07176
5.61944
0.955106
0.940495
-4.80073
3.31384
-1.1727
-3.40578
-0.203259
1.73782
7.03394
6.88569
2.85216
10.6017
8.62771
5.11876
9.06013
5.17667
7.71326
9.99011
2.96453
8.05289
4.14711
5.8888
3.70223
5.76207
-0.544907
-0.335372
-0.245084
-0.442025
-0.475753
-0.547781
-0.410723
-0.367714
-0.20301
0.00798333
-0.167051
-0.26805
-0.174416
-0.133584
-0.165436
-0.133726
-0.17891
-0.190244
-0.145114
-0.137852
-0.156701
-0.181839
-0.141125
-0.13089
-0.554346
-0.24282
-0.118088
-0.423232
-0.376029
-0.355171
-0.221911
-0.161205
-0.384619
-0.260093
-0.318584
-0.531234
-0.384901
-0.329676
-0.583452
-0.275833
-0.335447
-0.299804
-0.171033
-0.251026
-0.302264
-0.285313
-0.181664
-0.17663
-0.231733
-0.25684
-0.311668
-0.161889
-0.184556
-0.222135
-0.135725
-0.19007
-0.177633
-0.155929
-0.313658
-0.127233
-0.16122
-0.141449
-0.186461
-0.128135
-0.83084
-0.527561
-2.77592
-0.969777
-0.856299
-0.686055
-1.02326
-1.12129
-0.24508
-0.267855
-1.67269
-0.178415
-0.276008
-0.662144
0.170994
-0.485222
-2.92844
-7.38565
-9.28422
-2.31439
-1.32538
-3.17008
-0.454203
-0.48084
-1.17401
-0.162336
-1.80949
-1.35888
-0.39697
-0.390873
-0.601981
-0.334358
-0.352479
-1.74539
-0.809325
-0.0552259
-0.390535
-0.64883
0.0392019
-0.301836
-0.440402
-0.685628
-0.329944
-1.43188
-0.567392
-0.311881
-1.35412
-1.0767
-2.0903
-1.07783
0.392997
-2.52435
-2.91524
-0.643703
-1.39381
-0.0288708
-1.50157
-0.879766
-0.350278
-1.41787
-1.33438
-0.112567
-1.3891
-0.327309
0.147824
0.443697
0.7309
0.762385
0.592557
0.480528
0.606715
0.501704
1.23635
2.02417
1.74034
1.2428
0.829017
1.45439
0.586385
1.67256
1.04963
1.84807
1.64944
1.0455
1.1099
1.55897
1.05159
1.44129
1.19899
1.41779
1.28872
1.46284
1.32279
1.33285
1.34734
1.3776
1.16305
0.868706
0.948032
1.25089
1.20815
0.988373
1.17038
0.985562
1.57184
1.08852
1.44316
1.52067
1.47985
1.1856
1.4741
0.727441
0.994533
0.992541
1.3066
1.18822
1.00565
1.03754
1.16077
1.18037
1.46207
1.21408
1.146
1.46669
1.00148
1.12292
0.687139
1.26654
0.74009
0.319645
0.226987
1.13087
0.530932
-0.117184
0.312447
0.062883
3.11103
1.46779
0.907437
1.4398
1.53278
-0.21413
1.73648
0.430427
0.0501643
0.205915
0.0422948
0.0979754
0.011491
0.0215163
0.0311219
0.0216819
2.33299
0.697198
0.447205
-0.00426616
-0.297351
-1.00665
-0.720382
-0.653989
-0.42083
0.132945
0.314967
0.339259
-0.715794
-0.151267
-0.237469
-0.653167
-0.417362
0.469475
-0.333849
-0.0957795
-0.429705
0.414623
-0.419903
-0.112166
0.175601
0.555594
0.262265
0.319839
0.127275
-0.223592
0.222906
0.0860011
-0.0308574
0.161631
0.2792
-0.15742
-0.0181106
0.0798635
-0.109666
0.124118
-0.447248
-0.365522
-0.488578
-0.494499
-0.514706
-0.517791
-0.811494
-0.495262
-0.569239
-0.48212
-0.0150068
-1.19516
-0.6048
-0.573158
-0.203362
-0.285241
-0.423113
0.52957
0.836248
1.57132
-1.18469
-0.953926
-1.53973
0.529367
-0.0913512
1.03676
1.76136
1.07954
1.29033
1.01258
1.23948
1.54449
-0.583032
-0.795739
0.356182
-0.941354
-0.671526
-0.457607
-0.330964
-0.254626
-0.623544
-3.35436
-0.353356
-0.806715
-0.864966
-0.627692
-0.569861
-0.715746
-0.524933
-1.37372
-0.0379314
1.02336
1.13609
0.178846
-0.457418
0.260384
-0.0673553
1.0644
0.47886
0.618287
-0.134846
-0.360197
-0.418757
0.324759
-0.189554
-0.718547
0.403377
2.25004
0.85025
0.387997
0.96374
1.49007
0.071546
-0.502736
-0.724418
-1.01185
-0.21384
-0.390508
-0.811899
-0.301732
-0.808791
-2.77733
-3.63632
-0.705101
-0.587629
-1.40662
-0.651038
0.0640594
1.53829
0.901938
1.31336
1.19916
1.85431
1.47628
2.26559
1.67806
0.239047
0.562135
0.719428
0.624861
0.872552
1.09866
0.334164
0.812132
0.147384
-1.00402
-0.814055
-1.03407
0.276018
-0.411065
-2.56174
0.241141
0.589426
0.89687
-0.938762
0.658911
0.535934
1.37196
-0.878503
-0.232511
0.6111
0.120826
-0.0125608
-0.762384
-0.0208892
0.516966
-0.09033
-0.231813
-0.572
-0.444566
0.475356
-1.41473
-0.369673
-0.401146
-0.251461
-0.359059
-0.460902
-0.0488038
-0.416764
0.364284
-0.289218
-0.369032
-0.190108
-0.0181693
0.0652282
-0.312684
0.592901
-0.650402
-0.0876748
-0.302394
0.199954
0.120757
2.31296
0.552368
1.48076
1.31105
1.39984
1.37473
1.06437
1.16297
-0.579719
-0.528221
-0.381542
-0.571357
0.0672906
-1.28606
-0.468955
-0.0784963
-0.673349
-0.0612455
-0.641521
-0.704396
-0.172487
-1.52803
-1.74219
-0.739809
-0.195009
-1.71011
-1.22328
-0.704406
0.420866
-1.22535
0.323826
-0.885979
0.0973551
-0.719995
-1.10051
0.227167