/*--------------------------------*- C++ -*----------------------------------*\
| =========                 |                                                 |
| \\      /  F ield         | OpenFOAM: The Open Source CFD Toolbox           |
|  \\    /   O peration     | Version:  2506                                  |
|   \\  /    A nd           | Website:  www.openfoam.com                      |
|    \\/     M anipulation  |                                                 |
\*---------------------------------------------------------------------------*/
FoamFile
{
    version     2.0;
    format      ascii;
    arch        "LSB;label=32;scalar=64";
    class       volVectorField;
    location    "1100";
    object      U;
}
// * * * * * * * * * * * * * * * * * * * * * * * * * * * * * * * * * * * * * //

dimensions      [0 1 -1 0 0 0 0];

internalField   nonuniform List<vector> 
46720
(
(0.29096 0.0348684 1.76144)
(0.329127 0.127019 1.68411)
(0.250152 -0.0486678 1.87033)
(0.374509 0.156802 1.58343)
(0.302782 0.050553 1.76562)
(0.29068 0.0224573 1.8763)
(0.32006 0.0384139 1.70115)
(0.286313 0.0148341 1.78553)
(0.450253 0.419543 1.55039)
(0.648323 0.931251 2.038)
(0.451836 0.523526 1.62391)
(0.632955 0.663407 1.77338)
(0.520265 0.588256 1.69385)
(0.501801 0.571609 1.7474)
(0.515304 0.508485 1.60331)
(0.508808 0.590341 1.73268)
(0.285551 -0.110617 1.83207)
(0.383243 0.156569 1.60197)
(0.363135 -0.10428 1.93205)
(0.351844 -0.047587 1.57371)
(0.310838 -0.0344094 1.80818)
(0.388425 0.120643 1.77661)
(0.304783 -0.201551 1.78944)
(0.360703 -0.0124862 1.73622)
(0.489073 0.266026 1.46044)
(0.603721 0.523391 1.56911)
(0.397811 0.237175 1.48115)
(0.518003 0.344372 1.44052)
(0.489929 0.269329 1.47706)
(0.499413 0.266871 1.4842)
(0.491876 0.241338 1.45959)
(0.491415 0.277759 1.46376)
(0.384764 0.267709 1.65446)
(0.277362 -0.0185682 1.77628)
(0.392508 0.13839 1.59374)
(0.487657 0.393137 1.5781)
(0.392081 0.170907 1.64593)
(0.345368 0.0663479 1.74347)
(0.479888 0.346416 1.56038)
(0.377744 0.130086 1.57656)
(0.3673 0.255873 1.65684)
(0.562401 0.382674 1.58207)
(0.413904 0.260677 1.53892)
(0.319219 0.0140701 1.8126)
(0.3907 0.254862 1.61703)
(0.462237 0.383537 1.43993)
(0.319658 0.105185 1.83181)
(0.406767 0.277313 1.59074)
(0.314263 -0.0375302 1.79714)
(0.415126 0.130581 1.58973)
(0.472939 0.387444 1.54794)
(0.434168 0.0956135 1.55694)
(0.402369 0.000603264 1.65372)
(0.377586 0.132449 1.57929)
(0.336267 0.103508 1.57995)
(0.368627 0.226797 1.47136)
(0.31531 -0.0259617 1.80536)
(0.395027 0.0910229 1.52913)
(0.513757 0.408497 1.55011)
(0.411458 0.268898 1.53111)
(0.400119 0.0375408 1.75615)
(0.382544 0.0816417 1.54331)
(0.408306 0.218402 1.6329)
(0.497171 0.324555 1.51305)
(0.299342 0.035732 1.78978)
(0.297128 0.070779 1.88942)
(0.364132 0.180671 1.71138)
(0.373036 0.121589 1.64288)
(0.286539 0.0200698 1.78123)
(0.324796 0.0638139 1.90654)
(0.321477 0.0819368 1.75635)
(0.326035 0.146919 1.82303)
(0.292323 0.124568 1.97211)
(0.260831 0.195967 2.07561)
(0.324174 0.386509 1.87157)
(0.36583 0.209821 1.78259)
(0.256896 0.167858 2.00497)
(0.325965 0.271346 2.02861)
(0.359155 0.23055 1.89347)
(0.321264 0.299258 1.84965)
(0.441834 0.488658 1.68804)
(0.448549 0.544528 1.77072)
(0.589326 0.929322 2.06046)
(0.575737 0.658461 1.81366)
(0.410452 0.454001 1.61881)
(0.472729 0.545304 1.72788)
(0.564189 0.541439 1.75904)
(0.613489 0.667377 1.84482)
(0.461147 0.220974 1.50005)
(0.448931 0.229215 1.5853)
(0.562621 0.480412 1.60534)
(0.516165 0.298677 1.43952)
(0.450272 0.221923 1.49676)
(0.432641 0.253857 1.52563)
(0.489196 0.258534 1.46678)
(0.506935 0.37595 1.52003)
(0.284263 0.0679238 1.95653)
(0.322526 0.198123 1.67859)
(0.359795 0.116223 1.6301)
(0.36374 0.168469 1.72763)
(0.33578 0.176313 1.79867)
(0.336229 0.15298 1.78718)
(0.362317 0.157446 1.70768)
(0.373712 0.153773 1.70306)
(0.346436 0.15944 1.972)
(0.347056 0.217386 1.7432)
(0.335474 0.338276 1.77498)
(0.346251 0.262126 1.75973)
(0.363856 0.207366 1.86517)
(0.341779 0.252637 1.83049)
(0.349424 0.278307 1.77994)
(0.316982 0.299255 1.81471)
(0.414745 0.312141 1.61945)
(0.396711 0.154001 1.56456)
(0.450076 0.243306 1.70729)
(0.505051 0.389243 1.60244)
(0.461735 0.349329 1.62552)
(0.441433 0.21189 1.66869)
(0.433555 0.35512 1.5806)
(0.424271 0.262778 1.63861)
(0.455243 0.320501 1.73328)
(0.531874 0.477985 1.64995)
(0.420067 0.294963 1.6785)
(0.444636 0.453177 1.74116)
(0.425457 0.403773 1.68647)
(0.429065 0.390457 1.63786)
(0.442183 0.313204 1.74969)
(0.432464 0.345193 1.66055)
(0.512272 0.504399 2.38861)
(0.637603 0.941806 2.64912)
(0.763087 0.506594 2.45685)
(-0.472688 -0.0721165 -0.39296)
(0.393671 0.434122 1.66715)
(0.695755 0.647519 2.47898)
(-0.436791 0.0658005 0.707243)
(0.341345 0.495451 1.72963)
(0.742352 1.00756 2.34474)
(0.801103 1.12974 2.27607)
(0.751061 0.793508 1.87313)
(0.267644 1.09036 1.55832)
(0.587694 1.10872 2.21861)
(0.692766 0.837792 2.26736)
(0.299076 0.969271 1.65231)
(0.686911 0.907642 1.82327)
(0.883415 0.512803 1.72476)
(0.697987 0.660595 1.59003)
(0.735544 0.410614 1.4343)
(0.973877 0.922078 1.4862)
(0.795597 0.656441 1.68652)
(0.681543 0.554883 1.69206)
(0.958284 0.781808 1.66871)
(0.668811 0.608243 1.49567)
(-0.465527 0.384634 -0.297444)
(-0.347247 0.990146 1.52114)
(0.996374 1.06176 1.15803)
(-0.960849 0.367401 0.577426)
(-1.03351 0.444523 -0.35588)
(-0.557973 1.1935 0.642883)
(-0.478919 0.645788 -0.42686)
(0.167461 1.42819 1.16231)
(0.386402 0.916664 2.33428)
(0.786606 0.657548 2.45964)
(-0.65205 -0.00794445 -0.193526)
(-0.446002 1.19432 1.35012)
(-0.114062 0.944024 1.95309)
(0.112473 0.547291 1.51385)
(-0.415884 1.13063 1.77126)
(-0.463015 0.68328 0.57842)
(0.665113 0.74669 2.27754)
(-0.0985514 0.985765 1.50964)
(0.60773 0.628175 2.06663)
(0.700011 0.556225 2.10679)
(0.473219 0.926036 1.99467)
(0.199966 1.03007 1.85413)
(0.807329 0.618231 2.08254)
(0.663494 0.791419 2.02444)
(0.976978 1.10014 2.25179)
(-0.399679 0.1304 -0.59466)
(-0.536828 1.19883 1.22287)
(0.896729 1.30536 1.47134)
(1.01325 1.12226 2.12075)
(-0.329678 0.870916 0.572456)
(0.681514 1.27168 1.52433)
(-0.518508 1.43373 0.778247)
(0.75869 0.956742 2.00383)
(0.883366 1.2612 1.40514)
(0.307487 1.11065 1.20092)
(0.631933 0.80998 1.65081)
(0.785527 1.01731 2.01895)
(0.792458 1.00413 2.05962)
(0.706517 1.01098 1.66381)
(0.574393 0.995699 1.43524)
(0.249015 -0.0377072 1.78152)
(0.247967 -0.0355772 1.80181)
(0.258648 -0.170368 1.64202)
(0.376254 -0.164471 1.65134)
(0.234912 -0.0414722 1.78503)
(0.241912 -0.0352202 1.79413)
(0.280903 -0.0277438 1.67061)
(0.22095 -0.0521932 1.67816)
(0.241127 0.0280203 1.86043)
(0.29851 0.108106 1.8333)
(0.226087 -0.193243 1.50931)
(0.289 -0.0643151 1.56559)
(0.246183 0.0802169 1.81095)
(0.290566 0.0813999 1.80516)
(0.244727 0.000474179 1.58258)
(0.218522 -0.00796458 1.5359)
(0.236715 -0.598073 1.62523)
(0.268312 -0.58808 1.60125)
(0.289972 -0.838345 1.92166)
(0.646709 -1.25619 1.81238)
(0.228316 -0.589054 1.6557)
(0.226539 -0.552815 1.58803)
(0.307728 -0.961241 1.64391)
(0.0794884 -0.661073 1.71592)
(0.516922 -0.298705 1.45829)
(0.47797 -0.290988 1.40742)
(0.692687 -0.778067 1.45534)
(0.580178 -0.299765 1.40492)
(0.535935 -0.346711 1.44176)
(0.504935 -0.38475 1.43194)
(0.658799 -0.322864 1.33406)
(0.646082 -0.486279 1.30621)
(0.203259 -0.011036 1.73144)
(0.245614 -0.197596 1.59695)
(0.380791 -0.19455 1.62194)
(0.346629 -0.209606 1.56704)
(0.20478 0.00642512 1.62496)
(0.280332 -0.0619709 1.63998)
(0.34226 -0.146163 1.609)
(0.374546 -0.238977 1.62928)
(0.288536 0.00402638 1.80486)
(0.310521 -0.148917 1.60017)
(0.224103 -0.178983 1.50418)
(0.214067 -0.199446 1.54687)
(0.253024 -0.0624817 1.63073)
(0.219996 -0.0256168 1.58241)
(0.224255 -0.161655 1.59195)
(0.196636 -0.166579 1.51248)
(0.403102 -0.422983 1.50187)
(0.498031 -0.144738 1.41617)
(0.44001 -0.254588 1.40472)
(0.642092 -0.641015 1.44418)
(0.45894 -0.557599 1.53399)
(0.464107 -0.290326 1.42819)
(0.46283 -0.602201 1.54966)
(0.459622 -0.284866 1.41574)
(0.282594 -0.39561 1.45933)
(0.464357 -0.763107 1.55054)
(0.437775 -0.253342 1.39336)
(0.234158 -0.368243 1.42644)
(0.335798 -0.472128 1.50155)
(0.431541 -0.673752 1.53338)
(0.235967 -0.35991 1.44424)
(0.436725 -0.571135 1.48348)
(0.0930486 -0.122708 1.88067)
(0.171633 -0.0946059 1.86659)
(0.234872 -0.424057 1.77449)
(0.293888 -0.198481 1.72462)
(0.166249 -0.195286 1.90151)
(0.154008 -0.164786 1.89087)
(0.239276 -0.253573 1.71771)
(0.227618 -0.250353 1.71673)
(0.235278 -0.0664986 1.82874)
(0.25846 -0.0341564 1.78285)
(0.222806 -0.187395 1.59747)
(0.352262 -0.133645 1.66532)
(0.245438 -0.0675541 1.81438)
(0.251605 -0.0667242 1.81371)
(0.2601 -0.073033 1.65706)
(0.257329 -0.0801915 1.65972)
(0.249902 -0.580769 1.7797)
(0.275814 -0.512023 1.6486)
(0.313266 -0.703659 2.03133)
(0.512044 -1.2067 1.87405)
(0.288083 -0.575964 1.70418)
(0.276174 -0.570311 1.6685)
(0.299042 -0.826556 1.77077)
(0.305358 -0.832646 1.77449)
(0.508394 -0.308117 1.53414)
(0.524619 -0.286853 1.5158)
(0.632419 -0.795538 1.52616)
(0.60886 -0.344202 1.41982)
(0.553611 -0.279984 1.52143)
(0.514267 -0.306133 1.50065)
(0.677168 -0.44069 1.4166)
(0.647879 -0.439871 1.38194)
(0.232531 -0.123076 1.88002)
(0.276515 -0.377648 1.72364)
(0.319214 -0.172343 1.74007)
(0.339756 -0.133614 1.702)
(0.248853 -0.149648 1.68771)
(0.248205 -0.190224 1.65348)
(0.322514 -0.125971 1.71477)
(0.300623 -0.171374 1.67416)
(0.20949 -0.112478 1.87748)
(0.312377 -0.133158 1.67336)
(0.24307 -0.282393 1.65018)
(0.223772 -0.383756 1.71083)
(0.251992 -0.170658 1.67076)
(0.268199 -0.106268 1.66138)
(0.224478 -0.312646 1.70889)
(0.260855 -0.291225 1.65913)
(0.306855 -0.460371 1.62651)
(0.473563 -0.383127 1.57892)
(0.491435 -0.286416 1.49664)
(0.672326 -0.774485 1.59201)
(0.354775 -0.518605 1.64211)
(0.460991 -0.369475 1.55346)
(0.47116 -0.526301 1.62257)
(0.525777 -0.345201 1.5114)
(0.303105 -0.453306 1.62734)
(0.609202 -0.771895 1.54335)
(0.507157 -0.344746 1.47558)
(0.36545 -0.480861 1.54912)
(0.333283 -0.438389 1.56425)
(0.380296 -0.495728 1.56411)
(0.342757 -0.417348 1.55822)
(0.452237 -0.533864 1.58685)
(-0.00879391 0.431052 1.55385)
(0.157673 0.410156 0.25618)
(0.312362 0.49795 1.61168)
(-0.473988 -0.13779 -0.558587)
(-0.0933335 0.0775018 -0.627959)
(-0.11708 0.160715 0.461426)
(-0.140189 0.263447 0.384917)
(-0.101566 0.0780938 0.744723)
(0.0131182 0.101857 0.379304)
(-0.00245978 -0.410654 0.383688)
(0.501159 -0.299892 0.826478)
(-0.326074 0.100509 -1.40917)
(-0.00516828 0.0694384 -0.633566)
(0.443062 -0.551084 0.663839)
(0.329814 -0.172566 0.0557568)
(0.603268 -0.498595 0.85906)
(0.392736 0.829847 1.91285)
(0.0292698 0.361223 1.41632)
(0.643263 1.06333 1.93931)
(-0.538131 0.640337 0.948108)
(-0.156278 0.60102 1.4383)
(0.170343 0.630147 1.46077)
(-0.094816 0.834546 1.38543)
(0.0305785 0.582575 1.32919)
(-0.474656 0.172681 -0.476332)
(-0.220666 0.222861 -1.53543)
(-1.11226 0.666552 0.561007)
(-1.09832 0.28983 -0.628894)
(-0.304019 0.348941 -1.01155)
(-0.364535 0.235082 -0.6665)
(-0.917477 0.394343 -0.458143)
(-1.07359 0.600137 -0.721067)
(0.277533 0.0022707 0.484102)
(0.00916515 0.226732 0.484887)
(-0.444841 -0.0133528 -0.480453)
(-0.212674 0.238318 -1.32695)
(-0.201168 0.0235372 0.0613662)
(-0.448124 0.0281138 0.226219)
(0.0226617 0.0576369 -0.508896)
(-0.326492 0.0353375 -0.386465)
(0.712491 0.0125956 0.922637)
(-0.190198 0.139937 -0.778344)
(0.615334 -0.0235547 0.837042)
(-0.0803499 0.499638 1.32124)
(0.354033 -0.109612 0.606695)
(0.596601 -0.0880059 0.515787)
(0.156355 0.41016 1.11305)
(0.159981 0.0589 0.86925)
(-0.336638 0.657851 1.47184)
(-0.62842 0.151847 -0.00565597)
(-0.315592 0.254011 -0.717559)
(-0.990966 0.747326 0.449154)
(-0.757882 0.505733 0.550379)
(-0.544836 0.182575 -0.360271)
(-0.565308 0.342886 -0.267379)
(-0.612888 0.289183 -0.189272)
(-0.237522 0.606064 1.61346)
(-1.02286 0.511238 0.892)
(-0.378924 0.189483 -0.48577)
(-0.0664568 0.137564 0.79357)
(-0.572809 0.263811 1.04782)
(-0.601801 0.390729 0.322236)
(-0.289774 0.296481 0.83485)
(-0.474227 0.24497 -0.396184)
(0.362229 -1.1439 2.28477)
(0.548755 -1.68354 1.74609)
(0.670102 -1.36691 1.76908)
(-0.3514 -1.36863 -0.0875718)
(0.368295 -1.82439 1.6209)
(0.516559 -1.65697 1.83567)
(0.274041 -1.36961 1.11706)
(0.804981 -1.52759 1.46614)
(1.1313 -1.01738 1.59442)
(0.789351 -0.484871 1.45344)
(0.921593 -0.668201 1.20096)
(1.6076 -0.693267 1.6908)
(1.01433 -0.69254 1.63547)
(0.874693 -0.538741 1.39762)
(1.04819 -0.821328 1.53692)
(1.00455 -0.580969 1.32439)
(0.729101 -0.749653 1.70297)
(0.730966 -0.490387 1.07009)
(0.581327 -0.36899 1.22574)
(1.02627 -0.742825 1.40408)
(0.832719 -0.830374 1.51339)
(0.825912 -0.521695 1.17326)
(0.841647 -0.899742 1.60371)
(0.825119 -0.440866 1.21685)
(0.685217 0.249907 -1.3792)
(1.09723 0.0314728 0.859871)
(1.44071 0.09314 -1.40063)
(-0.426116 0.576394 -1.15139)
(0.00466412 0.441157 -1.2535)
(0.637983 0.112868 -0.42935)
(0.635835 0.316674 -2.05358)
(0.870009 0.181083 -1.37394)
(0.752798 -1.63558 1.30136)
(0.695136 -1.51744 1.52665)
(0.678232 -0.385134 -0.145775)
(1.78039 -0.492948 1.64661)
(0.751464 -1.49552 1.1)
(0.663258 -1.49074 1.34647)
(0.864811 -1.16281 0.476311)
(0.705264 -1.1085 0.563689)
(1.00087 -1.0413 1.43955)
(1.66201 -0.725204 1.7132)
(0.878178 -0.652349 1.20417)
(0.886944 -0.955415 1.48137)
(1.15014 -0.982207 1.41974)
(1.21913 -0.81015 1.59171)
(0.976094 -0.947853 1.34593)
(1.21546 -1.00282 1.65155)
(0.601756 -1.13584 1.54099)
(0.740884 -0.550506 -0.852868)
(1.97195 -0.501307 1.70724)
(0.895655 -0.905061 0.958018)
(0.661698 -0.99818 0.79123)
(0.83324 -0.946795 0.241686)
(1.55977 -1.22256 1.26328)
(1.61285 -0.644099 1.11844)
(0.873748 -0.8366 1.53174)
(1.10243 -0.911079 1.31607)
(1.79215 -0.883972 1.63177)
(0.917251 -0.644314 1.12069)
(0.988602 -0.902441 1.46304)
(1.28789 -1.03245 1.25995)
(1.07644 -0.88495 1.39076)
(1.69032 -1.16439 1.40977)
(0.364137 -0.389813 0.910163)
(0.624484 -0.610821 1.42648)
(0.1611 -0.1388 0.970486)
(0.506119 -0.49984 1.05578)
(0.380458 -0.427048 1.03746)
(0.246408 -0.338777 1.20351)
(0.430746 -0.407094 1.08813)
(0.292813 -0.315694 1.07235)
(0.749854 -1.28782 1.68719)
(0.201969 -0.910053 2.09942)
(0.511031 -1.06393 1.5066)
(0.741061 -1.21078 1.75308)
(0.775796 -1.47369 1.82624)
(0.54459 -1.44381 1.99425)
(0.826679 -1.28844 1.65947)
(0.672462 -1.40103 1.98398)
(0.0936303 -0.111958 0.981834)
(0.249462 -0.350403 1.00734)
(0.0766205 -0.106155 0.974893)
(0.309137 -0.235309 1.06218)
(0.276138 -0.225573 1.06847)
(0.221337 -0.178549 1.05014)
(0.270217 -0.185373 1.07741)
(0.18132 -0.196686 1.06387)
(0.71134 -0.535722 1.15076)
(0.951948 -0.792031 1.43838)
(0.595597 -0.322111 1.1626)
(0.808698 -0.379479 1.36711)
(0.748835 -0.530639 1.24131)
(0.577761 -0.481086 1.23782)
(0.745899 -0.430291 1.2913)
(0.661009 -0.415847 1.29113)
(0.65339 -0.801366 1.39675)
(0.329459 -0.287051 1.08821)
(0.572677 -0.549109 1.11953)
(0.730917 -0.911545 1.32319)
(0.685463 -0.802371 1.39991)
(0.424594 -0.434872 1.07058)
(0.698938 -0.791675 1.37503)
(0.462291 -0.479331 1.10913)
(0.572712 -0.779922 1.65414)
(0.597032 -0.803374 1.4244)
(0.373448 -0.49947 1.22004)
(0.264732 -0.261191 1.08135)
(0.578687 -0.755707 1.53323)
(0.533539 -0.741436 1.44632)
(0.425955 -0.41092 1.03441)
(0.425648 -0.51177 1.06934)
(0.353978 -0.288298 1.0866)
(0.58514 -0.51074 1.12037)
(0.880485 -0.908973 1.32742)
(0.50511 -0.305867 1.18233)
(0.401337 -0.290297 1.04458)
(0.554079 -0.421421 1.13293)
(0.452285 -0.375626 1.11243)
(0.549589 -0.528508 1.17357)
(0.246459 -0.248555 1.03067)
(0.464024 -0.311267 1.13273)
(0.715457 -0.840989 1.48678)
(0.369904 -0.513617 1.22602)
(0.328209 -0.288862 1.09158)
(0.392276 -0.366534 1.06803)
(0.382465 -0.451706 1.12677)
(0.536403 -0.630977 1.0802)
(0.445613 0.226705 1.3874)
(0.458897 0.165807 1.34817)
(0.61261 0.336554 1.57125)
(0.473977 0.213599 1.31534)
(0.552437 0.25302 1.547)
(0.536083 0.1974 1.41194)
(0.564918 0.315093 1.54974)
(0.57757 0.28147 1.54319)
(0.413515 0.092008 1.21926)
(0.381172 0.0717503 1.19136)
(0.516933 0.113913 1.29594)
(0.40374 0.0647088 1.19546)
(0.44947 0.0904285 1.28451)
(0.445872 0.0914276 1.21994)
(0.476995 0.117422 1.25641)
(0.446728 0.100456 1.2325)
(0.667966 0.295558 1.54365)
(0.608332 0.167137 1.3758)
(0.647646 0.355634 1.42058)
(0.509081 0.241852 1.30089)
(0.629888 0.247639 1.41318)
(0.655211 0.26917 1.47809)
(0.598364 0.248231 1.32795)
(0.627093 0.266751 1.32259)
(0.331464 0.150565 1.25142)
(0.365398 0.0816515 1.19444)
(0.429178 0.172339 1.29498)
(0.283488 0.090174 1.25612)
(0.390994 0.137962 1.33874)
(0.415872 0.138665 1.22664)
(0.395933 0.156066 1.32377)
(0.382101 0.115487 1.26777)
(0.510477 0.149656 1.42029)
(0.59191 0.27139 1.49176)
(0.496836 0.187073 1.41698)
(0.416162 0.112695 1.28828)
(0.567215 0.186076 1.40938)
(0.565271 0.215569 1.42028)
(0.410954 0.109141 1.22917)
(0.496491 0.164915 1.30907)
(0.488919 0.139257 1.31698)
(0.476207 0.128535 1.26471)
(0.561268 0.161047 1.37758)
(0.611912 0.252343 1.45538)
(0.51806 0.153436 1.37784)
(0.53572 0.149184 1.38385)
(0.542848 0.187393 1.35208)
(0.533397 0.169609 1.33565)
(0.608033 0.284919 1.51897)
(0.53631 0.237316 1.40109)
(0.435627 0.130971 1.22788)
(0.467932 0.173325 1.29387)
(0.568609 0.271884 1.44711)
(0.503928 0.194897 1.38925)
(0.502695 0.181473 1.32664)
(0.470197 0.147685 1.27321)
(0.623719 0.264053 1.44605)
(0.493521 0.175332 1.26246)
(0.422147 0.104419 1.23186)
(0.532393 0.153006 1.27991)
(0.563698 0.218164 1.3949)
(0.536874 0.205268 1.34448)
(0.530007 0.152519 1.31004)
(0.481461 0.135795 1.29023)
(0.209242 -0.15908 1.56614)
(0.511515 0.278292 1.40947)
(0.277356 -0.0127649 1.30518)
(0.329472 0.26631 1.37293)
(0.396794 0.107665 1.50649)
(0.416023 0.0167082 1.41061)
(0.250044 0.00645183 1.51104)
(0.301444 -0.00724325 1.2894)
(0.482683 0.616758 1.65949)
(0.647864 0.992551 2.11015)
(0.617905 0.608812 1.53854)
(0.587607 0.681137 1.77372)
(0.542809 0.621273 1.78685)
(0.570612 0.665293 1.66124)
(0.580583 0.606861 1.65078)
(0.599713 0.64135 1.69781)
(0.237776 0.0577428 1.11698)
(0.445233 0.280017 1.19849)
(0.171308 0.0736294 1.05463)
(0.34391 0.130031 1.13702)
(0.339602 0.161036 1.10304)
(0.325254 0.154984 1.09055)
(0.32693 0.153989 1.09762)
(0.22862 0.120784 1.05927)
(0.395777 0.361582 1.43401)
(0.597738 0.544393 1.57452)
(0.455586 0.222648 1.24949)
(0.541346 0.373369 1.40879)
(0.569432 0.316738 1.46037)
(0.527859 0.343761 1.36477)
(0.480964 0.327052 1.33617)
(0.51178 0.321084 1.25639)
(0.436301 0.341554 1.4882)
(0.334097 0.104646 1.22555)
(0.461951 0.214112 1.49906)
(0.554658 0.444341 1.59423)
(0.375162 0.269739 1.39678)
(0.399497 0.0625001 1.34812)
(0.516365 0.456961 1.51398)
(0.454362 0.187479 1.35395)
(0.457712 0.3227 1.45712)
(0.560031 0.459795 1.50239)
(0.518401 0.368667 1.35221)
(0.342182 0.100462 1.18898)
(0.47023 0.303055 1.38828)
(0.558893 0.398682 1.46689)
(0.363563 0.221475 1.27511)
(0.509138 0.354653 1.31636)
(0.321628 0.114496 1.19151)
(0.315176 0.226902 1.40719)
(0.526442 0.457374 1.45975)
(0.419979 0.244192 1.20299)
(0.346384 0.15846 1.28549)
(0.428839 0.185159 1.28622)
(0.446117 0.228563 1.22436)
(0.518781 0.25221 1.34025)
(0.308368 0.127898 1.1675)
(0.398365 0.193483 1.15393)
(0.564066 0.432763 1.46715)
(0.458138 0.319146 1.28737)
(0.410117 0.196601 1.15962)
(0.454643 0.236567 1.24956)
(0.488138 0.298395 1.3066)
(0.491798 0.334529 1.34522)
(0.662599 0.639446 2.24424)
(0.704718 0.738308 2.33289)
(0.569306 0.541059 1.96916)
(0.738088 0.410146 2.04752)
(0.693442 0.561265 2.20102)
(0.701821 0.711979 2.25816)
(0.630797 0.416573 1.94938)
(0.639199 0.526455 1.9618)
(0.686657 0.824076 2.27799)
(0.666232 0.99897 2.20308)
(0.538006 0.632576 1.86807)
(0.612832 0.715663 1.88495)
(0.692673 0.863187 2.2468)
(0.701136 0.970425 2.22271)
(0.606539 0.624836 1.95282)
(0.670616 0.670901 1.9529)
(0.39705 0.485682 1.87143)
(0.363506 0.478599 1.85887)
(0.389962 0.218442 2.13509)
(0.41514 0.261897 1.80532)
(0.401197 0.476114 1.86333)
(0.301281 0.400467 1.90699)
(0.382006 0.372481 1.91488)
(0.308879 0.407991 1.98528)
(0.637635 0.49986 1.80611)
(0.564206 0.558795 1.65085)
(0.473453 0.306482 1.60369)
(0.544738 0.331966 1.43615)
(0.573457 0.529829 1.7052)
(0.561345 0.546956 1.70794)
(0.536714 0.34944 1.61294)
(0.519383 0.363373 1.64553)
(0.688192 0.70855 2.15568)
(0.555665 0.525659 1.90256)
(0.674863 0.461297 1.91483)
(0.626921 0.61564 1.97366)
(0.626709 0.539866 1.99296)
(0.639432 0.523934 2.01836)
(0.684587 0.548986 2.04712)
(0.672523 0.495612 2.00114)
(0.707428 0.808182 2.24851)
(0.647149 0.645056 1.9134)
(0.531002 0.640477 1.88565)
(0.55905 0.573812 1.9228)
(0.634711 0.621179 1.94033)
(0.619824 0.610064 1.9709)
(0.563104 0.579404 1.95422)
(0.543971 0.604224 1.89635)
(0.472613 0.428149 1.79742)
(0.569581 0.449236 1.77881)
(0.552473 0.459531 1.79493)
(0.474218 0.358275 1.71965)
(0.516134 0.431122 1.80516)
(0.513396 0.454823 1.79588)
(0.497042 0.413732 1.75233)
(0.515418 0.474048 1.81772)
(0.451361 0.448557 1.76828)
(0.450175 0.335274 1.76932)
(0.574895 0.474385 1.78593)
(0.411325 0.450978 1.85526)
(0.471037 0.428024 1.78392)
(0.44172 0.384361 1.76803)
(0.459228 0.397602 1.7737)
(0.470484 0.368483 1.70775)
(0.507892 0.0915835 1.46438)
(0.480529 0.0995742 1.36462)
(0.59192 0.125009 1.59786)
(0.485696 0.138986 1.3568)
(0.505453 0.0959292 1.41291)
(0.504467 0.0973211 1.41521)
(0.52947 0.13922 1.44095)
(0.50487 0.139734 1.43915)
(0.458035 0.0953378 1.29842)
(0.397705 0.0854096 1.21779)
(0.450578 0.126974 1.29221)
(0.412076 0.0738816 1.21965)
(0.447264 0.0918168 1.26653)
(0.44535 0.100075 1.26273)
(0.446161 0.0957198 1.29153)
(0.436661 0.111593 1.29077)
(0.611435 0.210476 1.56898)
(0.50787 0.201241 1.41619)
(0.507855 0.304188 1.53667)
(0.499396 0.268147 1.44938)
(0.545553 0.210859 1.44687)
(0.550053 0.199936 1.47057)
(0.522216 0.258122 1.53782)
(0.527277 0.263402 1.53042)
(0.441967 0.155162 1.32176)
(0.382026 0.10324 1.25623)
(0.440609 0.235899 1.36719)
(0.344805 0.164597 1.31214)
(0.413402 0.140643 1.31655)
(0.416007 0.149856 1.30337)
(0.408672 0.179611 1.36294)
(0.399759 0.192366 1.34758)
(0.479892 0.103283 1.32945)
(0.527327 0.136394 1.43307)
(0.458596 0.129045 1.32957)
(0.426141 0.100001 1.27575)
(0.468939 0.112508 1.35235)
(0.486613 0.148661 1.35218)
(0.433764 0.108314 1.29265)
(0.448964 0.130204 1.32429)
(0.480475 0.103959 1.32853)
(0.42398 0.104049 1.26258)
(0.486435 0.119737 1.34444)
(0.555713 0.124133 1.49069)
(0.473845 0.129431 1.34472)
(0.448008 0.117234 1.30357)
(0.516436 0.125446 1.40521)
(0.481869 0.135058 1.35304)
(0.529745 0.200336 1.46652)
(0.491393 0.168863 1.369)
(0.437801 0.133948 1.32336)
(0.494721 0.213431 1.4322)
(0.507241 0.192355 1.41907)
(0.462191 0.180345 1.36997)
(0.472531 0.179842 1.38008)
(0.470456 0.175802 1.33539)
(0.523419 0.189144 1.46046)
(0.486237 0.216707 1.42358)
(0.437126 0.153099 1.31662)
(0.490886 0.174755 1.41939)
(0.478131 0.199795 1.41902)
(0.484594 0.178893 1.36632)
(0.49741 0.162826 1.41428)
(0.46917 0.166649 1.33277)
(0.49891 -0.0535351 0.912375)
(1.09849 0.101695 1.85898)
(0.829734 0.311991 1.42943)
(0.774918 0.180687 1.65437)
(0.847978 0.0918673 1.41569)
(0.755565 0.0404604 1.04065)
(0.776788 0.254217 1.72822)
(0.8072 0.255632 1.75978)
(0.965826 0.00303362 1.71788)
(0.76168 0.0402571 1.61991)
(0.892193 0.0942626 1.56931)
(0.751057 0.104186 1.40519)
(0.821045 0.0993646 1.6866)
(0.936447 0.0209323 1.64944)
(0.832848 0.0923211 1.55308)
(0.871815 0.0938177 1.50158)
(0.933347 0.426266 1.62936)
(0.889674 0.247514 1.51293)
(0.816122 0.397107 1.45484)
(0.689551 0.167588 1.34079)
(0.953213 0.269757 1.58347)
(0.903324 0.325452 1.49264)
(0.769358 0.253358 1.46445)
(0.788273 0.23786 1.39643)
(0.614699 0.101106 1.39305)
(0.560845 0.0667246 1.27396)
(0.543038 0.108914 1.25087)
(0.456644 0.0638862 1.21295)
(0.595233 0.0834077 1.35426)
(0.614624 0.0854897 1.36066)
(0.508035 0.0975054 1.27348)
(0.50303 0.0783308 1.24816)
(1.10941 0.0722719 1.80424)
(0.95549 0.380434 1.80205)
(0.771099 0.15301 1.63145)
(0.752466 0.105881 1.49404)
(0.879236 0.166299 1.63469)
(0.93281 0.23593 1.80141)
(0.711307 0.0785447 1.46826)
(0.797974 0.161049 1.65116)
(1.14338 0.0913582 1.8498)
(0.746298 0.0855031 1.42625)
(0.957232 0.197565 1.63386)
(0.980325 0.354104 1.67522)
(0.855802 0.190369 1.6814)
(0.799703 0.106233 1.56189)
(1.01249 0.255659 1.78691)
(0.904041 0.135744 1.62501)
(0.848429 0.331003 1.61313)
(0.680869 0.151175 1.49424)
(0.638834 0.111521 1.36587)
(0.629566 0.155709 1.35692)
(0.769035 0.172864 1.50626)
(0.683749 0.125559 1.47439)
(0.726884 0.121265 1.46847)
(0.679031 0.12256 1.43049)
(0.849613 0.260123 1.56595)
(0.642757 0.138176 1.32118)
(0.644105 0.0987472 1.34079)
(0.851646 0.225846 1.44957)
(0.855261 0.230463 1.53949)
(0.743361 0.153706 1.44084)
(0.793168 0.183301 1.47683)
(0.669456 0.108992 1.37381)
(0.0597436 0.0874442 1.63135)
(-0.0617531 0.100929 1.92254)
(-0.268362 0.269618 2.51607)
(-0.151869 0.0703765 2.00071)
(-0.0259166 0.0378649 1.95012)
(-0.0196642 0.080205 1.77629)
(-0.193559 0.109935 2.32904)
(-0.141947 0.102125 2.11564)
(-0.123255 0.106952 1.98515)
(-0.128497 -0.0615554 2.1306)
(-0.312423 0.152595 2.10506)
(-0.275672 0.119128 1.71876)
(-0.120431 0.0627333 2.01737)
(-0.130079 0.0603465 2.04807)
(-0.282317 0.0812876 1.91899)
(-0.327054 0.0642751 1.96821)
(-0.152165 0.176293 2.29449)
(-0.231142 0.273681 2.20107)
(-0.200112 0.0624173 2.29534)
(-0.18314 0.204216 1.94177)
(-0.204334 0.227686 2.2592)
(-0.214633 0.217713 2.30027)
(-0.195856 0.0289478 2.20913)
(-0.203189 0.13544 2.2652)
(0.203142 0.0195715 1.36332)
(-0.025473 0.0535609 1.38061)
(-0.0546651 0.0866506 1.49202)
(0.0617145 0.0156955 1.32893)
(0.0228988 -0.00989896 1.40131)
(0.126591 -0.00737979 1.39227)
(0.0515641 0.0856504 1.41337)
(0.0196225 0.0376005 1.41972)
(-0.0502002 0.119422 1.93676)
(-0.124452 0.191897 2.24561)
(-0.114902 0.0903922 1.70936)
(-0.174077 0.111098 1.75882)
(-0.20061 0.0432584 1.96183)
(-0.210339 0.0250028 2.13597)
(-0.0991033 0.112635 1.59011)
(-0.229305 0.100248 1.90507)
(-0.110465 0.092544 2.0117)
(-0.181914 0.113222 1.62708)
(-0.200763 0.230708 2.15315)
(-0.199382 0.240726 2.40848)
(-0.224036 0.0964247 2.07692)
(-0.351621 0.0611815 1.89735)
(-0.0928592 0.184709 2.25875)
(-0.300163 0.159433 2.17324)
(-0.382828 0.164144 2.14713)
(0.195358 0.00134658 1.67374)
(-0.0280451 -0.0175881 1.54113)
(-0.0968016 0.13036 1.78294)
(-0.229963 0.153319 1.89365)
(-0.0611917 0.0388412 1.69654)
(-0.0221355 0.069026 1.7076)
(0.279441 -0.0351526 1.53009)
(-0.199933 0.16998 2.25094)
(-0.134417 0.0984351 1.78334)
(0.0198095 0.000697465 1.54138)
(-0.294106 0.17697 2.03822)
(-0.386721 0.191452 2.20378)
(-0.13158 0.105776 1.79263)
(-0.231556 0.0855332 2.0273)
(0.0771984 0.00666162 1.51664)
(0.174834 0.0665167 1.7033)
(-0.113494 0.150815 2.3456)
(0.0284351 0.0626659 1.9484)
(-0.162454 0.131463 1.85566)
(-0.0419256 0.099015 2.13638)
(0.0785699 0.0506648 1.91199)
(-0.0508326 0.0909036 2.00982)
(0.011726 0.0521204 1.99679)
(-0.208508 0.193838 2.4046)
(-0.169004 0.0922342 2.36924)
(-0.093831 0.102681 2.19547)
(-0.162801 0.204856 2.00211)
(-0.184269 0.137411 2.31524)
(-0.202389 0.137192 2.42519)
(-0.140727 0.103199 2.09508)
(-0.155189 0.126017 2.23061)
(0.010324 0.0928781 1.93098)
(0.0176646 0.05375 1.97902)
(0.00387645 0.0542478 1.92665)
(-0.0261202 -0.00820825 1.74962)
(0.00796143 0.0604078 1.94856)
(0.0360926 0.0453116 1.88791)
(-0.00125298 0.0560934 1.95872)
(0.0157295 0.0538789 1.94673)
(0.0681814 -0.0788028 1.43222)
(-0.0167172 0.0507058 1.45264)
(-0.00430336 0.0274249 1.45204)
(0.061621 0.0135823 1.31421)
(0.0549563 -0.041323 1.45496)
(0.0991093 -0.0673955 1.4082)
(0.0175664 0.045023 1.4602)
(0.058395 -0.00735383 1.42544)
(-0.165374 0.201487 2.28446)
(-0.00262216 0.073054 1.97705)
(-0.0892229 0.031722 1.84318)
(-0.127773 0.127636 1.86472)
(0.0455171 0.0119943 1.94634)
(-0.00688059 0.0715079 1.97955)
(-0.116917 0.0581714 1.96049)
(-0.0453871 -0.00519365 1.84354)
(-0.283024 0.18508 2.42545)
(-0.077187 0.128283 2.05453)
(-0.0115612 0.0607067 2.15574)
(0.029242 0.0373118 1.98105)
(-0.108874 0.143478 2.1395)
(-0.100701 0.108928 2.21334)
(0.0356084 0.0358187 1.99171)
(-0.036251 0.107239 2.10275)
(-0.00802018 0.0324807 1.89829)
(-0.0323273 0.00778212 1.68911)
(-0.035767 -0.0261684 1.61049)
(-0.0529996 0.0134504 1.67056)
(-0.0632673 0.0243022 1.79706)
(-0.0628458 0.0448233 1.73977)
(-0.0179809 0.00235583 1.75698)
(0.0540545 -0.0462389 1.69448)
(-0.00125577 0.0522842 1.93482)
(-0.00473473 -0.021894 1.71989)
(-0.0510687 0.0284708 1.77578)
(-0.000811804 0.0575765 2.01337)
(0.0153336 -0.00910286 1.89781)
(0.0519289 -0.0169244 1.80163)
(-0.00475385 0.0651908 1.91545)
(-0.00256736 0.0160813 1.79638)
(0.214248 0.0716678 2.52976)
(0.182547 0.0344078 2.53307)
(0.249018 -0.0535651 2.45541)
(0.287194 0.136931 2.26979)
(0.222365 0.0620411 2.47979)
(0.222774 0.00958784 2.46893)
(0.215452 0.153707 2.44053)
(0.239457 0.030702 2.52731)
(0.0995189 0.138666 2.58545)
(0.0167388 0.229496 2.40376)
(0.0391848 0.299243 2.37338)
(0.119907 0.33802 2.18157)
(0.112435 0.0946746 2.53442)
(0.0406289 0.107333 2.52094)
(0.117527 0.0814595 2.48675)
(0.0795985 0.288541 2.3928)
(0.186461 0.155356 2.3768)
(0.061203 0.425512 2.43045)
(0.11137 0.617678 2.60519)
(0.247581 0.564631 1.99113)
(0.225203 0.237679 2.22734)
(0.14009 0.467752 2.44355)
(0.240585 0.333568 2.15408)
(0.114838 0.581433 2.50291)
(0.285109 0.472782 1.76707)
(0.195333 0.637308 1.93425)
(0.23348 0.785699 1.92317)
(0.340397 1.05704 1.92031)
(0.236808 0.69482 1.81667)
(0.175598 0.714087 1.8965)
(0.255939 0.936087 1.90572)
(0.193805 0.783761 1.95321)
(0.191037 0.0564351 2.53306)
(0.229294 0.141086 2.31355)
(0.228507 0.233218 2.15262)
(0.164256 0.335988 2.06952)
(0.2323 0.0857168 2.53031)
(0.202289 0.0913197 2.40789)
(0.202976 0.268057 2.18733)
(0.149444 0.336265 2.02421)
(0.179533 0.0895973 2.45451)
(0.13172 0.404629 2.04317)
(0.0948765 0.228937 2.41198)
(0.223646 0.156791 2.33835)
(0.154704 0.117413 2.45634)
(0.161577 0.161286 2.38198)
(0.139787 0.116479 2.43335)
(0.186768 0.161672 2.35556)
(0.238404 0.273483 2.20977)
(0.132127 0.337149 1.95307)
(0.129509 0.414244 2.00577)
(0.213574 0.544458 1.87228)
(0.215864 0.369118 1.94608)
(0.17255 0.376975 2.04987)
(0.159841 0.465455 1.9045)
(0.162185 0.431894 1.98405)
(0.193857 0.201888 2.35653)
(0.254007 0.57152 1.98456)
(0.156586 0.447274 2.08723)
(0.0713242 0.40472 2.42938)
(0.188403 0.240206 2.26196)