/*--------------------------------*- C++ -*----------------------------------*\
| =========                 |                                                 |
| \\      /  F ield         | OpenFOAM: The Open Source CFD Toolbox           |
|  \\    /   O peration     | Version:  2506                                  |
|   \\  /    A nd           | Website:  www.openfoam.com                      |
|    \\/     M anipulation  |                                                 |
\*---------------------------------------------------------------------------*/
FoamFile
{
    version     2.0;
    format      ascii;
    arch        "LSB;label=32;scalar=64";
    class       volScalarField;
    location    "300";
    object      p;
}
// * * * * * * * * * * * * * * * * * * * * * * * * * * * * * * * * * * * * * //

dimensions      [0 2 -2 0 0 0 0];

internalField   nonuniform List<scalar> 
57792
(
-0.021473
-0.0219466
-0.0181036
-0.0181671
-0.0203305
-0.020777
-0.0190083
-0.0189515
-0.0230014
-0.025589
-0.0154969
-0.0163385
-0.0219127
-0.0217735
-0.0173404
-0.0179449
-0.0120032
-0.0089308
-0.0039824
-0.00655206
-0.0083099
-0.00743951
-0.00719051
-0.00557266
-0.0142704
-0.0125125
-0.00885376
-0.0106051
-0.0125185
-0.0121407
-0.0111003
-0.0100041
-0.0207054
-0.0159583
-0.0163607
-0.0154716
-0.0182262
-0.0172603
-0.0171522
-0.0162624
-0.0210354
-0.0148353
-0.0135254
-0.0161866
-0.0183349
-0.0158897
-0.0165768
-0.01383
-0.0142381
-0.014931
-0.0131018
-0.00921579
-0.0131863
-0.0144292
-0.0111699
-0.012732
-0.0136197
-0.00791035
-0.0124981
-0.0104521
-0.0109165
-0.00994621
-0.0119257
-0.0111119
-0.0217524
-0.0206295
-0.0215964
-0.0186863
-0.0204386
-0.0212691
-0.0200857
-0.0206349
-0.019851
-0.0190575
-0.0203728
-0.0167088
-0.0188595
-0.0196321
-0.0184732
-0.0193343
-0.0230984
-0.0222803
-0.0265704
-0.0174633
-0.0218037
-0.0230561
-0.0209671
-0.0232724
-0.0151127
-0.0142762
-0.0136774
-0.0115397
-0.0137887
-0.0143253
-0.0126789
-0.0132578
-0.0196506
-0.0205301
-0.0170658
-0.0163048
-0.0192351
-0.0197185
-0.0174282
-0.0179229
-0.0203841
-0.0169626
-0.0209599
-0.021523
-0.0199082
-0.0190658
-0.0209804
-0.0200614
-0.0203601
-0.0162636
-0.0155752
-0.0155039
-0.017768
-0.0168293
-0.0164072
-0.0158362
-0.0215907
-0.0163774
-0.0162185
-0.0209448
-0.0201496
-0.0175295
-0.0195675
-0.017424
-0.00615226
-0.0120133
-0.013653
-0.00876113
-0.00777591
-0.0104227
-0.00907196
-0.011065
-0.0185594
-0.0246561
-0.0195926
-0.0162548
-0.0195772
-0.0217026
-0.017592
-0.0196132
-0.0160327
-0.0174484
-0.0160742
-0.0145351
-0.0161637
-0.0167873
-0.0152319
-0.0159939
-0.0103842
-0.0124603
-0.0127638
-0.010488
-0.0108019
-0.0120011
-0.0109036
-0.0118995
-0.0135589
-0.0140499
-0.00987859
-0.013592
-0.0132109
-0.0127852
-0.0126047
-0.0121683
-0.0163104
-0.0152513
-0.0182081
-0.0157363
-0.015826
-0.016269
-0.0165978
-0.0172085
-0.0134044
-0.0103971
-0.0132762
-0.0135082
-0.0130679
-0.0117542
-0.0137788
-0.0125553
-0.0150799
-0.0142873
-0.0147092
-0.0172964
-0.015363
-0.0148198
-0.0161037
-0.0153283
-0.00257795
-0.00896184
-0.00267494
-0.00573228
-0.00530764
-0.00550317
-0.00480068
-0.00519914
-0.0175856
-0.0256688
-0.0176168
-0.015946
-0.01803
-0.0212359
-0.0162319
-0.0183119
-0.00252159
-0.00997111
-0.00267003
-0.00638971
-0.00568505
-0.00575419
-0.00528252
-0.00593853
-0.00791099
-0.0114729
-0.00916703
-0.0094627
-0.00960402
-0.00968161
-0.0090365
-0.00984909
-0.0113229
-0.00515433
-0.00803535
-0.0120825
-0.0105509
-0.00714763
-0.0105549
-0.00814123
-0.0127868
-0.0129588
-0.0129204
-0.00549037
-0.0114977
-0.0137134
-0.00965424
-0.0118643
-0.00459848
-0.00752402
-0.0115914
-0.00761863
-0.00649139
-0.0080077
-0.00838904
-0.00941211
-0.00530676
-0.00862639
-0.0123927
-0.011988
-0.00731295
-0.00839886
-0.0109417
-0.0109299
-0.0196143
-0.0202818
-0.0213769
-0.016958
-0.0191978
-0.0201539
-0.0188532
-0.0200439
-0.021124
-0.0223401
-0.023389
-0.0185792
-0.0210629
-0.0222473
-0.020434
-0.022154
-0.0240928
-0.025037
-0.0284446
-0.0187261
-0.0229615
-0.0253879
-0.0224363
-0.0248743
-0.0139273
-0.014962
-0.014036
-0.0114702
-0.013498
-0.0143651
-0.0126232
-0.0134686
-0.020069
-0.0210629
-0.0164609
-0.0173904
-0.0193903
-0.0196648
-0.0177533
-0.0175394
-0.0211605
-0.0184399
-0.0234804
-0.0223046
-0.0211676
-0.0204569
-0.0221828
-0.0218825
-0.020795
-0.0160277
-0.0165769
-0.016651
-0.0179746
-0.0170191
-0.0171329
-0.0165182
-0.022188
-0.0177175
-0.0178692
-0.0236318
-0.0217482
-0.018303
-0.0213723
-0.0186974
-0.00128077
-0.00127502
-0.000750829
-0.00565428
-0.0022191
-0.00170945
-0.0027128
-0.00276966
-0.00135608
-0.00124415
-0.000919192
-0.00528607
-0.00173134
-0.00195778
-0.00389524
-0.00249531
-0.000753269
-0.000956007
-0.000750855
-0.00338051
-0.00185493
-0.00135063
-0.00200822
-0.00239804
-0.00744004
-0.00693973
-0.00603569
-0.00840273
-0.00765981
-0.00726398
-0.00773964
-0.00691638
-0.00248732
-0.00203727
-0.00571532
-0.00560925
-0.00350548
-0.00287131
-0.00513747
-0.00511851
-0.00187472
-0.00567089
-0.0011195
-0.0014626
-0.00271145
-0.00346166
-0.00107499
-0.00153828
-0.00199853
-0.00582072
-0.0066486
-0.0052137
-0.00423997
-0.00529743
-0.00511225
-0.00595699
-0.00260016
-0.00471915
-0.00559951
-0.00231475
-0.00265921
-0.00467018
-0.00288548
-0.00429239
-0.00283862
-0.00262075
-0.00263701
-0.0104313
-0.00485772
-0.00262223
-0.00665168
-0.00493597
-0.00227432
-0.00207453
-0.00225312
-0.00826923
-0.00380561
-0.00199834
-0.00537066
-0.00370463
-0.00264588
-0.00251343
-0.0027486
-0.0107011
-0.00474881
-0.00253524
-0.00676346
-0.00504148
-0.014675
-0.0132991
-0.0149352
-0.0163917
-0.0154122
-0.0141333
-0.0163523
-0.0156694
-0.00424822
-0.00485935
-0.0117414
-0.0103652
-0.00589273
-0.00675476
-0.00932011
-0.0100221
-0.00226161
-0.00878107
-0.00226521
-0.00255975
-0.00419529
-0.00575187
-0.00251743
-0.00419716
-0.00665586
-0.0132467
-0.0118231
-0.0132353
-0.0105975
-0.0119251
-0.0118341
-0.0128033
-0.00491885
-0.0121264
-0.0104446
-0.00417047
-0.00657747
-0.0101037
-0.00585268
-0.00942502
-0.0035715
-0.00856061
-0.0114602
-0.00608025
-0.005293
-0.00783526
-0.00662597
-0.00939694
-0.016255
-0.0269515
-0.0249878
-0.0176767
-0.0195391
-0.0235832
-0.0188648
-0.0235078
-0.0183058
-0.0233245
-0.0222665
-0.0181356
-0.0194685
-0.0220314
-0.0192536
-0.0212882
-0.00870816
-0.0130351
-0.0142888
-0.0106975
-0.0103387
-0.0120379
-0.0112948
-0.0127653
-0.0113282
-0.012892
-0.00847079
-0.0134326
-0.0115439
-0.0113213
-0.0113016
-0.010545
-0.0146766
-0.0162759
-0.0228703
-0.0167625
-0.0159266
-0.0176928
-0.0179121
-0.0192765
-0.0142594
-0.00950452
-0.0139281
-0.0151566
-0.0132116
-0.0114167
-0.0145233
-0.0130569
-0.0167617
-0.0169461
-0.0166479
-0.0222161
-0.0181052
-0.0170101
-0.0190878
-0.0181415
-0.00244628
-0.00260536
-0.00880009
-0.00512395
-0.00307521
-0.00420778
-0.00548106
-0.0061311
-0.0029965
-0.00345712
-0.0111722
-0.00612735
-0.0038246
-0.00575136
-0.00666968
-0.00802245
-0.0135991
-0.0151655
-0.0164536
-0.0142199
-0.0142653
-0.0155269
-0.0145029
-0.0154529
-0.00751994
-0.00815616
-0.0120213
-0.00968188
-0.00818872
-0.00928645
-0.0098362
-0.0103576
-0.00331209
-0.00954437
-0.00581169
-0.00631754
-0.00607235
-0.00717008
-0.00555376
-0.00694773
-0.00474526
-0.00783869
-0.012293
-0.0106753
-0.00692018
-0.00815478
-0.00970577
-0.0105561
-0.010965
-0.00781507
-0.00847228
-0.0122821
-0.0106646
-0.00841803
-0.0113301
-0.00944555
-0.0116671
-0.0129618
-0.0094578
-0.0129999
-0.0126343
-0.0123878
-0.0119388
-0.0116254
-0.00793475
-0.0178607
-0.0150561
-0.0143034
-0.0121507
-0.0154797
-0.0130299
-0.0162364
-0.0213282
-0.0214424
-0.0197969
-0.0221115
-0.0215288
-0.0213504
-0.0212655
-0.0212294
-0.016918
-0.018118
-0.0166429
-0.018314
-0.0179945
-0.0176387
-0.0175949
-0.0173822
-0.0216184
-0.0239854
-0.0208049
-0.0269871
-0.0237769
-0.0235025
-0.0239221
-0.0233194
-0.020094
-0.0168576
-0.0184316
-0.0225216
-0.0202554
-0.0180256
-0.0222839
-0.0204913
-0.0208007
-0.0220595
-0.0194694
-0.018218
-0.0208997
-0.0208418
-0.0184907
-0.0195764
-0.0168754
-0.0190369
-0.0223302
-0.0193311
-0.0180362
-0.0206617
-0.0195428
-0.0214453
-0.0182119
-0.0194867
-0.0217901
-0.0194029
-0.0185971
-0.0194789
-0.0192717
-0.0203903
-0.0219171
-0.020599
-0.0185066
-0.0223316
-0.0222945
-0.020704
-0.0214571
-0.0197446
-0.0157966
-0.0051735
-0.00423955
-0.0134325
-0.0131838
-0.00786968
-0.0116748
-0.00623626
-0.0117104
-0.00379177
-0.00351898
-0.00844426
-0.00802254
-0.00579027
-0.00717817
-0.00483389
-0.0239846
-0.020744
-0.0153417
-0.0271607
-0.0246956
-0.0208326
-0.0235563
-0.0194221
-0.0199919
-0.0169016
-0.0233704
-0.0191037
-0.0188731
-0.0187791
-0.0207809
-0.0205812
-0.0167248
-0.0150967
-0.0062884
-0.0145589
-0.015322
-0.0137167
-0.0138054
-0.00980159
-0.0158369
-0.0221474
-0.0177959
-0.013649
-0.0165358
-0.0195389
-0.0144306
-0.0178944
-0.0134864
-0.01075
-0.0135023
-0.00487928
-0.0111805
-0.0121478
-0.00868732
-0.010706
-0.709358
-0.176828
-0.243791
-0.904677
-0.20731
0.135107
-0.446019
-0.124521
-0.0837745
-0.0140779
-0.0616319
-0.0573552
-0.0554347
-0.0241048
-0.0818333
-0.0549591
-0.130556
-0.112957
-0.0642121
-0.0857776
-0.0318696
0.000306072
-0.163927
-0.024649
-0.800936
-0.127008
-0.122088
-0.462399
-0.154953
0.104848
-0.375625
-0.0865342
-0.100776
-0.0914548
-0.154819
-0.116151
-0.17141
-0.0837044
-0.165387
0.151187
-0.0453768
0.00883981
0.000645597
-0.0561217
-0.11718
-0.0718956
-0.166464
-0.0780358
-0.204897
-0.377041
-0.213052
-0.198523
-0.150849
-0.0181229
-0.033384
-0.0434671
-0.0737821
-0.0533837
-0.106633
-0.0827522
-0.0348638
-0.00664672
-0.156031
-0.13955
-0.488216
-0.19254
-0.184821
-0.807546
-0.189939
0.0726161
-0.354273
-0.128931
-0.0850621
-0.00980191
-0.0617063
-0.0669303
-0.0531388
-0.014893
-0.0795393
-0.0467332
-0.124574
-0.123782
-0.0719266
-0.0851994
-0.0795824
-0.0740502
-0.15734
-0.0740774
-0.701296
-0.118391
-0.125426
-0.421539
-0.16878
0.0568857
-0.324445
-0.096596
-0.0957906
-0.124613
-0.176643
-0.11239
-0.150335
-0.125297
-0.136284
0.07475
-0.0363461
-0.0327704
-0.0141281
-0.111595
-0.0843164
-0.0856786
-0.13438
-0.0818251
-0.198479
-0.342551
-0.1741
-0.186718
-0.153314
-0.0506096
-0.0664207
-0.0675289
-0.105876
-0.0762982
-0.0996602
-0.0733926
-0.0783353
-0.0544425
-0.130024
-0.147111
-0.557536
-0.122446
-0.455284
-0.198763
-0.140653
0.0670167
-0.279529
-0.0651247
-0.0252393
0.000546009
-0.0125404
0.0147782
0.00388269
0.0145029
0.0047409
0.00147159
-0.335568
-0.0714317
-0.24625
-0.123288
-0.117171
0.00764308
-0.178113
-0.0843536
-0.0848527
0.0136511
-0.0807447
-0.0435052
-0.141589
-0.000252627
-0.086783
-0.101896
-0.0304381
-0.127233
-0.111703
0.00852175
-0.0425577
-0.0976201
-0.0214003
-0.0506976
0.0366755
0.00149971
0.0275007
0.037883
-0.00806623
-0.0172366
-0.11365
-0.00835224
-0.213032
-0.135777
0.000870361
-0.132384
-0.147457
-0.0763225
-0.106799
-0.0417435
-0.0874036
-0.0787007
-0.00269437
-0.0183209
-0.0846302
-0.0471803
-0.0269448
-0.0176721
-0.333573
-0.581273
-0.11151
-0.148374
-0.303054
-0.164805
-0.101956
0.0811425
-0.648326
-0.911855
-0.0867051
-0.263688
-0.434746
-0.278221
-0.145241
-0.00309601
-0.0527957
-0.0461082
-0.0147865
-0.0511003
-0.0591973
-0.0438513
-0.037278
-0.0448076
-0.098913
-0.187537
-0.118007
-0.0752607
-0.159447
-0.0813632
-0.0514527
-0.0614197
-0.330686
-0.181163
-0.190756
-0.301828
-0.0731188
-0.0638925
-0.183485
-0.0699694
-0.146846
-0.142535
-0.154214
-0.119899
0.0170482
-0.160927
-0.162038
-0.211429
-0.108424
-0.0799465
-0.137516
-0.111727
-0.148183
-0.0437074
-0.120852
-0.0545059
-0.027492
-0.0785253
-0.120191
-0.0704773
-0.0919707
-0.100963
-0.146595
-0.189174
-0.428783
-0.103007
-0.0905427
-0.501296
-0.166512
0.175874
-0.357697
-0.258859
-0.0117663
0.00159719
0.0232187
-0.0144786
0.00440933
0.0461615
-0.00290039
-0.00228245
-0.0410391
0.00317756
-0.0839109
-0.180867
-0.0361967
0.0362261
-0.0175515
-0.00735528
-0.349283
-0.0723573
-0.239492
-0.241576
-0.138688
-0.0516427
-0.13833
-0.116627
-0.012502
-0.115592
-0.136218
-0.0263123
-0.0351172
-0.0648001
-0.119613
0.0960241
0.0904315
0.00503215
0.031284
-0.023303
-0.0131778
0.00856246
0.0315943
-0.000986267
-0.0654189
-0.248015
-0.0192675
-0.0225363
-0.130997
-0.1695
-0.124458
-0.114779
-0.0762085
-0.0769363
-0.018613
-0.000347624
-0.0357647
-0.115463
-0.0238699
0.00266088
-0.234091
-0.305898
-0.142727
-0.0904536
-0.114858
-0.178743
0.0347528
-0.143552
-0.322838
-0.398489
-0.247004
-0.0496388
-0.171761
-0.206327
-0.0108906
-0.098462
-0.121585
-0.148614
-0.101305
6.62736e-05
-0.0693878
-0.0571348
0.0124011
-0.0126251
0.00659961
0.0228278
0.0216189
0.0191248
-0.00151565
0.0175877
0.0163848
0.0197531
-0.157849
-0.102543
-0.0437602
-0.0327076
-0.000405545
-0.105717
-0.062696
-0.00984039
-0.24176
-0.0149528
-0.115448
-0.1039
-0.172689
-0.146691
-0.202559
-0.126887
-0.0465052
-0.0140617
-0.00553448
0.00527041
0.0227611
-0.0144811
-0.0109006
-0.0106387
-0.0889812
0.00889197
0.0105582
-0.0791042
-0.0634653
-0.00591776
-0.108298
-0.00521385
-0.014088
-0.0132445
-0.015213
-0.0131952
-0.0137084
-0.0140357
-0.0138723
-0.0142839
-0.0103271
-0.00425888
-0.0115182
-0.00709948
-0.00863218
-0.00832576
-0.00916691
-0.00913793
-0.0166257
-0.0161308
-0.0178929
-0.0156625
-0.0164481
-0.0171044
-0.0166539
-0.017299
-0.0120953
-0.00905413
-0.0130317
-0.0105746
-0.0112673
-0.0112282
-0.0117217
-0.0116498
-0.0123279
-0.01506
-0.012671
-0.0102085
-0.0126314
-0.0137153
-0.0115184
-0.0126841
-0.0124731
-0.01001
-0.0143379
-0.0154869
-0.013044
-0.0117073
-0.0144295
-0.0138884
-0.0152053
-0.0129205
-0.0107353
-0.0142146
-0.0143918
-0.0130364
-0.0138412
-0.0123592
-0.0156661
-0.0143986
-0.010493
-0.0146752
-0.015332
-0.0141248
-0.0142158
-0.0125458
-0.0181283
-0.0167367
-0.0163694
-0.0159502
-0.0171955
-0.017069
-0.0165204
-0.0163075
-0.0153041
-0.0141692
-0.0133531
-0.0133099
-0.0145973
-0.0145031
-0.0140138
-0.0137968
-0.0121248
-0.0106514
-0.00496643
-0.0078105
-0.0106843
-0.0100861
-0.00787597
-0.00693432
-0.0134348
-0.0121142
-0.00939764
-0.010726
-0.0121716
-0.0117211
-0.0108057
-0.010354
-0.0157628
-0.0150713
-0.0147673
-0.0136614
-0.015125
-0.0153261
-0.0144862
-0.0144459
-0.0156035
-0.0133765
-0.0133224
-0.0147767
-0.014874
-0.0141638
-0.0147952
-0.0136046
-0.0134464
-0.0137112
-0.0126154
-0.00950036
-0.013117
-0.0134183
-0.0115885
-0.0124152
-0.0128975
-0.00884296
-0.0122371
-0.0116646
-0.0118712
-0.0110305
-0.0121081
-0.011424
-0.010054
-0.0181976
-0.0184546
-0.0157754
-0.0143646
-0.0166762
-0.015342
-0.0176009
-0.0208144
-0.0212285
-0.0212663
-0.0197814
-0.0213568
-0.0215095
-0.020522
-0.0208974
-0.0216863
-0.0213878
-0.0218927
-0.020155
-0.0211542
-0.0215008
-0.0207338
-0.0211971
-0.0171746
-0.018069
-0.0183683
-0.0168155
-0.017514
-0.0182089
-0.017364
-0.0176668
-0.020238
-0.0196163
-0.0172963
-0.0191831
-0.0196723
-0.0193605
-0.0184821
-0.018678
-0.0210612
-0.0197807
-0.021399
-0.0209082
-0.020585
-0.0208174
-0.0212399
-0.0209963
-0.0195406
-0.0175451
-0.0188232
-0.0189246
-0.0193533
-0.0185373
-0.0191769
-0.0187612
-0.0208879
-0.0194604
-0.0192725
-0.0209376
-0.0205145
-0.0198085
-0.0204483
-0.0197796
-0.00312423
-0.00908274
-0.00610345
-0.0064021
-0.00583301
-0.0073609
-0.00531865
-0.00695531
-0.0120858
-0.0133814
-0.0125124
-0.0126458
-0.0130513
-0.0132979
-0.0126645
-0.0129658
-0.00824057
-0.0113798
-0.0098803
-0.00977449
-0.0097828
-0.0105954
-0.00925997
-0.0101682
-0.00821614
-0.0115389
-0.00980508
-0.00991961
-0.00965004
-0.0103194
-0.00932847
-0.0101323
-0.0106356
-0.00803766
-0.00818132
-0.0112785
-0.010421
-0.00863987
-0.0110871
-0.00918737
-0.011524
-0.0119741
-0.01209
-0.00923038
-0.0110746
-0.012031
-0.0102433
-0.0115721
-0.00753747
-0.00771221
-0.0110098
-0.00912287
-0.00821909
-0.00889263
-0.00948002
-0.00988365
-0.00886321
-0.0100016
-0.0117861
-0.0117244
-0.0103641
-0.0102431
-0.0110595
-0.0112417
-0.0216459
-0.0205257
-0.019663
-0.0180039
-0.0206727
-0.0206715
-0.0194303
-0.0194839
-0.0195915
-0.0187886
-0.017724
-0.016617
-0.0186747
-0.0187154
-0.0174728
-0.0176209
-0.0177899
-0.0168007
-0.0162653
-0.0150074
-0.0167805
-0.0168304
-0.0159015
-0.015965
-0.0147524
-0.0139474
-0.0132862
-0.0116723
-0.0137423
-0.0139794
-0.0127771
-0.0131401
-0.0194809
-0.0185299
-0.0171954
-0.0162553
-0.0183846
-0.0183033
-0.0173349
-0.0173505
-0.0195223
-0.0164281
-0.0175689
-0.018573
-0.0184375
-0.0174085
-0.0185308
-0.0175146
-0.0175448
-0.0159836
-0.0151639
-0.0145499
-0.0164005
-0.0162069
-0.0154533
-0.0151456
-0.0175769
-0.0147727
-0.0154475
-0.0165824
-0.0166203
-0.0155767
-0.0164683
-0.015547
-0.00325607
-0.00304628
-0.00360376
-0.0141722
-0.00666598
-0.0033263
-0.00940369
-0.00649864
-0.00275997
-0.00221386
-0.00268519
-0.0106057
-0.00509482
-0.0024962
-0.00718334
-0.004705
-0.00309137
-0.00287092
-0.00305252
-0.0146202
-0.00575013
-0.00294313
-0.00787099
-0.00556907
-0.0198269
-0.0178068
-0.0202515
-0.0216571
-0.0201779
-0.0189434
-0.0212472
-0.0205874
-0.00564627
-0.00621184
-0.0159194
-0.0137877
-0.00787177
-0.00875387
-0.0124631
-0.0135285
-0.00295862
-0.0114301
-0.00263319
-0.00320966
-0.00547726
-0.0076707
-0.00303607
-0.00521939
-0.00864999
-0.0175465
-0.0157885
-0.0178512
-0.0140729
-0.0160673
-0.0163551
-0.0176405
-0.00609921
-0.0168861
-0.014101
-0.00481631
-0.00822894
-0.0139305
-0.0071487
-0.0127968
-0.0162256
-0.0165958
-0.0177215
-0.0151959
-0.0159507
-0.0165094
-0.015968
-0.0165173
-0.0175386
-0.0186445
-0.0192591
-0.0163863
-0.0173818
-0.0184083
-0.0172883
-0.0183439
-0.0193823
-0.0200425
-0.0211594
-0.0186749
-0.0192353
-0.0200184
-0.0193009
-0.0200076
-0.0134914
-0.0140676
-0.0151897
-0.0119512
-0.0130119
-0.0139636
-0.0127526
-0.0136481
-0.016431
-0.0174678
-0.0147516
-0.0153302
-0.0163753
-0.0163476
-0.0154939
-0.0154375
-0.0173035
-0.0162472
-0.0191904
-0.018264
-0.0172208
-0.0171455
-0.0182872
-0.0182069
-0.0174549
-0.0146527
-0.0151145
-0.0160732
-0.0163008
-0.0153521
-0.0161792
-0.015047
-0.0182551
-0.0168706
-0.0161173
-0.0191987
-0.0180896
-0.0170589
-0.0181744
-0.0170628
-0.00433735
-0.0125252
-0.00409779
-0.0103018
-0.00828526
-0.00903387
-0.00739302
-0.00818777
-0.0162042
-0.0174775
-0.0162665
-0.0188514
-0.0174509
-0.0174904
-0.01749
-0.0175885
-0.00408869
-0.0122676
-0.00431727
-0.0109168
-0.00810158
-0.00894872
-0.00704734
-0.00814632
-0.0177861
-0.021458
-0.0192814
-0.025909
-0.0224208
-0.0214095
-0.0223811
-0.0223137
-0.0148393
-0.00792492
-0.0153009
-0.0192198
-0.0148336
-0.01092
-0.0169744
-0.0155967
-0.015003
-0.0190478
-0.0150146
-0.00905886
-0.0149094
-0.0164591
-0.0125896
-0.0148689
-0.00673811
-0.0147855
-0.0192146
-0.0143426
-0.010703
-0.0153282
-0.0155685
-0.017398
-0.00813516
-0.0151311
-0.0194199
-0.0149467
-0.0107288
-0.0151236
-0.0148361
-0.0173144
-0.0163404
-0.0147983
-0.0134523
-0.0141326
-0.015601
-0.0152658
-0.0146319
-0.013872
-0.0106378
-0.00357052
-0.0032485
-0.00675148
-0.0080109
-0.00566603
-0.00716557
-0.00419514
-0.00879275
-0.00289643
-0.0026119
-0.00511744
-0.00602757
-0.00425192
-0.00540356
-0.00324666
-0.0119596
-0.00810208
-0.00741216
-0.00947389
-0.010675
-0.00916016
-0.00977591
-0.00801061
-0.0129567
-0.0117064
-0.0132887
-0.00988166
-0.0119301
-0.0125524
-0.0113738
-0.0121656
-0.0120061
-0.00777882
-0.00474054
-0.0105634
-0.0101658
-0.00832965
-0.00956949
-0.00702878
-0.0109029
-0.012284
-0.00857112
-0.00787827
-0.0104031
-0.0109089
-0.00862692
-0.00949506
-0.00937443
-0.00581568
-0.00650734
-0.00362258
-0.00716711
-0.00689048
-0.00602636
-0.00572933
-0.00540598
-0.012549
-0.0132731
-0.0120854
-0.00934505
-0.0107466
-0.0112111
-0.0129632
-0.0215258
-0.028603
-0.0222576
-0.0275941
-0.0244251
-0.0240869
-0.0240223
-0.025395
-0.0168125
-0.0195189
-0.0178737
-0.0196501
-0.0188285
-0.0183156
-0.0188722
-0.0185859
-0.0210597
-0.0277218
-0.0223929
-0.0284698
-0.0254204
-0.024019
-0.0246374
-0.0253261
-0.0170365
-0.0165516
-0.018041
-0.024741
-0.0182895
-0.0168293
-0.0203851
-0.0180555
-0.0181516
-0.0237601
-0.0203744
-0.016732
-0.0197004
-0.0213531
-0.0185371
-0.0209019
-0.0170385
-0.0189504
-0.0244082
-0.0212883
-0.0182488
-0.0195212
-0.021566
-0.0216498
-0.0174452
-0.0209821
-0.0249773
-0.0206711
-0.0195579
-0.0205518
-0.0207969
-0.021933
-0.00504388
-0.0170876
-0.00374463
-0.0118891
-0.010362
-0.0113092
-0.00814283
-0.00901985
-0.0214902
-0.0224672
-0.0181865
-0.0241176
-0.0227746
-0.02207
-0.0221316
-0.0216536
-0.0034965
-0.0109371
-0.0028754
-0.00860792
-0.00683789
-0.00745578
-0.00518496
-0.00630795
-0.0192617
-0.0257629
-0.0165144
-0.0292229
-0.023927
-0.0230041
-0.023332
-0.0229547
-0.0193753
-0.00830993
-0.0172019
-0.0233081
-0.0184883
-0.0127568
-0.0219495
-0.0171975
-0.0192918
-0.0226194
-0.0163642
-0.00907287
-0.0182465
-0.0201392
-0.0135927
-0.0164963
-0.00663531
-0.0158371
-0.0220852
-0.0124692
-0.00948696
-0.0163483
-0.0142078
-0.0187453
-0.0077893
-0.0131543
-0.0217493
-0.0155677
-0.0111419
-0.0142019
-0.0152892
-0.0182228
-0.016212
-0.0135799
-0.0142325
-0.0140237
-0.0150205
-0.0142847
-0.0146118
-0.0139252
-0.00879743
-0.00294108
-0.00572749
-0.00552657
-0.00645981
-0.00519354
-0.0063132
-0.00509803
-0.0120913
-0.00787225
-0.00995934
-0.00962066
-0.0104074
-0.00958128
-0.0102135
-0.00931665
-0.0120344
-0.00773329
-0.00961656
-0.00986453
-0.0106683
-0.00937118
-0.0104026
-0.00913645
-0.0114956
-0.0127172
-0.0129074
-0.00875389
-0.0112496
-0.012455
-0.010566
-0.0118515
-0.0105947
-0.0074356
-0.00735964
-0.0119512
-0.0102645
-0.00815404
-0.0107576
-0.00867544
-0.0123985
-0.0125321
-0.00848943
-0.0101845
-0.0118091
-0.0115389
-0.0104419
-0.00999351
-0.0117085
-0.00904757
-0.00710646
-0.00719015
-0.00991322
-0.00927118
-0.00841034
-0.0076517
-0.00611927
-0.0138124
-0.0152828
-0.00949912
-0.00900484
-0.0130298
-0.0109432
-0.0126606
-0.02143
-0.0262045
-0.0234538
-0.0175997
-0.0217804
-0.024382
-0.0201312
-0.0227181
-0.019144
-0.0212321
-0.0195212
-0.0166534
-0.018724
-0.0203228
-0.0178711
-0.0189701
-0.0104446
-0.0127744
-0.0136868
-0.0108452
-0.0109094
-0.0123052
-0.0114844
-0.012428
-0.0156098
-0.0163703
-0.0104612
-0.0145531
-0.0148358
-0.0142125
-0.01313
-0.0125305
-0.0200899
-0.0167118
-0.0219459
-0.0192356
-0.0187861
-0.0189448
-0.0205277
-0.0205379
-0.0166712
-0.011535
-0.0140329
-0.0150274
-0.0143834
-0.0127009
-0.0148058
-0.0136294
-0.0179409
-0.0158101
-0.0159931
-0.0206769
-0.0179532
-0.016159
-0.0186286
-0.0169994
-0.00191488
-0.00231663
-0.00814171
-0.0021496
-0.00188302
-0.00347328
-0.00339539
-0.00483355
-0.0026224
-0.00260893
-0.0106863
-0.00267603
-0.00227098
-0.00423055
-0.00452088
-0.00659566
-0.0134474
-0.0151274
-0.0168411
-0.0156304
-0.0141573
-0.0156587
-0.0156569
-0.0168267
-0.00260929
-0.00275313
-0.0105964
-0.00291234
-0.00236849
-0.00463738
-0.00446929
-0.00690782
-0.00214772
-0.00853841
-0.0022121
-0.00233214
-0.00388801
-0.00533276
-0.00249577
-0.00390071
-0.00381024
-0.00451861
-0.0115506
-0.0100806
-0.0056213
-0.00662705
-0.00907912
-0.00971093
-0.0100983
-0.00396518
-0.00457344
-0.0118144
-0.00946506
-0.00553689
-0.0097437
-0.00658364
-0.0114248
-0.0133814
-0.00694466
-0.0134025
-0.0125502
-0.0117497
-0.0115687
-0.0106758
-0.0082407
-0.018879
-0.0193598
-0.0168245
-0.0124759
-0.0177943
-0.016458
-0.019087
-0.0223757
-0.0224115
-0.0220732
-0.023568
-0.0220483
-0.022289
-0.022658
-0.0227094
-0.0226421
-0.0220591
-0.0222426
-0.0241077
-0.0225287
-0.0223043
-0.023284
-0.0226997
-0.0257652
-0.0261682
-0.0272585
-0.0313963
-0.0248037
-0.0268151
-0.0296861
-0.0282571
-0.0200126
-0.0208918
-0.0190446
-0.0234466
-0.0225772
-0.0209758
-0.0242051
-0.0233164
-0.0220385
-0.0236982
-0.0221173
-0.0224656
-0.0228958
-0.0226397
-0.0223461
-0.0223384
-0.0229389
-0.0240709
-0.0246338
-0.0256621
-0.0241787
-0.0248211
-0.0243462
-0.0248145
-0.023318
-0.025265
-0.0245239
-0.0225245
-0.022932
-0.0243451
-0.0227747
-0.0236317
-0.00508297
-0.0165344
-0.00511753
-0.0143507
-0.0114067
-0.0122254
-0.00989396
-0.0110207
-0.0214656
-0.0227646
-0.0220261
-0.024293
-0.0226738
-0.0225623
-0.0230105
-0.0226405
-0.00444673
-0.0172636
-0.00522345
-0.0127273
-0.00997247
-0.0110135
-0.00873246
-0.0099984
-0.023424
-0.0268526
-0.0224403
-0.0311032
-0.0284901
-0.0271615
-0.0285524
-0.0273079
-0.0201251
-0.0106256
-0.0202728
-0.0248941
-0.0198033
-0.0148194
-0.022725
-0.0202169
-0.0201445
-0.0244682
-0.0203454
-0.0116685
-0.0198568
-0.0221801
-0.0167635
-0.0198479
-0.00907635
-0.0192983
-0.0248596
-0.0183003
-0.013357
-0.0196375
-0.0193212
-0.0224283
-0.0103416
-0.0187726
-0.0247394
-0.0201672
-0.0142966
-0.0194698
-0.0196371
-0.0225409
-0.00328401
-0.010957
-0.00318629
-0.00624127
-0.00615579
-0.00717909
-0.0048118
-0.00568321
-0.0152784
-0.0167729
-0.0133944
-0.0144305
-0.0153897
-0.0156238
-0.0141435
-0.0145117
-0.00270475
-0.00833864
-0.00250432
-0.00505225
-0.0047383
-0.00541661
-0.00388507
-0.00452514
-0.00822532
-0.0119641
-0.00747737
-0.00959993
-0.00964673
-0.0101103
-0.00866745
-0.00921284
-0.0127326
-0.00525331
-0.00841777
-0.012493
-0.0110927
-0.00779806
-0.0117113
-0.00922769
-0.0132441
-0.0128251
-0.0113751
-0.00608121
-0.0117674
-0.0126416
-0.0094336
-0.0108718
-0.00420599
-0.0070306
-0.0113813
-0.00636079
-0.00565764
-0.00793198
-0.00729634
-0.00919494
-0.00501232
-0.00699856
-0.0118209
-0.0101937
-0.00691374
-0.00802135
-0.00955317
-0.0103199
-0.00373962
-0.00674505
-0.00943247
-0.00658641
-0.00486998
-0.00668953
-0.00642618
-0.00776844
-0.00859482
-0.0095685
-0.0114736
-0.00948809
-0.00876192
-0.00969025
-0.00953743
-0.0104912
-0.0125904
-0.0128652
-0.0137542
-0.0128897
-0.0127075
-0.0131393
-0.0130882
-0.0134658
-0.00820417
-0.00948473
-0.011456
-0.00964033
-0.00865371
-0.0095785
-0.00973684
-0.0105422
-0.007263
-0.0100264
-0.00717556
-0.00856639
-0.00839753
-0.00866508
-0.00831132
-0.0083199
-0.00854513
-0.00945103
-0.0117278
-0.0109654
-0.00957446
-0.00981084
-0.0107395
-0.0109389
-0.0108582
-0.0082613
-0.00952072
-0.0115416
-0.0107692
-0.00950912
-0.0108464
-0.0097612
-0.0116444
-0.0122393
-0.0104623
-0.0122309
-0.0118259
-0.011499
-0.0115193
-0.0113506
-0.00748789
-0.0153547
-0.0182917
-0.0164973
-0.0122264
-0.014816
-0.015492
-0.0180193
-0.0233765
-0.0308827
-0.0248676
-0.030912
-0.030496
-0.0286605
-0.0285252
-0.0277656
-0.0218291
-0.0230858
-0.0224322
-0.024405
-0.0235915
-0.0229895
-0.0234012
-0.0227798
-0.0258557
-0.0327103
-0.0278273
-0.0337489
-0.0317794
-0.0301474
-0.0308251
-0.0305505
-0.0209842
-0.0216719
-0.0219507
-0.0300617
-0.0222555
-0.0211182
-0.0242719
-0.0223728
-0.0217153
-0.028645
-0.0247666
-0.0216504
-0.0236431
-0.0265459
-0.0222427
-0.0257155
-0.0222571
-0.0233906
-0.029491
-0.0260075
-0.0241944
-0.0251528
-0.026686
-0.0279721
-0.0223654
-0.0251857
-0.0291609
-0.024353
-0.0244912
-0.0256886
-0.0250346
-0.0265459
-0.0012232
-0.000885707
-0.00106341
-0.00419432
-0.00201119
-0.00145285
-0.00268293
-0.00229147
-0.00114845
-0.00125701
-0.00122542
-0.00513461
-0.00291325
-0.00225238
-0.00412427
-0.00326168
-0.00111512
-0.000903593
-0.00110007
-0.00387226
-0.00174024
-0.00131967
-0.00285621
-0.00237236
-0.00673354
-0.00729293
-0.00664458
-0.00856565
-0.00734861
-0.00674337
-0.00820184
-0.00778386
-0.00219279
-0.00172455
-0.00523213
-0.00610589
-0.00319621
-0.00256905
-0.00502701
-0.00482857
-0.00182945
-0.00508345
-0.00195987
-0.001498
-0.00253207
-0.00271882
-0.00135225
-0.00174998
-0.00262062
-0.00556231
-0.0072541
-0.00626869
-0.00415067
-0.00493163
-0.00508353
-0.00564232
-0.00224192
-0.00568042
-0.00673282
-0.00268376
-0.0024887
-0.00447375
-0.00334918
-0.00484916
-0.00129382
-0.00131469
-0.000656281
-0.00791348
-0.00309757
-0.0016085
-0.00416383
-0.00259501
-0.00138304
-0.00145125
-0.002367
-0.0081422
-0.00220553
-0.00107059
-0.00382814
-0.00225353
-0.000770213
-0.00220606
-0.00155168
-0.00545019
-0.00156948
-0.000871879
-0.00229904
-0.00198596
-0.0150774
-0.0171576
-0.0122931
-0.0220995
-0.0172652
-0.0153071
-0.0175068
-0.0164057
-0.00222195
-0.0022824
-0.00953615
-0.00925331
-0.00430318
-0.00398695
-0.00823098
-0.00791275
-0.00103263
-0.00680372
-0.00087448
-0.00117506
-0.00244676
-0.00383445
-0.00152298
-0.00127174
-0.00326506
-0.0111129
-0.0104523
-0.00853317
-0.00524693
-0.00923295
-0.00820842
-0.010471
-0.00224777
-0.00772421
-0.00819545
-0.00200205
-0.00344865
-0.00621724
-0.00319862
-0.0080785
-0.00369491
-0.00303704
-0.0109668
-0.00649046
-0.0039957
-0.00487605
-0.00670943
-0.00781917
-0.00258713
-0.00218783
-0.00829332
-0.00511162
-0.00308947
-0.00383309
-0.00528458
-0.00603588
-0.0150588
-0.0133882
-0.0166392
-0.0143595
-0.0146831
-0.0149539
-0.015043
-0.0152291
-0.00816485
-0.00740389
-0.0120429
-0.00957396
-0.00826059
-0.00864139
-0.00972266
-0.0101905
-0.00356695
-0.0107264
-0.00665224
-0.00602358
-0.00587843
-0.00778022
-0.00568632
-0.00711717
-0.00427772
-0.0064583
-0.0100332
-0.0113296
-0.00682197
-0.00685014
-0.00923711
-0.00946344
-0.0121141
-0.00844705
-0.00769232
-0.012371
-0.0114728
-0.00915017
-0.0113122
-0.00911171
-0.0127532
-0.0127124
-0.00824087
-0.0113754
-0.0123457
-0.0116696
-0.0107863
-0.0103063
-0.00196525
-0.00832452
-0.00256388
-0.00529357
-0.00442026
-0.00474239
-0.00449667
-0.00469928
-0.0160318
-0.0248214
-0.0193039
-0.0162731
-0.0188094
-0.0217381
-0.0174235
-0.0202271
-0.00295002
-0.0105048
-0.00296761
-0.00734273
-0.00577902
-0.00674795
-0.00519788
-0.00568806
-0.00737257
-0.0114863
-0.00910346
-0.00966722
-0.00905562
-0.0103173
-0.0085832
-0.00986158
-0.0105578
-0.00536715
-0.00709369
-0.0118441
-0.0101657
-0.00641188
-0.0101344
-0.00780451
-0.011226
-0.0136245
-0.0135424
-0.00538853
-0.0109094
-0.0134353
-0.00874208
-0.0118083
-0.00492201
-0.00683277
-0.0112616
-0.00742153
-0.00618466
-0.00751624
-0.00783613
-0.00904247
-0.00522363
-0.00874761
-0.0126077
-0.0122025
-0.00723502
-0.00927814
-0.0113602
-0.0112623
-0.00636704
-0.0189077
-0.0140573
-0.014911
-0.0115427
-0.0144682
-0.0126302
-0.0154341
-0.0233303
-0.0225972
-0.024253
-0.0246463
-0.0228982
-0.0228285
-0.0239342
-0.0234692
-0.0229378
-0.0272958
-0.0324052
-0.0307387
-0.0275468
-0.0291484
-0.0294405
-0.0312152
-0.0251869
-0.0283608
-0.0306275
-0.0329829
-0.0282237
-0.0296459
-0.0309599
-0.0316985
-0.020754
-0.0200606
-0.0197467
-0.0255945
-0.0221453
-0.0206942
-0.0238861
-0.0227391
-0.0223416
-0.0258206
-0.0254202
-0.0216231
-0.0232871
-0.0243942
-0.0238133
-0.0245506
-0.0208923
-0.0212415
-0.0268441
-0.0298084
-0.0238787
-0.0247477
-0.0280097
-0.0279454
-0.0231118
-0.0308388
-0.0269091