/*--------------------------------*- C++ -*----------------------------------*\
| =========                 |                                                 |
| \\      /  F ield         | OpenFOAM: The Open Source CFD Toolbox           |
|  \\    /   O peration     | Version:  2506                                  |
|   \\  /    A nd           | Website:  www.openfoam.com                      |
|    \\/     M anipulation  |                                                 |
\*---------------------------------------------------------------------------*/
FoamFile
{
    version     2.0;
    format      ascii;
    arch        "LSB;label=32;scalar=64";
    class       volScalarField;
    location    "700";
    object      p;
}
// * * * * * * * * * * * * * * * * * * * * * * * * * * * * * * * * * * * * * //

dimensions      [0 2 -2 0 0 0 0];

internalField   nonuniform List<scalar> 
48448
(
8.08341
7.61815
8.14339
7.95982
7.81598
7.78011
7.90874
7.88007
6.93536
6.094
6.47353
6.13947
6.42883
6.43667
6.38756
6.31597
8.09169
6.86149
8.02022
7.33265
7.4825
7.17896
7.35728
6.91224
7.86791
6.77748
7.46439
7.37391
7.32428
7.0922
7.35082
6.82059
7.2204
7.75397
7.74186
6.93707
7.26074
7.48997
7.19807
7.49186
7.25669
6.66968
6.81939
7.68471
7.29033
6.78027
7.3097
6.96714
7.83857
7.76697
6.83961
7.3322
7.81672
7.48663
7.33551
7.179
7.92954
7.10545
6.56552
6.68835
7.3858
7.20025
6.86485
6.66058
8.19452
8.24234
8.69397
8.14009
8.23034
8.31026
8.45819
8.6023
8.05182
7.51139
7.75685
7.43965
7.85884
6.99484
8.13288
7.46028
9.20653
8.03129
9.24155
8.45714
8.8536
8.93869
9.09095
8.36849
7.98109
7.58293
7.67216
7.30378
7.86893
8.18743
7.69048
7.39585
8.02777
8.92417
8.20359
7.57992
8.35227
8.34552
7.9696
8.22843
8.07677
7.71293
8.00294
8.79153
8.23563
7.85466
8.49465
8.19789
8.89926
8.33166
7.87816
8.43766
8.57908
8.5514
8.67865
8.16164
8.96352
8.08921
7.36701
7.61234
8.58152
8.67905
8.46138
7.74499
0.693371
0.894468
2.87135
2.78441
1.57045
1.70409
2.31901
2.08514
1.0018
1.09687
3.45031
3.18598
1.74495
1.81977
3.01043
3.28061
5.46521
5.80666
7.67572
6.53352
6.01221
6.15159
6.80017
7.14056
4.50624
4.76789
6.13509
6.2492
4.93354
5.15785
5.89009
5.8766
1.52876
3.54559
3.33648
3.58725
3.01675
2.60448
3.15254
3.65772
1.69443
3.91673
3.94152
3.65562
3.07693
3.30147
3.33831
3.78399
4.55847
4.34866
4.6678
6.45543
4.84012
4.40127
5.22978
4.59779
4.64846
6.49189
4.82523
5.32242
5.39892
5.59844
5.072
4.87025
0.363891
0.514407
0.576125
2.35948
0.99794
0.601109
1.82559
1.1858
0.605014
0.525119
0.529769
3.01359
1.34894
0.59606
1.83593
1.31412
0.678774
0.651141
0.525336
3.22047
1.19638
0.796902
1.56761
1.31983
5.09229
5.30692
5.32699
7.17598
5.59136
5.24778
6.09675
6.10347
1.15892
1.09611
3.08431
3.60152
1.71832
1.61832
2.85556
2.79924
0.619641
2.99701
0.642577
0.651491
1.42347
1.96322
0.719944
1.39794
1.64157
3.97642
3.85603
4.07883
2.90478
3.62229
3.6583
4.08904
1.36607
3.93583
3.7579
1.53326
1.88113
2.74725
1.92932
3.13204
1.30555
1.41045
3.585
3.44575
1.79363
1.84886
3.17216
2.96276
1.24114
1.28059
3.54692
3.07719
1.42115
1.87489
2.47115
3.3136
5.89717
5.56561
7.53615
7.17613
5.90309
5.97555
7.14338
7.54997
5.12133
5.14565
6.91052
6.06324
5.67812
5.54177
5.87857
5.98107
2.04166
3.97562
3.722
3.85228
2.62655
3.49114
3.35654
3.79379
1.81212
3.68519
4.01892
4.16657
2.80063
3.59345
3.79736
4.00318
5.24761
4.53244
4.23942
6.86553
5.70013
4.70627
5.8647
5.38553
5.03278
6.79332
4.86805
5.37145
5.9479
5.98221
5.29206
5.59138
22.7783
17.8164
13.7837
20.3426
29.7978
27.1959
31.5125
22.9459
36.4763
44.4605
41.1897
34.6139
46.3906
42.94
40.1132
41.8826
15.4886
27.8106
12.06
-2.55179
36.2087
32.4282
15.8304
31.5675
12.0377
6.53246
3.68761
5.88309
12.7058
10.4368
4.78719
16.2705
50.6182
30.5939
15.0565
37.3218
45.6995
2.12947
12.974
25.1938
64.7258
50.5775
47.3653
48.8712
27.7723
-8.50048
9.83447
50.1252
24.6659
10.2437
24.0591
16.9801
21.7201
26.1395
25.4976
28.4789
43.1434
35.1149
48.4204
38.7351
0.30242
30.8223
38.8568
-0.419542
10.1471
9.81443
9.30694
9.5445
10.0665
10.1762
9.76909
9.86908
9.82271
9.3868
9.32842
8.63528
9.85456
9.88842
9.01555
9.72427
8.71701
8.91584
8.39854
8.52459
8.72095
8.77776
8.45085
8.46696
8.36224
8.40683
8.67126
7.73844
8.73422
7.76669
8.67421
8.51807
9.98416
9.32124
9.74273
9.00712
9.49004
9.40667
8.95387
9.58612
10.2296
9.01051
9.28975
9.42441
9.80893
9.22635
9.22866
9.26799
9.1037
9.1553
8.38996
8.56134
8.91537
9.62711
8.98086
8.30031
9.15116
8.54776
8.76944
9.12071
8.89032
8.83522
9.03497
9.07578
12.7388
6.90914
1.57423
1.76657
10.0138
4.76057
-0.671912
-2.91233
2.88219
6.6717
-7.03994
2.16906
0.379283
-2.68582
0.948103
-3.57888
1.44398
-1.9084
3.30606
-0.990294
-0.113284
2.67411
6.18506
8.94059
2.20633
0.0276197
0.197693
0.779158
1.46083
1.61873
3.27138
2.56614
-0.0440435
-1.93436
1.32174
1.0188
-1.46007
-4.34498
1.80693
0.905315
-1.83927
3.1146
-3.90205
-2.3082
-4.09475
-0.172339
-2.76204
-4.34748
-3.51623
3.52241
6.0213
-0.772668
-3.9162
-0.709765
-2.13553
-1.34937
-3.28927
0.00796147
2.34468
-2.58065
-1.74397
-1.74293
-3.62068
-2.48317
-0.163789
-0.171425
-2.8255
-0.532716
-0.610025
-0.810354
0.252644
-2.81348
3.25197
2.70016
-1.70396
0.465125
3.46795
3.01614
5.65316
5.28311
-24.7684
-7.11574
-4.4156
-1.55452
1.21355
26.2471
7.78007
-9.22162
2.12464
0.699057
-1.78536
1.03164
2.2485
2.26738
-3.01255
0.727855
0.252559
-3.00971
0.739088
1.28141
-0.835402
-1.7535
0.114073
0.775787
-0.935833
0.178127
-2.96392
-1.83709
-0.449621
-1.1984
-3.56214
-1.52835
1.03814
0.867296
-1.32724
-8.24472
-8.45693
0.914532
3.91022
2.84124
-7.31218
-3.98057
-0.98696
-4.7295
2.71558
8.69705
-4.28397
-2.53445
1.50155
5.54741
2.47136
3.1351
4.42183
5.81482
2.61063
3.76889
5.51103
5.59301
6.04067
5.30107
5.70186
5.68271
5.5846
5.41641
2.85833
3.901
2.53131
3.41252
4.21696
4.59249
5.75921
3.68643
4.91579
5.09007
4.05136
4.8246
5.25796
5.10286
5.36437
4.6274
4.79949
4.18412
6.67107
5.67502
5.40563
5.54446
5.28547
6.00042
4.44635
6.01221
5.28493
4.69537
4.86011
5.72405
4.75111
5.25882
5.03145
6.15926
4.03393
4.03916
4.29345
5.67344
6.03132
5.62576
3.61209
4.93838
4.2548
4.38252
3.53185
6.6581
4.2519
3.8929
1.60576
3.18845
3.67369
3.37274
3.37497
1.43238
3.2586
3.58418
3.64111
4.22702
4.07784
4.4614
3.53906
4.16305
4.8762
5.36313
4.76633
6.15171
5.54508
5.19725
5.3653
5.28044
4.79683
4.9797
4.72799
5.84538
5.1957
4.74073
4.60098
4.84834
4.56929
5.23239
3.57064
4.33162
4.00075
3.96735
3.82653
4.33612
4.15629
4.31718
3.57273
5.29274
4.31924
4.29912
3.83021
5.97556
4.57655
4.16896
4.37409
4.74945
5.37339
4.80817
4.39707
4.73369
4.04591
5.66605
4.44541
5.26418
5.8306
4.54429
4.69312
4.23321
4.1487
3.84655
14.4115
9.90116
7.35489
8.47566
13.2821
10.4729
10.8154
10.2371
9.56502
7.77343
5.60682
6.79828
7.34135
7.11674
5.97582
4.99173
2.77163
4.13048
4.15242
2.00556
3.49356
0.891586
3.262
1.63606
6.02013
4.18494
3.0108
5.61336
5.00315
5.07728
4.6328
3.52704
7.28533
5.27169
8.23381
5.18091
5.08474
7.58312
6.30792
6.18732
6.49483
6.52359
3.83122
2.34119
4.59502
6.21123
4.79284
5.34065
2.32092
7.9721
4.22562
3.56769
3.11749
6.79905
4.23427
5.79958
3.74365
3.03872
5.31996
3.00007
4.2747
2.77395
3.18227
3.5291
0.439824
0.823644
1.50184
2.29582
1.17754
1.13802
1.28364
1.02697
2.34556
1.99261
2.00273
1.55631
1.89797
2.2059
2.02198
1.20041
3.17034
5.65797
6.1953
3.67512
4.33873
4.82301
5.10444
5.76076
4.06876
3.09136
4.8826
4.83981
4.40697
3.61874
4.64697
4.14358
1.21263
2.03197
2.18572
4.40659
2.09632
1.3396
3.15475
2.00365
2.54791
1.63415
3.81577
2.17849
2.79322
2.08828
3.16421
3.41343
2.7193
3.22961
2.86638
4.00595
3.14177
3.38756
4.20492
3.18376
2.48296
2.77353
1.05022
4.09273
4.50532
4.03786
3.47548
2.63689
10.1488
9.42191
10.547
9.54676
9.82634
9.78144
9.72145
9.75777
8.79769
8.28664
8.7778
8.28422
8.5221
8.52845
8.54516
8.59697
10.546
9.52402
9.90864
9.08913
9.78822
9.92577
10.1106
9.73684
8.63538
8.06423
8.32103
7.25134
7.99783
7.90401
8.13885
7.85528
9.11255
9.95369
9.10734
8.4847
9.11354
9.44316
8.87005
8.92985
9.10517
8.37789
9.11846
9.89144
9.16206
8.84183
9.62982
9.14338
10.3385
9.07029
8.56647
9.27321
9.47514
8.91416
8.75712
8.40533
10.1917
8.84606
8.5498
9.44053
9.37263
8.80145
9.45474
8.80818
10.1275
10.0496
9.3432
10.1115
10.2984
10.035
10.1373
9.82741
10.0849
10.1375
9.5386
10.4505
10.2342
9.95579
10.1112
9.84072
8.76408
8.92436
8.39066
9.01383
8.91759
8.76898
8.82647
8.66613
10.0605
10.8375
9.73333
10.5821
10.6033
10.3345
10.2387
10.2087
10.2153
9.57025
10.5391
10.4943
10.0928
9.89159
10.4074
10.2212
9.94109
10.1248
9.36047
9.29138
9.79943
9.87966
9.47734
9.57041
9.4498
10.3118
10.2479
9.59481
9.46914
10.0462
9.79289
10.1799
9.13758
9.43068
9.97885
9.21775
9.17334
9.60926
9.44262
9.85316
7.42496
8.11128
9.3369
10.9404
8.90157
8.00772
10.1572
10.2025
9.69589
11.3135
11.4661
10.8699
10.8319
11.0957
11.0835
11.3309
10.4109
11.516
11.7683
12.5893
11.3734
11.7157
12.0197
11.7306
10.7701
11.1972
12.9773
12.3976
11.338
11.742
12.6685
12.9433
9.54596
9.76468
9.54209
10.3008
9.73979
9.6217
9.78943
9.69674
9.48482
10.5112
11.3617
9.73501
9.74814
10.9013
10.0727
11.2491
10.8919
10.0375
11.2732
12.3887
12.1171
10.7604
11.9057
11.4546
11.4726
12.4227
11.3813
11.109
11.2156
12.2088
11.2517
11.9226
-2.34441
-1.31093
-3.07823
-2.87682
-2.0812
-1.41203
-0.710793
-1.63753
-2.03067
-2.55639
-1.93092
-2.03153
-1.57114
-1.48529
-1.58903
-2.32282
-3.59571
-2.29878
-2.13586
-3.68121
-2.20788
-1.24903
-2.76557
0.0457735
-4.8373
-2.21418
-4.14286
-4.25582
-3.15554
-2.27627
-2.58961
-2.35694
-1.50157
-2.14823
-2.55149
-2.00151
-1.53894
-1.89533
-1.64692
-1.49842
-1.8125
-1.73145
-1.47622
-1.26481
-2.00943
-1.67602
-1.85524
-1.42844
-2.56182
-3.12419
-2.21537
-2.80795
-3.98399
-2.12481
-2.35932
-2.6391
-0.540091
-0.00348591
-2.16829
-1.76221
-1.93611
-1.43655
-1.51243
-1.63146
12.5503
10.6847
12.7454
12.277
12.3579
13.0025
12.7077
13.6027
11.1698
7.17072
4.54953
9.58139
9.68558
9.35014
9.47384
7.97478
11.1594
-2.47902
8.48959
11.119
10.3179
11.4499
11.5915
12.9376
11.999
12.3414
11.7981
13.3388
12.8901
11.8981
12.6714
12.0361
15.0514
15.0302
12.413
12.0358
14.0554
13.387
12.2785
13.1184
15.4275
10.5967
10.0132
12.5933
15.3721
11.9905
13.5428
13.5728
13.1079
12.5978
12.006
11.1307
11.7188
13.5448
11.7802
12.2978
11.4612
10.7969
11.1985
7.77234
11.3338
10.9839
12.1922
12.0801
-3.57626
3.23658
8.18276
8.94506
-2.90233
0.981396
7.05021
4.60769
5.93442
4.86184
3.86864
4.00919
4.9091
3.41379
3.97857
4.2671
3.49306
0.873314
1.25151
0.396603
4.74017
1.51987
2.63688
0.832757
7.01375
5.12166
0.168889
5.77487
7.24035
5.51127
6.04319
3.54389
6.84304
9.96676
8.13762
7.38006
7.07183
6.06885
9.10527
5.91581
5.42349
3.77613
2.43345
4.45662
4.26818
3.44108
3.25833
3.8124
10.2707
6.8039
5.21755
1.6874
7.29011
6.41036
6.68588
5.39476
3.93798
0.931812
2.49056
1.44974
1.84911
2.71942
1.37865
0.573213
44.92
50.3394
45.0767
43.7805
43.8525
41.5697
41.7816
40.679
41.4139
29.1572
25.8164
28.3149
32.3081
28.8334
29.3827
27.0835
46.2471
38.3339
43.9655
47.09
45.897
43.8263
46.9411
43.8905
44.4175
36.201
41.4333
31.4913
36.961
35.6555
35.5615
34.98
49.8515
45.611
44.378
30.1354
44.3096
42.3569
41.4018
44.7594
43.6773
29.2233
34.9485
46.7612
39.272
33.5815
38.614
34.0764
45.6202
44.0077
29.4693
42.3565
44.3027
43.6887
43.3187
39.167
46.775
41.5733
27.6013
39.6995
46.1302
41.8352
40.1796
29.6346
-1.44475
5.971
1.3317
4.71368
4.83045
4.83761
4.5537
2.7389
6.3207
3.60223
4.28262
1.78675
3.97883
3.26098
2.06568
3.84877
-3.77283
4.23498
4.84909
0.490999
0.689837
0.930722
0.0128159
2.04796
6.00936
1.55429
1.18267
2.94454
3.99526
3.83715
3.43728
2.65879
8.07372
3.04242
5.21142
2.47133
4.53864
4.31602
5.36197
5.24787
6.12223
1.35518
3.14433
6.51117
5.74004
1.0937
6.83395
1.54307
1.0353
5.28797
1.84261
0.306426
1.35604
3.36401
1.31377
3.41074
5.32994
0.492522
0.474046
4.20227
0.784213
0.445859
1.27683
1.69807
-2.39437
-3.64592
-1.40138
-7.90368
-3.88274
-2.567
-3.27805
-2.18196
-3.1837
-8.22206
-5.92231
-1.23747
-1.92764
-6.12182
1.55868
0.174638
-0.962609
-4.84661
-7.26862
-5.39268
-0.920349
-2.98092
-1.06217
-5.02167
-5.93077
-4.03855
-3.95394
-6.71497
-4.76559
-3.78103
-3.20309
-3.28686
-3.70703
-1.38464
-5.05302
-1.11398
-2.41709
-1.88262
-2.69847
-3.49342
-3.10512
-3.36475
-4.85244
-1.55346
-1.99641
-2.01602
-2.14323
-1.63643
-0.996249
-3.75304
-1.39251
-2.19781
-1.74849
-2.67883
-1.57049
-2.68932
-0.924331
-2.78897
-1.86235
-1.57784
-1.14878
-1.37657
-0.0327159
-1.34218
1.72022
3.36018
3.55576
3.58004
2.45088
2.9448
2.79261
3.47367
4.53169
5.28548
5.4141
5.62198
5.00335
5.12637
5.39628
5.4199
4.74171
5.55432
5.67508
5.85148
5.3232
5.45255
5.66906
5.66581
5.10823
6.00738
6.0722
6.62945
5.76018
5.8734
6.08455
6.04251
3.9283
4.23267
4.17505
5.2845
4.39517
4.16376
4.75289
4.529
4.28087
5.45866
5.31553
4.4643
4.58371
5.08781
4.66057
5.24378
4.62178
4.55004
5.67972
5.91102
4.91602
4.81992
5.47929
5.51736
4.76796
5.84473
5.73549
5.55294
5.26477
5.65397
5.53531
5.79188
5.97635
5.91911
6.82617
6.1709
5.98736
6.18733
6.29383
6.45588
5.79534
5.65055
6.57419
5.99081
5.77566
5.9385
6.15713
6.16911
7.45069
7.39792
8.15634
7.99333
7.55251
7.58786
7.89938
7.89418
6.54008
6.53784
7.62886
7.11958
6.60702
6.86821
6.91119
7.21186
5.88737
6.856
6.32185
6.19055
6.28887
6.52655
6.16748
6.53466
6.06444
6.32006
6.85242
6.96875
6.31722
6.34459
6.64294
6.72424
7.19987
6.70593
6.64957
7.58556
7.19146
6.81327
7.22848
6.87669
7.22344
7.68102
6.67204
7.05848
7.28621
7.37781
7.04892
7.09412
-1.86426
6.69435
9.94465
13.3805
9.07848
8.30007
9.01709
8.77932
11.3279
11.9862
10.1342
12.2357
12.0239
12.0746
7.38721
10.7792
10.1835
8.25786
9.10848
2.09698
9.59933
10.0515
8.15622
6.80627
5.85712
5.63134
-0.441457
2.11552
3.57417
3.95545
4.05275
1.66389
9.82178
7.96918
11.7443
10.9912
7.73684
6.14062
12.3043
12.9016
12.2583
11.6449
7.89893
12.4333
10.7906
8.06511
11.8843
9.58002
7.45585
10.5902
11.3086
5.88108
7.74335
7.51588
10.9108
8.75652
9.75854
2.37811
9.62439
7.03459
11.1694
10.8799
11.5308
13.343
-2.76994
-0.768755
0.0468347
-1.47342
-1.11018
-0.0435196
-2.17355
-2.86822
-2.55438
-2.28738
0.491776
1.10292
1.18496
-2.08196
0.574244
-0.731987
0.352818
1.30973
0.194136
2.55853
1.1855
0.184339
1.51939
0.314782
2.16545
2.76018
2.6771
4.28557
2.22272
3.58648
3.94321
3.97636
1.24639
2.45839
0.0914154
-0.774609
-0.468967
-0.728302
0.270996
0.349547
-1.86844
1.09235
0.726243
-0.429256
-1.05466
-0.355131
-0.102205
1.60957
0.0207545
1.62432
1.50194
2.24892
1.32459
0.831004
1.7404
1.72987
-0.309129
3.00878
2.72215
0.653612
0.268145
1.96456
0.837129
2.10985
-3.05684
-1.29811
-13.1869
-1.83366
-0.146255
-2.7774
-0.0221532
-1.1145
0.0467518
-1.23406
1.48432
0.224913
-0.232341
-0.272299
2.74528
1.14821
-12.7183
0.200796
-11.7237
0.779828
-6.93981
-9.86998
3.4128
-0.934471
2.25446
3.27215
4.75134
4.64731
4.36753
2.95158
4.12999
3.68311
-0.407224
-6.94714
-1.60979
0.555895
2.06307
-0.306059
-1.30115
-1.73435
-2.32466
0.126
-1.54239
-9.79923
0.866984
1.02875
-2.72458
-0.0732021
-1.07685
0.950359
5.17983
3.0071
0.659409
0.847212
2.59794
-2.06428
-2.90613
2.06661
3.19088
2.36166
-0.753967
1.82999
4.17816
3.08156
-3.31622
10.3662
9.47336
6.09469
-0.580267
6.76456
4.12845
6.04754
9.47952
7.56649
5.30571
19.4643
9.03568
6.05614
8.39236
7.13413
8.57608
5.7369
4.59753
7.19256
7.52764
4.14012
7.20605
5.98841
8.35899
20.1891
5.23931
11.2708
12.4806
21.6494
14.0961
26.3061
8.6751
8.75541
14.1338
19.2411
13.3558
11.607
16.2664
12.7269
8.67985
20.021
4.8772
8.55401
10.6553
10.8228
8.5411
7.15409
10.2726
11.7528
26.7678
10.7683
-1.09689
-0.608021
2.6963
22.9731
11.6173
11.4282
14.5666
11.4409
9.29985
6.32008
8.65546
7.19961
4.8056
5.44193
8.79399
8.64631
4.64779
4.04754
6.1177
7.08211
3.15177
8.12896
8.96434
17.4235
7.34416
6.67074
10.8203
8.90996
10.2708
6.22896
2.04507
9.77637
9.71071
5.97578
8.54181
6.9752
10.2851
20.7479
16.9333
16.2125
20.2328
19.5948
10.1004
13.2961
9.53459
9.6501
12.2813
15.6644
9.36543
10.0853
7.28206
6.51975
3.93454
16.4245
8.52431
8.92935
7.6466
12.7998
9.83378
9.95254
10.0349
7.7686
16.707
13.4319
15.2374
13.4337
13.9013
17.7934
9.09732
13.1935
17.3632
6.95585
12.1208
11.9962
10.919
13.3278
4.1165
4.07767
9.44921
3.65464
-2.60577
5.4902
3.04229
3.69893
4.8727
5.63373
6.26159
0.318014
4.75597
5.83792
1.22518
5.95349
15.652
13.6469
25.6099
6.20537
12.3678
16.3226
15.4618
20.1324
2.0482
2.07353
3.24435
4.28824
2.31686
2.7725
2.42523
2.99584
-0.130619
4.31777
3.34996
2.12573
-1.92391
3.25729
0.923901
3.42433
3.83397
1.99163
5.87707
10.3179
2.12108
0.570552
7.78093
3.36161
6.44669
3.73867
2.45765
4.29609
4.78105
4.14043
4.13228
3.16537
9.18372
4.65206
2.93977
7.87111
5.61673
4.19983
3.33003
3.32855
12.3732
7.8621
8.57721
15.8044
10.0352
8.16142
10.3503
9.59792
4.93183
4.09619
3.12514
6.43032
6.50849
4.21779
6.34302
5.15509
9.24313
2.24541
4.87657
-0.202354
10.1945
7.5308
8.27237
9.72602
0.717759
4.08765
-1.20945
1.82909
6.27006
5.95526
1.5098
4.81886
7.40704
10.2891
8.79105
6.8296
6.31832
7.04813
3.49525
7.37705
5.4356
7.04402
4.02591
7.49223
6.02002
5.36499
4.16503
5.244
12.0582
9.42797
4.95578
3.16176
13.4639
8.64535
5.50045
0.930551
9.74159
5.77497
5.27186
4.32793
8.81775
6.06914
5.17562
4.43577
6.43143
11.3539
10.3454
11.9274
13.3553
12.0713
13.564
11.745
8.74177
5.11099
5.9658
6.9171
9.83259
7.92398
9.64267
7.99605
13.6771
7.71274
12.153
14.7207
11.5739
14.2302
9.20617
11.5185
6.86692
4.63033
1.21576
3.08256
4.84963
8.41481
3.43853
6.66472
12.6939
11.147
9.03116
8.5333
11.3539
12.936
8.74315
11.3137
12.118
9.15067
9.4585
13.6584
10.933
11.3971
10.4464
10.9524
10.296
7.19199
7.22896
8.66432
11.112
9.61033
10.2485
8.91474
11.3891
11.1366
8.21163
8.70105
10.5926
11.7258
11.3473
3.56055
12.4753
12.0857
10.0562
10.3061
13.1799
11.3232
11.4392
10.9065
11.8274
12.2445
11.3421
11.9033
12.054
11.1739
12.8934
12.977
10.5202
11.082
13.2102
12.9405
11.2473
10.1115
11.9767
11.893
6.51867
8.57461
8.39257
4.93928
7.99939
6.66757
6.05596
6.49197
12.2985
12.2618
11.9254
12.4856
11.8062
10.7984
13.4981
12.2324
11.1306
12.9772
11.3366
10.7796
11.8394
12.9802
10.4589
11.337
11.9603
9.22431
10.1835
9.98505
9.72501
10.536
11.6286
8.13932
12.0505
13.4429
11.6247
11.9061
9.44582
10.1453
11.3451
7.50535
8.04863
10.133
12.0261
9.03653
8.85998
9.39391
7.87885
9.77558
12.0801
12.3519
11.7147
10.8192
11.0869
10.7148
10.5224
11.0085
11.5586
12.6469
13.1066
14.0256
12.1804
12.5266
12.9467
12.3994
7.76449
10.0814
9.58615
1.48683
7.41907
10.5476
9.60914
10.8883
10.0317
10.7482
9.09312
10.8942
10.1854
10.5356
10.52
10.0016
11.2591
10.9855
11.3446
10.1943
10.1096
10.6319
11.2179
11.5099
9.15163
8.74112
9.44395
10.8213
10.0752
9.93318
9.99427
8.90297
11.6677
13.5524
10.6597
12.1694
11.9195
13.8988
11.2786
13.2213
1.18554
0.993281
3.04733
2.98216
1.70152
1.6054
2.43124
2.37338
0.863638
1.01769
2.58075
2.71625
1.47262
1.43918
2.32143
2.33895
4.39723
4.03826
5.28775
5.27191
4.47398
4.42647
5.01532
5.00042
4.16577
4.00615
5.15001
5.00362
4.43187
4.32426
4.81779
4.87983
1.51999
3.31051
3.22537
3.25327
2.34532
2.90872
2.6766
3.15611
1.43578
3.05873
3.07773
3.2815
2.41656
2.79885
2.77716
3.09495
4.03651
3.83205
3.74393
4.97824
4.29777
3.98394
4.45526
4.13461
4.05925
5.06921
3.80235
3.92491
4.30734
4.48809
3.8705
4.19666
7.93547
7.36837
7.49902
7.27286
7.64926
7.58267
7.56369
7.48598
6.81744
6.06588
6.46877
6.06735
6.43098
6.39719
6.35176
6.34649
7.1176
6.72823
6.81151
6.65542
6.88883
6.84035
6.79425
6.79055
6.58951
5.92248
6.29202
5.78529
6.16047
6.14258
6.07385
6.1198
7.06619
7.23433
6.90276
6.30378
6.9692
7.15218
6.70157
6.88043
7.04065
6.28044
6.7337
7.16489
6.95235
6.5933
7.02574
6.75994
7.122
6.83461
6.22698
6.55798
6.93889
6.8258
6.6305
6.46377
7.09167
6.56757
6.23917
6.67686
6.8313
6.58989
6.65319
6.42955
12.999
9.47138
5.42039
-1.60409
14.2642
13.2833
5.38382
7.62707
1.49452
1.72932
4.79261
1.34894
-0.282437
-0.151339
1.42762
0.842587
2.53793
0.786941
-0.698451
-12.5918
4.23022
3.48994
3.30918
0.334842
-10.9476
3.34822
-13.1627
10.3988
5.86894
4.75382
-3.99139
3.22048
6.08274
3.87213
-1.86474
-0.0971338
3.74261
1.74229
1.49951
-2.49061
5.08288
-0.548895
3.66136
3.47433
3.35954
1.60966
2.46904
3.89894
1.81561
-2.52664
1.25488
-6.72112
-1.54261
-3.04758
4.27727
4.31489
1.97684
-4.78904
1.06687
2.67333
1.69435
2.50441
1.84065
0.305556
-0.417336
0.254535
-0.580503
1.78135
-0.0895903
-0.180783
-0.159072
-0.134854
4.00687
6.3646
3.94971
5.28692
5.23106
4.4005
5.51693
4.55587
0.350081
1.97718
0.737138
1.21724
0.715805
1.30336
0.978597
1.19406
3.60191
4.05454
4.28816
5.51162
5.29388
5.31404
4.70265
4.71367
1.54042
-0.383962
2.05176
3.49178
2.15091
0.763301
1.97307
1.98803
2.17149
4.64974
2.54212
0.249218
1.83561
3.86256
1.19824
2.80193
-0.704543
2.22433
4.16749
2.04785
0.74218
2.09502
2.1106
3.76081
0.0239739
2.14874
4.23586
2.88902
1.36639
2.3459
3.10345
2.7731
8.10211
4.08733
1.88896
2.99173
6.5884
5.56195
4.53135
4.87236
0.449723
-0.56561
0.205495
0.0418335
0.143491
0.0105782
-1.11008
-0.691601
4.77633
1.89655
6.47873
4.74604
5.7191
3.21093
8.96189
5.01407
-1.98479
0.607054
1.72257
1.4178
-1.81312
-2.4434
2.50902
0.956774
1.29684
5.96624
2.13659
0.177329
-1.3041
2.58287
0.232722
1.39476
2.15201
-0.111583
0.629301
3.30124
0.150427
-0.492693
-0.789927
0.822201
5.40334
5.15467
1.28269
3.20601
3.64582
3.42168
3.10513
0.741144
4.70275
2.31027
0.478649
0.945774
2.70106
2.39376
0.698993
0.0709421
10.8775
10.2582
11.674
9.96221
11.3573
10.9499
11.1599
11.0028
8.92258
7.29839
9.23505
7.89085
7.86063
7.56842
7.88118
8.0129
12.5561
10.6058
15.4213
11.6957
12.8905
12.9137
12.0186
12.8239
7.65212
5.33183
8.84545
6.17749
6.82834
5.79173
8.04142
6.91632
10.3491
12.5991
10.2739
7.64003
10.1816
10.4619
8.67799
9.83184
9.38707
7.68657
9.36262
12.2602
10.047
9.54633
10.1251
8.80852
12.2508
10.0074
6.34875
9.52995
11.1259
9.98482
9.32508
7.44385
11.8265
10.1356
6.92707
8.61347
10.25
7.15019
8.1078
7.79712
-0.350473
0.878529
-0.503247
1.78229
-0.0406681
-0.114186
-0.744916
0.0271543
2.2767
1.62452
0.903334
2.87772
2.57695
2.65872
1.00342
1.90008
0.430777
0.973173
0.85001
2.57205
0.779831
0.552889
1.52879
1.11431
3.03206
4.08736
4.19641
5.59184
4.03926
4.00422
5.05584
4.75226
2.05358
0.426333
2.28671
4.0798
2.21427
0.401587
3.0934
1.53957
1.94363
3.17767
0.967023
-0.182086
1.96175
1.10005
1.30982
1.77568
0.774398
2.22799
4.28197
3.56946
2.04169
2.04821
2.6867
2.48661
0.517314
2.93087
3.64399
2.07188
0.577832
2.23653
2.22688
2.45964
11.9492
11.7951
12.6098
10.7252
11.7054
12.1145
11.3683
11.9018
7.50077
4.85844
5.74678
4.71978
4.31955
3.56601
5.37652
4.02906
13.8633
11.0083
15.7763
11.2836
13.1149
13.5783
12.8308
13.0927
9.15859
6.61912
9.60716
7.45779
8.43726
8.32307
8.21053
7.90648
11.1785
12.271
10.2138
7.81141
10.9399
11.5364
9.43407
10.3821
10.4064
6.50344
8.86271
12.8632
10.2752
9.19461
11.1216
9.49652
11.871
9.92641
8.06729
10.0342
10.8828
10.2021
10.2225
9.96128
12.6284
9.27702
6.18897
8.71636
11.7851
9.76271
10.5312
6.68059
34.511
32.1458
25.3236
10.6276
30.3071
34.7535
21.1224
24.7853
36.9116
37.2493
20.3618
19.9623
27.0575
33.3334
16.9675
21.7251
20.4495
23.136
25.3551
6.55321
18.2429
20.1915
13.9746
16.2527
2.41365
1.13187
-0.335365
2.06857
0.974785
0.670598
1.85544
0.915243
25.3435
24.241
12.884
6.83057
16.9965
16.9469
20.5717
16.0136
28.5168
8.41526
19.3561
27.1159
19.565
15.4869
24.3685
18.2545
16.9383
0.706581
4.15484
6.71234
5.41797
6.446
7.49366
2.24607
20.2723
5.43474
6.56875
17.5335
13.1929
6.46824
13.4075
9.91782
1.37443
3.18112
1.05991
3.05048
2.25633
2.35148
2.15314
2.32681
4.53102
5.53616
4.23659
5.71437
5.22058
5.11556
5.28264
5.22467
1.12829
2.85729
1.46148
3.22951
2.34466
2.35846
2.28987
2.4453
4.65253
5.88542
4.63034
6.06351
5.45567
5.3017
5.5442
5.36647
4.02996
2.40437
4.08945
5.33425
4.0824
3.28611
4.61489
3.94518
3.86343
5.32642
3.84546
2.29796
4.00521
4.70148
3.01671
3.99102
2.30466
4.03898
5.45158
4.13854
2.89105
4.00985
4.11948
4.90462
2.36849
4.14955
5.3692
3.95493
3.21789
4.00386
4.0611
4.51041
31.8102
11.3587
30.9902
7.26636
22.9075
24.1764
20.0011
22.7658
11.0563
10.2595
13.3607
3.16074
9.16194
12.9479
4.14516
11.6297
25.3282
18.7723
25.5666
8.40564
20.1582
22.8713
24.3049
24.2005
5.08643
3.15311
4.91178
6.30227
4.45578
3.69591
3.02477
3.68787
10.0949
20.7284
6.93129
4.66832
4.64055
15.2658
7.03402
7.57429
16.5233
4.55572
17.7931
25.071
11.9525
10.8471
17.0909
10.2589
21.4834
5.73301
3.49015
5.48443
14.3011
7.90027
5.91709
6.96657
21.1701
7.50305
3.63339
17.8615
16.3181
9.28365
11.3441
7.87362
7.897
7.46259
7.98094
7.95169
7.87141
7.78711
8.08566
7.97739
6.96063
6.27739
7.0897
6.5396
6.66484
6.55816
6.87489
6.75904
8.04815
7.67292
8.26547
8.32069
8.01382
7.90425
8.22037
8.11842
7.54125
6.90785
8.06634
7.42212
7.72901
7.62425
7.73747
7.67334
7.34624
7.91805
8.04667
7.16564
7.62546
7.87214
7.26302
7.90089
7.24099
7.08873
7.27773
7.80456
7.48561
7.23968
7.54784
7.41401
8.1179
8.21864
7.29082
8.15158
8.18021
8.11027
8.03604
7.72461
8.00638
8.04772
7.15564
7.5005
7.85866
7.87273
7.61971
7.49833
0.890952
0.764343
0.681072
2.74188
1.46259
0.846022
1.96491
1.61269
0.716538
0.717531
0.530441
2.32246
0.931293
0.583956
1.45978
0.839834
0.650704
0.477918
0.629879
2.63765
1.33955
0.716665
1.94249
1.22877
4.18212
3.82979
3.87334
5.06249
4.49275
4.0595
4.68306
4.26143
1.21942
1.44623
3.18604
2.87221
1.60031
1.63456
2.56882
2.50536
0.72171
2.3033
0.597443
0.740637
0.983743
1.63992
0.572178
1.28972
1.91374
3.58615
3.28294
3.33192
2.51532
3.1868
3.18452
3.35785
1.38381
2.88258
2.75398
0.984148
1.65798
2.7917
1.65956
2.44537
2.6468
2.59889
2.29703
3.83588
7.09762
4.06946
2.81418
0.508408
0.738271
-4.75226
2.34623
3.61481
8.663
5.04394
0.049029
3.01863
3.0697
2.15099
0.919507
2.97986
4.04851
2.05547
2.37403
0.986893
5.06308
5.00799
4.36219
5.83564
5.23662
5.64683
5.44044
4.23527
2.74958
3.08266
5.92196
5.73876
1.52169
1.77387
4.08146
5.4748
0.875163
4.96346
2.69269
3.06573
-1.03022
-0.309966
2.27305
5.94763
3.20543
5.34832
5.37332
3.80852
3.84462
4.62835
3.97673
4.56982
3.07724
2.60699
3.16562
2.68594
2.77555
3.50767
3.68194
3.47446
6.10697
5.43603
7.15443
8.34402
7.49339
6.07403
6.7882
6.65558
6.98778
7.58289
6.48942
4.8807
7.13544
7.20052
7.11416
6.89547
7.75597
7.43063
8.12189
7.48778
7.65466
7.67957
7.83605
7.85608
6.12421
5.74646
6.71786
5.79397
6.05004
6.22848
6.05887
6.23329
8.39209
7.61184
7.22195
5.42477
6.57544
6.84903
6.16204
7.93112
6.32405
6.03014
6.90983
7.25739
6.78772
6.30469
8.27648
6.28136
7.73315
6.18554
5.46923
7.07299
7.01059
6.23618
6.91969
6.04687
7.80054
7.22449
5.87207
7.47477
7.6499
7.06658
7.54063
6.70215
0.984859
2.77853
3.03499
1.82297
1.62186
2.37863
2.17122
2.51458
4.40289
6.03713
6.44762
5.24639
5.00106
5.86561
5.10576
6.03631
5.77145
7.06619
7.95612
7.36459
6.4496
7.07524
7.25865
7.76281
4.28498
4.86129
6.51651
6.17903
4.67434
5.45717
5.10464
5.59039
3.29987
4.02166
2.8359
4.09058
3.79785
3.21049
3.44693
3.95583
3.85916
4.80245
6.3275
4.95114
4.2937
5.21172
5.02696
6.00437
4.93236
3.54802
4.80493
6.37254
4.8949
4.30972
5.7719
4.66445
5.36849
6.79194
5.40987
6.70348
5.89218
6.78492
6.32794
6.46537
4.27806
2.32258
3.63336
5.18849
6.61867
5.66219
8.89778
6.57669
4.75704
5.63298
5.58761
6.12344
5.67988
5.82729
6.36703
6.20466
4.2505
6.56312
5.90766
4.45115
5.65584
6.24382
8.78251
8.00237
6.43835
6.26946
6.78918
7.03455
6.14945
6.29706
6.73143
7.04802
5.13756
7.44816
4.81439
5.67083
6.26237
3.94883
4.82462
5.09174
5.04644
5.85546
6.0636
7.73485
6.07982
6.42621
3.67274
5.85998
8.56735
5.86784
6.71562
7.73719
5.15693
6.03586
4.79081
6.4713
7.71417
7.43405
6.66661
7.54924
5.28781
5.24442
7.6926
7.18528
1.59245
2.93507
3.23878
3.33635
2.32411
2.69082
2.79119
3.12552
4.03554
4.63183
5.09862
5.18879
4.39865
4.65414
4.77771
5.00842
4.46695
5.26335
5.16235
5.58535
4.93942
5.03444
5.23379
5.21918
4.95565
5.78597
6.00294
6.54861
5.51493
5.86868
5.93323
5.97078
3.5749
3.88023
3.96902
4.94302
3.9725
3.8608
4.29683
4.3104
3.95739
5.34587
5.03578
4.05849
4.32652
5.07945
4.31828
4.84693
4.21677
4.37816
5.38588
5.55256
4.7006
4.54289
5.26877
5.48246
4.38426
5.59911
5.59131
5.31584
4.96904
5.41807
5.13769
5.55619
8.18067
7.40278
7.83801
8.01842
8.03478
7.79246
8.08714
7.85955
6.54933
5.60248
5.69655
6.0061
6.20701
5.99729
6.17135
5.76905
6.96443
5.65653
5.3883
6.27705
6.37024
6.08946
6.24599
5.61586
7.62849
6.52703
6.62721
7.21004
7.13658
6.91531
6.97744
6.73645
7.14735
7.51434
7.71127
6.68243
7.14607
7.47933
7.10763
7.47955
6.91079
6.3862
6.09994
7.2106
6.78567
6.36899
6.7336
6.3587
7.44464
7.68146
6.62957
6.58659
7.38088
7.39906
6.81381
6.93368
6.99603
6.34322
6.19223
5.80364
6.55914
6.60022
6.29132
6.20924
8.08316
7.93841
7.57714
7.55554
7.96687
7.89584
7.6906
7.63715
7.90517
7.89836
7.43948
7.50131
7.8246
7.78807
7.50762
7.48033
7.19376
7.13152
6.89885
6.86243
7.10768
7.07489
6.89471
6.8937
7.06012
7.02821
6.69515
6.33658
6.85063
6.8885
6.54297
6.66863
7.88787
7.50766
7.4402
7.38847
7.57297
7.51547
7.50461
7.44658
7.82835
7.40628
7.38264
7.45312
7.53204
7.42498
7.48878
7.41751
7.23488
7.17003
7.07096
6.83484
7.16172
7.23796
7.09593
7.06701
7.21077
6.89132
7.1279
7.15071
7.10061
7.08843
7.15775
7.1552
10.7238
10.4314
11.1068
10.1995
10.5002
10.6343
10.7475
10.224
9.83929
8.74874
8.14416
7.58166
9.73746
10.0135
8.87414
8.97334
9.84685
7.83908
6.25009
6.81768
8.90745
8.46784
8.25237
7.69321
8.53694
7.1167
5.69604
6.90321
7.6002
6.83401
6.44198
5.85004
9.79736
9.87078
10.0227
8.62119
9.92419
10.0651
9.34987
10.0623
10.0214
8.91382
8.40454
9.34255
9.61028
9.49107
9.72502
8.85976
10.0065
9.86251
8.23835
7.40209
8.14882
8.94778
8.50101
8.15893
9.15216
6.61843
7.60648
7.71781
8.17047
7.79046
8.26307
7.12669
0.883746
1.35196
2.15317
2.67482
1.63044
1.56813
2.15845
2.25014
1.43091
1.67716
3.92049
3.70339
2.54146
1.3221
4.17188
3.53894
3.67905
4.79377
6.05201
6.08347
3.95067
4.17896
5.40656
5.62308
4.56846
4.94749
5.91674
5.99794
5.02223
5.57643
5.92966
6.15938
2.39782
2.29488
3.43328
4.25995
3.38146
2.15377
3.02153
3.89353
1.99568
4.69704
2.03828
2.738
2.38261
2.44972
2.78687
2.988
3.32547
4.1111
5.65562
5.57395
4.24204
4.56098
4.61515
4.88875
3.79399
6.26485
5.27634
4.19397
4.64001
5.40508
5.34225
5.83915
0.94772
1.91651
4.38641
1.53487
0.961576
1.50654
0.0540828
0.105832
1.05848
-2.54882
-1.88121
1.73843
-9.04072
8.95234
-4.95184
-5.8415
1.3652
1.65157
1.67433
0.29324
1.9877
1.6702