/*--------------------------------*- C++ -*----------------------------------*\
| =========                 |                                                 |
| \\      /  F ield         | OpenFOAM: The Open Source CFD Toolbox           |
|  \\    /   O peration     | Version:  2506                                  |
|   \\  /    A nd           | Website:  www.openfoam.com                      |
|    \\/     M anipulation  |                                                 |
\*---------------------------------------------------------------------------*/
FoamFile
{
    version     2.0;
    format      ascii;
    arch        "LSB;label=32;scalar=64";
    class       volVectorField;
    location    "600";
    object      U;
}
// * * * * * * * * * * * * * * * * * * * * * * * * * * * * * * * * * * * * * //

dimensions      [0 1 -1 0 0 0 0];

internalField   nonuniform List<vector> 
54912
(
(-0.373714 0.15243 -1.78548)
(-0.756289 -0.382319 -1.19618)
(-0.0261039 0.358212 -1.11705)
(-0.654056 0.656606 -1.92229)
(-0.517613 -0.0983953 -1.72057)
(0.256858 0.18943 -1.77768)
(-0.418117 -0.155666 -1.47051)
(0.115265 0.0136653 -1.7118)
(-0.293756 -0.0266498 -1.39378)
(0.388745 0.335683 -0.200896)
(-0.279389 -0.05373 -0.815885)
(1.12778 2.21665 0.162595)
(-0.585719 1.00589 -0.608955)
(0.649856 0.182134 -0.217431)
(0.882686 1.94286 -0.698665)
(0.945361 0.490729 1.32786)
(0.230773 0.0675406 -0.40385)
(-0.662298 -0.118497 -1.54633)
(-0.174208 -0.610807 -1.99815)
(-0.605722 1.14545 -1.33357)
(0.0863946 0.65282 -0.247552)
(0.125466 -0.346455 -1.80844)
(-0.673623 0.65275 0.292313)
(-0.843654 -0.0890593 0.147)
(-0.517361 1.06158 -1.06054)
(1.7168 2.29253 0.606977)
(0.546939 2.28326 0.130807)
(1.25429 2.91037 2.09801)
(0.279423 2.48939 -0.142583)
(2.25591 1.67422 -0.674392)
(1.01477 3.50191 1.9745)
(0.763053 2.19818 1.27927)
(-0.134082 0.0793178 -1.35244)
(0.424391 0.706424 -1.21654)
(-0.390993 0.625927 -1.65717)
(0.66554 1.94514 0.0916306)
(0.440052 0.790471 -0.843273)
(0.626648 0.458815 -1.63432)
(0.6348 0.725797 -0.927668)
(0.64403 0.91151 -1.6362)
(-0.343793 0.457858 -1.07204)
(1.84842 1.7787 -0.376143)
(0.616464 0.30251 -1.17826)
(0.131586 0.274749 -0.710666)
(-0.151807 0.96176 -1.31334)
(0.422061 1.28463 -0.88491)
(0.0369232 0.592237 -1.06792)
(0.731914 1.1809 -0.702598)
(0.400691 1.04845 -1.14111)
(-0.220965 1.00775 -0.407823)
(1.65152 2.45194 0.915358)
(-0.032464 2.16843 0.143472)
(0.414089 0.757005 -0.696951)
(1.03694 0.476468 -1.05068)
(0.382693 2.18414 -0.437119)
(0.976844 1.22906 -0.897488)
(0.426162 0.925557 -1.03517)
(0.1142 1.38975 0.216667)
(1.14526 1.64285 1.09823)
(-0.0937262 1.0102 -0.425472)
(0.286814 0.83262 -0.629926)
(0.842678 1.06635 -1.24242)
(0.518963 1.26858 -0.123429)
(0.307091 1.10959 -0.507414)
(0.0984628 0.10385 -1.86084)
(-0.0327648 -0.415114 -0.552003)
(0.0624299 0.497003 -1.7593)
(3.13507 -2.44242 2.11)
(0.270434 0.97902 -1.2919)
(-0.166298 1.00388 -1.13946)
(2.32189 -1.51591 1.94908)
(1.45343 0.832577 -0.722871)
(0.051703 0.21447 -1.17807)
(-0.0336838 0.889507 -1.45932)
(0.888123 1.86509 -1.37944)
(1.11559 0.463606 -1.36555)
(0.194499 0.142919 -0.285028)
(0.19505 0.456681 -1.27648)
(0.645867 0.155876 -0.691732)
(0.51526 0.39178 -1.46691)
(0.78048 -1.89661 1.96371)
(1.54183 1.04212 -0.686719)
(0.671562 -1.05389 1.89278)
(2.9361 -2.15383 4.11522)
(0.806198 -1.21006 1.27638)
(1.02207 -1.17249 2.15578)
(1.73541 -1.94659 4.74754)
(1.61769 -1.78153 3.79899)
(2.98204 -2.33068 3.47244)
(1.65365 0.564505 1.09219)
(2.20198 -0.534017 3.13432)
(2.38736 -1.55923 2.65207)
(1.72679 -2.31678 1.59897)
(1.47427 -0.521985 1.73421)
(1.77846 -1.68326 3.76563)
(1.44429 -0.23766 3.5303)
(0.156022 -0.114309 0.0325994)
(0.479809 0.792358 -1.79102)
(1.30559 -2.13937 0.419363)
(0.604912 0.219798 0.120663)
(0.209251 -0.624991 0.0844587)
(1.57932 -0.877262 0.0847657)
(0.816819 -0.322025 -0.11613)
(0.935039 -0.153149 -0.798068)
(-0.143151 0.0930499 -1.16546)
(2.14518 1.11824 -0.621306)
(1.85063 1.19901 -0.508679)
(0.322215 -0.527701 -1.16396)
(0.109567 -0.835817 -1.26621)
(1.16223 0.0276951 -0.193612)
(0.414858 -0.651772 -1.21442)
(1.6826 1.06684 -0.271233)
(0.752239 -1.86464 1.97243)
(3.16096 -2.74506 4.08124)
(2.09829 -1.41161 3.35158)
(2.87144 -2.4036 5.02174)
(2.99187 -2.70482 3.92148)
(2.56946 -2.15177 3.65917)
(2.7307 -2.10392 3.69584)
(2.36403 -1.87605 3.56755)
(0.791237 -0.71258 1.39766)
(2.77563 -2.40402 4.66975)
(1.77177 -1.41864 1.85742)
(1.28233 -0.295068 0.288579)
(1.21441 -0.981322 1.35841)
(2.76187 -2.09401 4.32313)
(1.68443 -1.13007 2.38855)
(2.44585 -0.631544 2.70845)
(0.840379 0.655841 0.389192)
(0.382478 1.0515 0.251457)
(0.661606 -0.535938 -0.00343036)
(3.37346 5.80232 0.428424)
(0.0535171 -0.518928 1.35838)
(0.540364 0.330435 -1.00855)
(1.75372 0.689447 0.712231)
(0.794626 0.645109 -0.604384)
(-0.632013 1.53812 -0.534568)
(-1.92763 0.582983 -1.22455)
(-1.24076 -0.242554 -0.68767)
(-1.13292 -0.250053 -0.726824)
(-0.730793 1.25878 0.1208)
(-1.44096 0.932832 -0.537062)
(-1.15751 0.19084 -0.20615)
(-2.08553 -0.0772879 -1.27143)
(1.15344 1.29686 -2.4157)
(0.319051 -0.43976 -0.717811)
(0.526056 -0.162941 -0.728024)
(-0.617455 0.743334 0.279054)
(0.408325 0.22771 -1.45866)
(0.479324 -0.6408 -0.863942)
(-0.76931 0.0512079 0.252043)
(0.0161641 0.109305 -0.334561)
(-0.155114 2.62613 -0.0293781)
(2.046 0.334214 -0.00506701)
(1.83922 1.5866 3.16188)
(0.820953 0.236783 1.17518)
(-0.515022 1.14706 1.16408)
(1.15793 1.67872 2.23163)
(1.21616 0.203322 2.10634)
(2.32267 0.927225 1.54718)
(0.228308 0.877676 1.42856)
(1.13718 -1.01664 -0.0778128)
(3.27374 5.20566 1.37081)
(2.64308 1.38015 0.949837)
(0.495191 1.24754 0.264368)
(1.02146 -0.692244 -0.767021)
(3.55351 1.846 0.396149)
(4.07088 2.87017 0.603949)
(-0.158951 0.30637 -1.4658)
(0.577014 1.11619 0.341773)
(-0.421127 -0.487593 -1.03963)
(0.518659 -1.1395 -1.58074)
(-0.480325 0.140839 -1.21739)
(-0.496575 0.147608 -0.423189)
(-0.801539 -1.46317 -0.475451)
(-1.10227 -0.598947 -0.763939)
(2.37393 0.485888 -0.509514)
(0.458413 3.81586 2.43454)
(2.45132 0.977582 1.05707)
(1.72146 2.32891 2.82121)
(2.03174 2.26955 2.46978)
(1.60806 3.52126 2.87572)
(1.65017 2.8038 2.58012)
(1.65091 3.21526 2.41367)
(1.22864 -0.282977 -1.1358)
(0.584166 1.20951 -0.502589)
(0.440071 0.649604 -0.854457)
(-0.631327 0.188735 -0.622479)
(0.433017 -0.705195 -1.3951)
(0.999393 0.813071 0.294756)
(-0.425251 -0.110294 -0.733943)
(-0.149238 1.1625 -0.415825)
(0.136159 0.213144 -0.792567)
(-0.0557931 0.158584 -0.531472)
(0.396825 -0.0792872 -0.358776)
(0.280404 -0.399746 0.121053)
(0.0465066 0.592604 -0.845554)
(0.0125727 0.00583944 -0.851396)
(0.543051 -0.0243681 -0.817345)
(0.200201 -0.113231 -0.157193)
(0.032443 0.174797 -0.600087)
(-0.0485183 0.130784 -0.428088)
(0.200781 0.111737 -0.397529)
(0.160236 0.0302808 -0.31616)
(0.0506508 0.0950165 -0.62471)
(0.0751108 0.0188508 -0.522361)
(0.131691 0.0171551 -0.445253)
(0.179287 0.077329 -0.311085)
(-0.0602541 -0.423588 -0.0554789)
(0.230392 0.0596037 -0.346514)
(-1.56824 -0.179902 1.7466)
(-0.918999 -0.240538 0.382806)
(0.0468321 -0.292787 -0.0481194)
(0.12902 0.167969 -0.0831873)
(-1.35227 -0.300689 1.31477)
(-1.15575 -0.282107 0.714741)
(0.221709 -0.76289 -0.638041)
(0.180936 0.034596 -0.552542)
(-0.300498 -0.0209506 0.0293191)
(-0.201245 -0.139369 -0.409101)
(0.392925 -0.135505 -0.583643)
(0.163985 -0.00681742 -0.626474)
(-0.13456 -0.543508 -0.20056)
(0.234674 0.0881489 -0.345925)
(0.0237197 0.148408 -0.720255)
(0.201928 -0.143805 -0.617459)
(0.193644 -0.171827 -0.300493)
(0.173168 -0.0199142 -0.773003)
(0.156816 0.0184585 -0.733617)
(0.224321 -0.137005 -0.369606)
(0.125915 -0.0866836 -0.763041)
(0.15989 -0.0717181 -0.768036)
(0.0731917 0.066047 -0.7005)
(0.247646 -0.0209549 -0.579182)
(0.260573 -0.00243565 -0.447774)
(0.0935 0.277848 -0.354706)
(0.150723 -0.0260622 -0.626549)
(0.225677 -0.0271986 -0.695583)
(0.147466 -0.0569237 -0.682214)
(0.277431 -0.0588719 -0.587083)
(0.298463 -0.287273 -0.333576)
(0.177991 -0.340516 -0.532566)
(0.266146 0.00797689 -0.603505)
(-0.769377 -0.371587 0.75557)
(0.239952 -0.328477 0.0883847)
(0.145329 -0.203894 -0.670334)
(0.403801 -0.0262313 -0.223284)
(0.52695 -0.0541928 -0.516149)
(0.118503 0.268976 0.176461)
(-0.655411 -0.211045 0.204636)
(0.378082 -0.0267718 -0.271337)
(0.280793 0.0390967 -0.216925)
(0.303043 -0.0055923 -0.233392)
(0.481549 0.286537 -0.270998)
(0.27309 -0.0192677 -0.39053)
(0.356354 0.0197116 -0.395138)
(0.183143 -0.0081647 -0.628696)
(-0.305211 0.0776075 -0.861519)
(0.926529 0.249009 1.13156)
(-0.400223 -0.412329 -1.34363)
(0.097996 -0.104008 -0.530837)
(0.135395 0.21318 -0.442622)
(0.0767422 -0.209799 -0.850902)
(-0.105816 0.0126284 -0.704236)
(-0.359137 0.0456995 -0.576981)
(-0.151791 0.0157147 -0.0788735)
(-0.213292 -0.0256868 -0.129146)
(-0.100894 -0.140632 -0.54862)
(-0.276436 -0.0542873 -0.267636)
(-0.399038 0.082762 -0.199744)
(-0.301795 -0.0436895 -0.55194)
(-0.57028 0.040477 -0.382224)
(1.25132 0.122516 1.9496)
(-0.430374 -0.231512 -0.123678)
(1.76052 -0.165878 2.21441)
(-1.39384 -0.519394 -1.15708)
(1.35473 -0.447488 1.23658)
(0.798013 -0.149272 -0.0890594)
(1.06699 -0.233782 1.90902)
(0.944491 -0.252098 1.18493)
(-0.764403 -0.1137 -0.93673)
(0.00427185 -0.132831 -0.684808)
(-0.698153 -0.0698414 -0.958523)
(-0.43684 0.00410206 -1.13711)
(-0.986037 -0.29145 -1.00298)
(-0.93933 -0.403631 -1.32892)
(-0.958542 0.161022 -0.104272)
(-1.015 0.167428 -0.945415)
(-0.38704 0.0339795 -0.959809)
(0.24045 -0.0796964 -0.103335)
(-0.443853 -0.395367 -1.135)
(-0.224959 -0.170869 -0.8117)
(-0.452935 -0.0108092 -1.12515)
(-0.249264 -0.338189 -1.37018)
(-0.214771 -0.262664 -0.861641)
(-0.308732 -0.294228 -1.10027)
(-0.310692 -0.112832 -0.576133)
(-0.388747 -0.147303 -0.676562)
(-0.44507 -0.0736087 -0.587159)
(-0.545675 -0.000620509 -0.841526)
(-0.583286 -0.0976409 -0.902663)
(-0.382833 -0.208801 -0.753087)
(-0.558598 -0.085254 -0.935841)
(-0.543878 -0.137657 -0.785346)
(0.521641 0.197057 1.17874)
(-0.552181 -0.357118 -1.23124)
(-0.18136 -0.24788 -0.855391)
(-0.837573 -0.226518 -1.28357)
(-0.970495 -0.341012 -1.47726)
(-0.685889 -0.270125 -1.22827)
(-0.806858 -0.110841 -1.19945)
(-0.250451 -0.0773486 -0.901735)
(-0.197162 0.109923 0.183102)
(-1.1405 -0.379949 -1.22461)
(-0.373107 -0.210438 -0.808382)
(-0.640769 -0.205157 -0.79859)
(-0.707135 -0.219401 -1.05423)
(-1.10957 -0.231589 -1.15347)
(-0.623291 -0.302452 -0.891761)
(-0.542899 -0.299843 -0.731906)
(-0.249248 -0.363404 -1.05402)
(-0.0502724 0.0679194 -0.577238)
(-1.59853 1.39511 1.36253)
(-0.00840918 -0.246622 -0.115231)
(0.301099 -0.534701 -0.335288)
(-0.133455 -0.109967 -0.399335)
(-0.909167 -0.221554 1.3159)
(-0.101497 0.107028 -0.142973)
(-0.117299 0.106869 -0.751197)
(0.129871 0.0686201 -1.38487)
(0.279217 0.34734 -1.45349)
(1.23291 -0.71119 -0.86972)
(-0.345984 0.768829 -0.792542)
(0.399709 0.329896 -1.32631)
(1.17351 -0.245167 -1.53553)
(-0.0279961 0.977146 -2.08307)
(-1.51752 1.48942 1.47236)
(0.810401 0.0719498 -1.08828)
(-0.292607 1.24119 0.590613)
(-1.60433 1.98022 2.27015)
(-0.275009 0.843489 -1.26709)
(0.821071 2.24748 -2.25066)
(-1.99898 2.26087 1.77546)
(0.238953 2.81544 -0.60851)
(-0.0591686 0.366845 -0.863325)
(0.0496546 0.488105 -0.935608)
(-2.47177 2.29356 2.4848)
(-0.246944 0.543672 0.161719)
(-0.0137601 0.596966 -1.34315)
(-0.672838 0.78819 -0.108648)
(-0.98576 0.373726 1.06141)
(-0.678399 0.90354 0.800459)
(-0.159133 0.160009 -0.794248)
(-0.629464 0.339487 -1.0252)
(-0.0457294 0.0238073 -0.628663)
(0.0886401 -0.0439007 -0.992731)
(-0.0567283 0.390501 -0.710903)
(0.335834 0.26405 -0.340283)
(-0.0387323 0.0422938 -0.657755)
(-0.0183249 0.208428 -1.00647)
(-0.2109 0.27187 -0.466336)
(-0.666437 -0.560168 -1.66052)
(0.240878 1.054 -2.04643)
(0.137 0.910989 -0.393994)
(-0.276053 0.84401 0.922593)
(-1.20137 0.182205 -1.72833)
(-0.342908 0.938962 -0.119882)
(-0.200524 0.534379 -1.87223)
(-1.07502 1.40554 0.656862)
(0.085404 0.506164 -0.269109)
(-0.328987 1.7806 -0.384361)
(-2.90798 2.73004 2.73588)
(-2.46866 1.98252 2.75869)
(-0.0589307 0.441651 0.112979)
(-1.98088 1.4062 0.843569)
(-0.454744 0.548044 0.43188)
(0.14773 1.27135 0.0900219)
(-2.16232 2.82745 2.00301)
(0.478638 1.11592 -1.74585)
(0.676775 1.87719 -1.44927)
(-0.772584 0.393814 -0.0567597)
(-0.848282 0.698654 -0.364818)
(-1.02746 0.790854 -1.22776)
(0.443366 1.26539 -1.26852)
(-0.261149 -0.245277 -1.37609)
(-1.59082 0.685143 -1.84962)
(-0.43511 1.33324 -1.13513)
(-2.12398 1.81119 -0.844654)
(-1.98821 -0.0451233 -1.67354)
(-0.694036 0.844339 -1.49784)
(-1.13868 1.10237 -0.458897)
(-1.25853 1.63829 -0.363323)
(-3.15917 0.315705 -0.862795)
(-3.31779 -0.0292536 -0.943252)
(-2.59456 -0.0115231 -0.472872)
(-3.31311 -0.0247274 -1.03809)
(-3.37727 -0.0543815 -1.63156)
(-2.9747 0.111109 -0.845616)
(-3.57102 -0.0190411 -0.836457)
(-3.13365 0.304056 -0.116393)
(-1.2728 1.63209 -0.662201)
(-1.46436 0.429939 -0.410798)
(-0.664817 0.442552 -1.911)
(-2.7041 0.723162 -0.793443)
(-2.11547 1.59405 -0.41098)
(-1.31167 1.2797 -0.987077)
(-2.50511 0.905387 -0.81776)
(-1.32565 0.567038 -0.914362)
(-4.46372 1.57497 -0.278142)
(-4.03758 -0.141501 -0.454688)
(-3.96662 0.0756431 -0.304661)
(-3.91263 0.0130989 -0.324789)
(-3.98465 -0.340266 -0.937527)
(-4.2727 0.423603 -0.185472)
(-4.10486 -0.16145 -0.191701)
(-3.94772 0.342425 0.0872559)
(-2.09 0.569171 -1.22228)
(-1.39132 1.32845 -0.904251)
(-3.06706 1.42121 -0.406238)
(-3.93746 -0.318063 -1.31773)
(-2.57869 0.9173 -0.726303)
(-1.83096 1.62056 -0.974671)
(-3.07394 0.338725 -1.14443)
(-3.44612 0.862494 -0.472952)
(-1.87541 0.391024 -1.1625)
(-3.77518 0.291126 -0.720892)
(-2.49342 0.387074 -0.634748)
(-1.15677 1.15916 -0.785529)
(-2.66953 0.74445 -0.603074)
(-3.5554 0.363193 -1.12289)
(-1.48525 0.996093 -1.15279)
(-2.50155 0.985705 -1.05632)
(-1.82495 1.52061 -1.06712)
(-4.49096 0.294753 -0.0234486)
(-4.17462 -0.134311 -0.423693)
(-3.9698 0.128046 -0.721516)
(-3.25341 0.612646 0.0712036)
(-3.18689 0.388625 -1.36089)
(-3.59762 0.257471 -0.976516)
(-3.63531 0.234286 -0.829896)
(-1.56786 1.05351 -1.06891)
(-3.07865 0.735892 0.0177004)
(-3.54877 0.580169 -0.231037)
(-2.78667 0.257334 -0.277928)
(-2.40674 1.00582 -1.1982)
(-3.10216 0.590293 -1.05974)
(-2.97652 0.387455 -0.785414)
(-3.52537 0.32929 -0.625828)
(0.157939 -0.0373787 -1.66085)
(-0.247074 -0.380754 -4.08515)
(-1.18903 0.00663893 -2.62309)
(-2.85667 -0.308609 -3.49039)
(-0.96719 -0.280252 -3.26172)
(-0.303789 -0.423534 -3.25294)
(-1.91572 0.0668074 -3.32722)
(-1.23403 -0.461276 -3.0728)
(-1.01332 0.146151 -2.64113)
(-1.97107 0.8416 -3.92309)
(-2.79821 0.297226 -2.79764)
(-0.0125359 -0.449423 -0.682245)
(-1.20946 1.01539 -3.54657)
(-1.71042 1.05662 -4.63709)
(-1.93811 -0.630849 -1.59636)
(-2.62761 0.717116 -3.87082)
(-2.57958 0.14302 -1.27027)
(-3.33002 0.0456071 -0.912881)
(-3.4804 0.13347 -0.412783)
(-3.8985 0.226589 0.532873)
(-2.92565 0.726062 0.315893)
(-3.3494 0.137178 -1.03309)
(-3.50852 0.217634 0.37179)
(-3.7515 0.0706387 -0.498721)
(-3.63302 -0.136255 -1.04529)
(-3.08566 0.623197 0.180573)
(-3.34186 0.191962 0.740489)
(-2.89365 -0.234204 0.498582)
(-2.75999 0.1616 0.453382)
(-3.33927 -0.108452 -0.296367)
(-3.06215 -0.227786 0.479301)
(-3.1802 -0.137724 0.166964)
(-0.525749 -0.143257 -4.30598)
(-1.0539 0.179052 -1.55895)
(-3.3758 0.092875 -2.09183)
(-2.95431 -0.209197 -2.20502)
(-1.05982 -0.961923 -2.84101)
(-1.09958 -0.0562129 -2.55045)
(-3.06061 -1.0638 -2.66901)
(-3.21653 -0.023745 -2.34133)
(-1.05823 0.619699 -3.68611)
(-0.841891 0.665114 0.851701)
(-3.10739 0.25604 -2.6728)
(-1.66406 0.403231 -2.16814)
(-1.51148 -0.071069 -3.22627)
(-1.52529 -0.113934 -1.55642)
(-1.74708 0.104258 -2.44461)
(-2.13894 0.667372 -0.38213)
(-1.98459 0.171698 -1.1567)
(-3.66076 0.337095 -2.27008)
(-2.84933 0.0237579 -1.69917)
(-3.36864 0.185352 0.513176)
(-3.40741 0.770723 -2.35941)
(-3.55468 -0.709734 -1.90601)
(-2.96644 0.35301 -0.0950425)
(-3.36088 -0.644815 -0.864798)
(-2.00536 0.433514 -1.73917)
(-3.37309 0.311413 0.625997)
(-1.75588 -0.0747705 0.608162)
(-3.49439 0.063115 -2.21678)
(-2.13805 0.949464 0.0119239)
(-2.60836 0.52187 0.620156)
(-3.07853 -0.38246 -0.0341229)
(-2.82685 -0.262408 0.0608391)
(-0.13096 0.167624 -1.0388)
(-0.116487 -0.597389 0.779552)
(-0.337634 0.291568 0.15641)
(-2.14182 1.9297 2.80209)
(-0.116091 0.429392 -0.796276)
(0.114575 -0.110298 -0.267232)
(-0.0220608 0.690633 -0.216759)
(-0.422231 0.48601 0.286448)
(-0.570353 0.247971 0.790593)
(-1.85727 0.590962 1.92449)
(-2.30721 0.568527 2.64928)
(-3.63159 1.94971 4.16757)
(-1.45148 -0.0743266 1.76405)
(-1.78478 0.506541 1.85141)
(-1.88929 0.141154 1.94279)
(-2.06323 0.677187 2.38044)
(-1.58711 0.633436 1.28505)
(-2.66982 0.615532 3.19689)
(-2.85184 0.628285 3.5279)
(-3.04579 1.27661 4.25612)
(-2.56171 0.533689 2.4975)
(-2.67909 0.603128 3.18371)
(-2.77416 0.588495 3.10132)
(-2.8357 0.724859 3.48351)
(-3.1164 1.81834 4.23534)
(-2.59877 1.66569 3.59633)
(-2.48183 1.49524 3.72372)
(-2.24205 1.59242 3.40481)
(-2.86958 1.58813 4.02727)
(-2.60347 1.54502 4.02923)
(-2.86528 1.62301 4.12822)
(-2.523 1.61369 3.96572)
(-0.330152 -0.794658 1.48075)
(-0.83012 -0.480977 1.18823)
(-2.99854 2.05806 2.98936)
(-3.74892 1.9602 3.927)
(-1.03944 -0.0792789 1.49323)
(-0.93404 -0.539251 1.11354)
(-3.11951 2.30078 3.9665)
(-3.17413 2.18062 2.94029)
(-0.330463 -0.0236257 0.940942)
(-3.59227 1.93347 4.06387)
(-2.30812 0.455961 2.55882)
(-0.856946 0.186344 0.712244)
(-0.837076 0.310569 0.843138)
(-2.01399 0.103407 1.90995)
(-1.18884 0.624684 1.04704)
(-2.0995 0.168359 1.98017)
(-1.45337 -0.149511 1.41709)
(-2.9555 2.0344 3.3289)
(-3.68339 1.91336 4.00001)
(-3.39791 1.67934 4.39763)
(-3.23362 2.16342 3.63901)
(-3.22838 2.32564 3.60947)
(-3.56367 1.77008 4.33165)
(-3.48323 1.92251 4.12384)
(-1.40621 0.606942 1.22187)
(-3.27569 1.56245 4.26953)
(-3.52256 1.80739 4.1109)
(-2.48788 0.764335 2.95932)
(-2.49416 0.383104 2.40066)
(-3.37057 1.64516 4.28686)
(-2.30796 0.372111 2.22441)
(-3.44655 1.68245 4.16542)
(-1.20885 0.893924 1.9232)
(-2.49347 1.82215 3.87227)
(1.21414 0.735334 0.323154)
(-3.25324 1.63341 3.64619)
(-2.12236 0.986773 2.7787)
(-1.78445 1.81985 2.78565)
(-2.14818 0.902833 2.64795)
(-1.94717 1.64939 1.98524)
(-2.87766 2.57767 3.70228)
(-1.80882 0.551745 1.53221)
(-0.521241 -0.0134848 1.152)
(-3.73458 2.13392 4.23849)
(-3.32216 2.18717 3.8553)
(-0.942563 0.421988 1.19869)
(-3.26954 1.90626 3.89624)
(-1.42416 -0.0529359 1.71534)
(0.980013 0.0794711 0.0393483)
(1.7184 -1.09305 -0.473808)
(0.631486 0.260749 -0.98333)
(-1.64078 1.80972 2.78319)
(-0.625645 1.50205 1.27479)
(0.374243 0.280566 -1.11462)
(-0.750811 1.63298 1.21671)
(0.315371 0.336911 -0.761013)
(-3.22982 2.03669 3.77763)
(-2.62265 1.53518 4.06152)
(-3.02311 1.94752 4.37567)
(-2.47403 1.72066 3.36265)
(-2.61908 1.81489 3.75972)
(-3.12475 1.69783 4.48265)
(-2.57862 1.93216 3.52118)
(-2.91978 1.62222 4.21041)
(-2.86442 1.81995 4.11653)
(-1.7564 1.52911 2.39926)
(-2.95772 1.80038 3.74997)
(-3.07466 1.81873 4.06879)
(-2.74182 1.58779 4.15649)
(-2.90893 1.81923 4.09424)
(-3.11169 1.84237 4.0829)
(-3.0332 1.66792 4.07673)
(-2.13551 2.56832 2.84694)
(-3.59933 2.39297 3.46839)
(-0.649725 0.594192 1.26209)
(-0.448721 1.36279 1.32561)
(-2.16957 2.20923 3.54601)
(-3.56119 2.49478 3.19383)
(0.010761 1.78941 2.52134)
(-2.07892 2.1241 3.20624)
(-1.84572 1.10845 2.22696)
(-3.0068 1.95243 3.51667)
(-2.94491 1.69168 4.35464)
(-2.77289 1.66558 4.36775)
(-2.55528 1.74389 2.95292)
(-2.9886 1.85132 3.89398)
(-2.76308 1.83432 3.78119)
(-3.13814 1.68872 4.78206)
(-0.784283 0.69977 1.17782)
(-2.41463 1.85357 3.05298)
(-3.64446 2.10054 4.18471)
(-0.319432 -0.837879 0.671081)
(-1.21844 1.99317 2.02282)
(-2.28074 2.30729 2.55807)
(-1.6134 2.15621 1.91206)
(-2.96376 2.39691 3.48029)
(-0.991656 -0.73803 0.194517)
(-0.101976 0.0517127 1.52658)
(1.3327 -0.156728 1.0428)
(1.84589 -1.38793 4.71155)
(-0.105539 -0.178918 1.97175)
(-0.36339 0.0488382 0.848763)
(1.10042 -0.598746 3.54984)
(0.815457 -0.239007 3.23586)
(0.740288 -0.204084 1.39695)
(0.683885 -0.108012 2.41274)
(0.465863 -0.50366 3.10184)
(1.00984 -0.0730348 4.02314)
(0.582121 -0.51895 3.21752)
(1.05423 0.0255543 1.72464)
(0.421604 -0.891513 4.32073)
(0.433042 -0.776107 3.94493)
(2.0243 -0.912399 2.5154)
(0.879965 -0.391435 5.39284)
(0.478063 -1.23488 4.17556)
(2.1707 -2.13487 5.57689)
(1.705 -1.60455 4.65519)
(2.13444 -0.803633 3.33226)
(1.42606 -1.46145 4.62696)
(1.27009 -0.865611 4.59872)
(1.84278 -1.76819 4.23973)
(1.74994 -0.672225 3.97138)
(1.85432 -1.6371 4.18013)
(-0.524639 -1.08809 -0.0733002)
(1.85397 -1.2876 4.18394)
(1.93315 -1.47289 4.15082)
(1.28794 -1.06038 3.92295)
(1.47471 -1.16461 3.8223)
(0.330264 -0.18284 2.0584)
(1.03444 -0.494389 2.55508)
(1.57855 -1.27846 4.67903)
(1.23264 -0.638237 4.44661)
(0.701104 -0.693779 4.09891)
(0.754778 -0.839813 4.13867)
(1.43424 -0.861697 4.25358)
(1.7101 -1.03668 4.50754)
(0.583026 -0.0964763 1.43259)
(1.29355 -0.412866 4.1287)
(0.957818 -0.0845701 1.29976)
(1.08417 -0.433749 1.69622)
(0.786707 -0.823165 3.45599)
(0.487142 -1.29296 4.65667)
(1.12508 0.0195107 0.752211)
(0.898995 -0.922019 3.69498)
(1.54866 -1.49696 5.03155)
(1.99307 -1.93619 5.28106)
(1.88521 -1.54585 4.82135)
(2.12736 -1.85675 5.53251)
(2.04401 -1.82854 5.24112)
(1.97577 -1.72186 5.03658)
(1.98308 -1.80122 5.21253)
(1.90009 -1.60027 4.92914)
(1.63196 -1.29186 4.43077)
(2.15938 -1.80868 5.44741)
(1.65655 -1.14791 4.5608)
(1.16037 -1.26826 4.42561)
(1.36616 -1.75777 5.2806)
(2.00118 -1.69463 5.04121)
(1.21502 -1.60833 5.03598)
(1.76194 -1.28767 4.69472)
(1.0418 -1.00929 4.12576)
(1.27222 -0.442429 3.57769)
(1.89201 -1.55705 4.82739)
(1.31689 -1.74905 4.25004)
(0.806881 -0.995822 4.04519)
(1.46714 -1.19789 4.77332)
(0.774509 -2.07186 4.86843)
(1.24448 -1.69412 4.64774)
(1.33942 -0.0471228 2.99752)
(0.787517 -0.0159915 1.70976)
(1.22657 -0.429064 2.64083)
(1.77402 -1.52747 4.83819)
(1.41898 -0.310121 3.93623)
(1.26887 -0.0934816 2.07382)
(1.85134 -1.1323 4.84971)
(1.42128 -0.496805 3.67605)
(2.58252 -2.13961 5.42508)
(1.84103 -1.28307 4.46118)
(0.63444 -1.4023 4.58008)
(2.10121 -1.98656 5.86115)
(2.3642 -1.89349 5.75992)
(2.15413 -2.31581 5.97986)
(2.54581 -2.31976 6.33128)
(1.07661 -1.36611 4.70677)
(1.35052 -0.65935 2.71682)
(1.87184 -1.46409 4.3327)
(1.70732 -1.52939 4.35155)
(0.860168 -1.0796 2.2202)
(1.37547 -0.186678 2.69739)
(1.79714 -1.59333 4.02607)
(1.06456 -0.0186472 2.72316)
(1.5353 -1.10136 4.15887)
(1.25969 -0.511701 3.80847)
(2.08673 -1.59965 4.8073)
(1.30577 -1.1448 3.98257)
(1.52724 -1.47915 4.61035)
(1.69784 -1.48214 5.03376)
(1.37082 -1.72366 4.75886)
(1.35531 -1.5361 4.66016)
(1.01633 -1.59113 4.39162)
(2.1828 -1.20227 4.37795)
(1.60535 -1.53729 4.72931)
(1.66351 -1.35683 4.18296)
(2.40566 -2.41388 5.66717)
(1.83497 -1.4477 4.6644)
(1.89605 -1.50917 4.80872)
(2.25895 -1.40824 4.80045)
(2.00111 -1.3334 4.87411)
(2.00167 -2.6495 5.64003)
(1.57779 -0.546245 3.30309)
(2.12014 -1.65562 4.97633)
(2.50697 -1.90728 4.89746)
(2.13616 -2.4723 5.05186)
(1.92776 -1.57156 4.58841)
(2.1743 -2.35439 5.05617)
(2.13827 -1.99625 4.79743)
(2.1643 -2.31285 5.35054)
(2.20516 -1.85611 5.79933)
(2.06528 -2.02003 5.48098)
(1.90906 -1.62661 5.19013)
(2.21903 -2.13281 5.54281)
(2.05535 -2.12421 5.30822)
(1.99749 -2.02626 5.69238)
(2.01734 -2.10425 5.49298)
(-2.75597 -0.371949 0.501997)
(-3.47102 -0.164871 0.587139)
(-2.75861 -0.101615 -0.441593)
(-3.48883 -0.124166 2.14758)
(-2.9368 -0.392959 0.381154)
(-3.04054 -0.181953 0.385212)
(-3.00043 -0.0513904 0.592986)
(-2.75898 -0.310867 0.122022)
(-4.16162 0.251645 0.631792)
(-3.40079 0.464301 0.353361)
(-2.38049 0.19634 -0.443804)
(-4.12041 -0.154201 0.788102)
(-4.36527 0.746166 -0.0585789)
(-3.49071 0.264065 0.764004)
(-3.85364 0.736168 -0.592803)
(-2.44519 0.136551 -0.830878)
(-3.07146 -1.17474 -2.44476)
(-1.66494 -0.293846 -2.32095)
(-1.10069 -0.891465 -3.7445)
(-2.36537 -1.55788 -2.55644)
(-3.02299 -1.07282 -2.64207)
(-2.14616 -0.387577 -1.8968)
(-3.28719 -1.1645 -2.63144)
(-1.35801 -0.905454 -3.1148)
(-4.69844 -1.55448 3.03337)
(-5.12964 -1.69724 2.21062)
(-4.09604 -1.77355 0.118491)
(-4.65575 -2.40411 2.3722)
(-4.89913 -1.65508 2.74568)
(-4.98547 -1.27896 2.05227)
(-4.58529 -2.05715 1.90842)
(-3.84093 -1.83373 0.73553)
(-4.03422 -0.179091 0.217426)
(-3.65029 -0.785433 -0.310307)
(-3.68565 -0.133698 1.8243)
(-4.2633 0.00482601 1.60411)
(-4.06252 0.073609 -0.15882)
(-3.41192 -0.770384 0.0389307)
(-4.21475 0.313524 1.57433)
(-3.61076 -0.370997 1.82558)
(-4.04094 0.166008 0.0776547)
(-4.06154 0.00833789 1.21582)
(-2.357 0.374348 -0.188891)
(-3.94244 -0.540823 -1.5882)
(-4.16252 0.0267426 -0.505413)
(-3.87093 0.0895827 -0.836255)
(-3.47757 -0.384474 -0.89513)
(-3.48168 -0.174546 -1.31774)
(-3.36065 -0.680507 -0.833771)
(-3.97713 -0.38168 1.73268)
(-4.57412 -0.980115 1.00069)
(-4.33905 -1.09894 -0.163426)
(-3.17616 -0.958913 0.152057)
(-3.802 -0.833254 1.3821)
(-3.9403 -0.297534 0.125784)
(-4.29061 -0.365242 1.03683)
(-3.93715 -0.868448 -1.61105)
(-2.06266 -1.15402 -1.40284)
(-3.55402 -1.28634 0.588464)
(-1.99876 -0.846699 -1.0001)
(-3.69385 -0.813992 -1.93231)
(-3.97555 -0.308755 -0.629231)
(-3.95089 -0.597589 -1.77723)
(-3.69002 -1.80813 -1.16599)
(-4.03069 1.52492 0.123162)
(-3.7208 -0.0555317 -0.123491)
(-2.60005 1.23005 -0.522169)
(-3.4941 -0.077098 1.62148)
(-3.61426 1.63547 -0.0884269)
(-3.23793 1.27103 0.129257)
(-3.48941 1.37037 0.012771)
(-3.42802 1.55767 0.121199)
(-3.91681 -0.64392 0.448137)
(-2.98954 -1.80601 1.76658)
(-4.68521 -1.24439 2.29246)
(-2.98465 -3.91103 3.92521)
(-3.49236 -0.920473 0.941881)
(-3.58981 -0.614376 0.829455)
(-3.21552 -2.33351 2.76621)
(-3.55776 -2.34551 2.93033)
(-1.7028 0.0381847 -2.30826)
(-2.91316 1.68979 -0.09277)
(-1.27971 -0.357206 -3.06518)
(-2.42463 -1.32712 -2.85635)
(-2.16836 0.814015 -1.80711)
(-3.28797 1.27365 -1.05082)
(-1.83252 -0.689621 -2.7501)
(-1.74557 -0.564169 -1.76082)
(-3.86941 -1.85735 2.20015)
(-3.89645 -3.04281 3.45381)
(-2.83269 -2.63921 0.260094)
(-3.72192 -2.78167 2.11495)
(-4.07597 -2.64603 3.2165)
(-4.08317 -2.25753 3.12717)
(-3.26417 -2.59307 1.36005)
(-3.62534 -2.25844 1.65669)
(-3.74808 0.314387 0.484435)
(-3.28826 1.57311 -0.373761)
(-3.94178 -0.687702 1.85248)
(-3.31692 -2.59726 3.2414)
(-3.87776 0.607544 1.75374)
(-4.03073 1.29766 0.69484)
(-3.53309 -2.11531 3.09703)
(-3.48314 -0.455177 1.94401)
(-3.42363 -0.257854 -0.404615)
(-3.40888 -2.18998 3.12607)
(-4.32948 0.292674 1.64883)
(-3.63495 0.486595 0.275554)
(-3.74746 -0.0520403 1.61022)
(-3.55055 -0.707983 1.93763)
(-3.99117 1.06797 1.28806)
(-3.68707 0.309631 0.999571)
(-2.41917 1.09852 -1.41769)
(-4.21163 -0.727672 1.14301)
(-3.88008 -2.78927 3.20195)
(-1.87694 -2.55418 -0.205877)
(-3.50426 1.34598 -2.66384)
(-4.02941 -0.97163 1.53113)
(-3.72758 -0.0881318 0.207683)
(-4.556 -1.75738 3.55168)
(-2.31847 1.32273 -0.698146)
(-2.74753 -2.89998 1.32682)
(-4.16807 -2.34108 3.39102)
(-3.55911 -0.373698 2.00879)
(-2.39436 0.875244 0.382044)
(-4.11629 -2.26273 1.52889)
(-2.89978 -0.207587 1.33917)
(-4.49861 -2.20907 2.588)
(-0.648514 0.500374 -1.09365)
(-1.13206 -0.797132 0.576199)
(-0.785813 0.909848 -0.544383)
(1.57028 1.68848 2.29718)
(-0.557837 0.534758 -0.871365)
(-0.838482 -0.260235 -0.473487)
(0.661059 1.12818 0.238994)
(1.06506 1.60253 0.767533)
(0.163197 0.742901 -0.140609)
(1.88886 0.0383003 1.13196)
(2.63448 2.90361 3.71608)
(3.53446 2.69323 4.3576)
(1.31556 0.0323089 1.48722)
(0.3858 0.186025 -0.266619)
(2.92917 2.66785 3.85912)
(3.07458 2.60528 3.88332)
(-0.825011 1.50175 0.417962)
(2.3328 3.01474 4.2338)
(1.12347 1.64142 2.95112)
(2.40256 1.50679 3.20556)
(1.79209 2.16652 2.40955)
(1.92534 2.64719 2.90401)
(1.72349 1.36973 3.11858)
(1.65903 1.41925 2.68556)
(2.79655 2.44193 4.51336)
(2.74614 1.79775 4.16299)
(2.04867 1.30982 3.29384)
(1.48236 1.16454 2.90139)
(2.7635 2.04986 4.30706)
(3.06604 2.36514 4.56498)
(1.67499 1.1394 3.05507)
(1.84888 1.32687 3.32608)
(0.299808 -0.461721 0.359533)
(0.323676 0.129525 0.793745)
(2.20592 1.88927 3.11226)
(3.29862 2.44815 4.25872)
(1.65873 1.88072 1.52109)
(0.740116 1.4143 1.58311)
(2.72463 2.61669 3.8145)
(2.11627 2.22596 2.63224)
(0.395204 1.02726 1.00417)
(3.27168 2.72923 3.85913)
(2.23484 2.4894 2.22091)
(0.290447 1.20921 0.467317)
(2.19368 2.20359 2.86979)
(3.15524 2.71069 3.12134)
(0.010776 1.44714 1.49551)
(2.1917 1.83636 2.65361)
(1.70072 2.15526 2.91629)
(2.38881 2.56674 4.5693)
(2.76432 2.39864 4.18837)
(2.18114 1.36917 3.21931)
(2.16889 2.71072 3.65254)
(2.42076 2.41849 4.01023)
(2.75567 2.63547 4.35998)
(2.92627 2.59082 4.79457)
(1.62871 2.50498 2.72801)
(2.24813 1.50798 3.48146)
(2.79421 2.43294 4.3202)
(2.64074 2.83239 4.28327)
(2.7596 2.91633 4.78061)
(2.82314 2.71392 4.42338)
(2.47542 2.81202 4.14087)
(2.81027 2.7541 4.29088)
(3.19489 0.714371 4.04455)
(2.95369 0.857557 3.98649)
(1.21363 0.962116 0.51675)
(3.22434 1.4999 4.40602)
(3.16004 0.90941 4.03134)
(3.02213 1.05377 3.62235)
(3.03521 0.905961 3.58708)
(2.74589 0.91223 2.90317)
(2.74593 1.00589 3.25195)
(2.30312 0.925567 1.87221)
(-0.322104 0.505638 -0.654958)
(3.55746 2.47825 4.40966)
(2.59822 1.28791 2.7378)
(2.04324 0.427453 1.19098)
(2.00348 0.136412 1.6838)
(1.01642 -0.0418217 0.698002)
(-0.298872 0.394443 -0.762596)
(-0.682947 -0.332886 0.183902)
(-0.291487 0.528872 -0.942924)
(2.03605 2.013 2.81367)
(-0.182719 0.490967 -0.596364)
(-0.61895 0.00589861 0.0558485)
(-0.6089 0.81477 -0.36378)
(-0.367221 0.471988 -0.245162)
(2.23298 1.56173 3.71495)
(2.44577 1.90184 3.73044)
(2.75005 2.18875 4.35346)
(1.50897 0.996166 2.66235)
(2.2387 1.80322 3.96451)
(2.42589 1.85464 4.16324)
(2.48898 1.85092 4.23683)
(2.67586 1.9369 4.24367)
(3.02571 1.30121 3.66691)
(0.747223 1.06348 0.433612)
(3.43192 1.85781 4.51408)
(3.53953 2.22843 4.55291)
(2.53123 0.773211 2.4617)
(2.56929 0.521877 2.37375)
(3.46566 2.05564 4.44524)
(3.46861 2.03625 4.40308)
(2.65899 1.48161 2.47133)
(3.54906 2.5726 4.12409)
(-0.0985597 -0.0261943 -0.0618689)
(0.0964093 0.502091 -0.117153)
(1.82671 0.195602 1.62156)
(1.86961 -0.167089 1.31441)
(0.736032 0.830121 0.220598)
(0.157534 0.181203 -0.216392)
(1.01864 0.461705 0.686205)
(3.38957 2.03193 4.58272)
(3.54952 2.40188 4.32461)
(2.68279 2.32926 3.79189)
(3.03151 2.50256 3.98046)
(3.49811 2.17812 4.54163)
(2.96099 2.63957 3.98192)
(3.2966 2.25564 4.38817)