/*--------------------------------*- C++ -*----------------------------------*\
| =========                 |                                                 |
| \\      /  F ield         | OpenFOAM: The Open Source CFD Toolbox           |
|  \\    /   O peration     | Version:  2412                                  |
|   \\  /    A nd           | Website:  www.openfoam.com                      |
|    \\/     M anipulation  |                                                 |
\*---------------------------------------------------------------------------*/
FoamFile
{
    version     2.0;
    format      ascii;
    arch        "LSB;label=32;scalar=64";
    class       volScalarField;
    location    "1000";
    object      k;
}
// * * * * * * * * * * * * * * * * * * * * * * * * * * * * * * * * * * * * * //

dimensions      [0 2 -2 0 0 0 0];

internalField   nonuniform List<scalar> 
43136
(
0.00395505
0.00395752
0.00401224
0.00390132
0.00394524
0.00397687
0.0039593
0.00398199
0.00396761
0.0039704
0.00402005
0.00391141
0.00396121
0.00398923
0.00397585
0.00399445
0.0040671
0.00406718
0.00411043
0.00396735
0.00405809
0.00409199
0.00406322
0.00408812
0.00384742
0.00385385
0.00387921
0.00382453
0.00384173
0.00385862
0.00385247
0.00386286
0.00394653
0.00400346
0.00388398
0.00389206
0.0039606
0.00397904
0.00390129
0.00390708
0.00398142
0.00391603
0.00404117
0.00403947
0.00398145
0.00398585
0.00401346
0.00400453
0.00401043
0.00389475
0.00390113
0.00393434
0.00392825
0.00391125
0.00392632
0.00391076
0.0040382
0.00394863
0.00391703
0.00403519
0.00403302
0.00394537
0.00401329
0.0039361
0.00378848
0.00384052
0.00382491
0.00381991
0.00379964
0.00381826
0.00380986
0.00382305
0.00391122
0.00404114
0.00399239
0.00398353
0.00393763
0.00398175
0.00395993
0.00400386
0.00387855
0.00397204
0.00395316
0.00393022
0.00389875
0.00394673
0.00391717
0.0039618
0.00385345
0.0039409
0.00390716
0.00389141
0.00386898
0.00389375
0.00388181
0.00390289
0.00386103
0.00383909
0.00383298
0.0039123
0.00387584
0.00383743
0.00389119
0.00385334
0.00388917
0.00394146
0.00395878
0.00387388
0.00390212
0.00392263
0.00389356
0.00391502
0.00385449
0.00384417
0.00392703
0.00389733
0.00386549
0.00386191
0.00388096
0.00387761
0.00388404
0.00392645
0.00395566
0.00397613
0.00390015
0.00391493
0.00393384
0.00395172
0.00402638
0.00404455
0.00407455
0.00395572
0.00401758
0.00405484
0.00400139
0.00404626
0.0040881
0.00415683
0.00418938
0.0039966
0.0040784
0.00416858
0.0040499
0.00415666
0.00415478
0.00422405
0.00430184
0.00403654
0.0041488
0.00424112
0.00411828
0.00422633
0.00389462
0.00390385
0.00391835
0.0038457
0.00388546
0.00390926
0.00387437
0.00390127
0.00403177
0.00406663
0.0039436
0.00396006
0.00401137
0.00401963
0.00396952
0.00397178
0.00408831
0.00400078
0.00418763
0.00412591
0.00407942
0.004049
0.00411771
0.00410279
0.0040444
0.0039308
0.00394214
0.00396161
0.00398879
0.00396471
0.00397802
0.00394569
0.00411605
0.00401081
0.00399363
0.00417204
0.00408293
0.00402018
0.00407305
0.0040122
0.0187027
0.018013
0.0177297
0.0107881
0.0172226
0.0180459
0.0166493
0.0171212
0.0169578
0.0159615
0.0164627
0.00945457
0.0151399
0.0161482
0.0147706
0.0154903
0.0175791
0.0171733
0.017063
0.0103221
0.0165434
0.0174083
0.0158823
0.0164269
0.00543867
0.00595273
0.0067637
0.00426406
0.00507871
0.00631121
0.00520101
0.00611956
0.0163468
0.0169726
0.00992768
0.0102373
0.0158311
0.0165038
0.0115672
0.0108356
0.0171741
0.0101851
0.0172344
0.0177917
0.0164101
0.0160184
0.0173016
0.0163681
0.0164649
0.00982944
0.0100366
0.0101424
0.0107424
0.0103328
0.0102948
0.0100521
0.0170007
0.0102683
0.00997697
0.0162647
0.0161476
0.0103485
0.0157288
0.0101223
0.0160607
0.0158923
0.017495
0.00877906
0.0156338
0.0164862
0.0159763
0.0165338
0.0170106
0.0179423
0.0174447
0.00924491
0.0163042
0.0173355
0.0157048
0.0162849
0.0205463
0.0174984
0.0202234
0.0107583
0.0194478
0.0202062
0.0185953
0.0192739
0.0050701
0.00531252
0.0060954
0.00420719
0.00488971
0.0055468
0.00492012
0.00537035
0.0155781
0.0183457
0.00805093
0.00877823
0.0155555
0.0175925
0.00941476
0.00946449
0.0165261
0.00928672
0.0173233
0.019314
0.0163012
0.0157744
0.0173141
0.0163369
0.0183518
0.00801647
0.00900079
0.0107407
0.0100246
0.0089795
0.0107478
0.00978588
0.0197019
0.010803
0.00914427
0.0162958
0.0187351
0.0107122
0.0157572
0.00919466
0.00414395
0.00410853
0.00417848
0.00398654
0.00411189
0.00414526
0.00412521
0.00413794
0.0040563
0.00400245
0.00409838
0.0039323
0.00401711
0.00404306
0.00403288
0.00405025
0.00420838
0.00419211
0.00428738
0.00402774
0.00415653
0.0042313
0.00416929
0.00423211
0.00389537
0.00386943
0.00391074
0.00383834
0.00387735
0.00388923
0.00388446
0.0038942
0.00405769
0.00411981
0.0039663
0.00393718
0.00406963
0.00408731
0.00395799
0.00397881
0.00409666
0.00395536
0.00413974
0.00417365
0.00408851
0.00404976
0.00413203
0.00408657
0.00413149
0.00397514
0.00394911
0.00398889
0.00400215
0.00398277
0.00398058
0.00396102
0.00416409
0.00400598
0.00396132
0.00413997
0.00412027
0.00400251
0.00410187
0.0039805
0.00376321
0.0037994
0.00379144
0.00377569
0.00376866
0.00378292
0.00377336
0.00378559
0.00386689
0.00394703
0.00394606
0.00389855
0.00388465
0.00392808
0.00389581
0.00393534
0.00385017
0.00393447
0.00393156
0.00388375
0.00386659
0.00391148
0.00388202
0.00391752
0.00379305
0.00384506
0.00383474
0.00381401
0.00380241
0.00382047
0.00380979
0.00382385
0.00381215
0.00380247
0.00378378
0.00383431
0.00382135
0.00379487
0.00382217
0.00380124
0.00384337
0.00386726
0.0039163
0.00383161
0.00384811
0.00386194
0.00385325
0.00387031
0.00381038
0.00379011
0.00384345
0.00383132
0.003811
0.00380456
0.00382183
0.00381447
0.00383645
0.00385472
0.00386869
0.00391913
0.00385023
0.0038519
0.00388132
0.00388414
0.00378895
0.003836
0.00383263
0.00381323
0.00379932
0.00381307
0.00380977
0.00382043
0.00390507
0.00401464
0.00398892
0.00396474
0.00393608
0.00395864
0.00395254
0.00397007
0.0038833
0.00395753
0.00394164
0.0039005
0.00389513
0.00391639
0.0039096
0.0039216
0.0038335
0.00390198
0.00386935
0.00384741
0.00384197
0.00385932
0.00385096
0.00386164
0.00385499
0.00384281
0.00382181
0.00389333
0.00386825
0.00383387
0.00387376
0.0038386
0.00387236
0.00391303
0.00392928
0.00386066
0.00388125
0.00389678
0.00389582
0.00390738
0.00385544
0.00383095
0.00390415
0.00387371
0.00385226
0.00384242
0.0038634
0.0038569
0.00386836
0.00388568
0.00391831
0.0039375
0.00388605
0.00388418
0.00392245
0.00392733
0.017738
0.0182414
0.0184823
0.0110044
0.0165471
0.0186351
0.0160905
0.0178884
0.0176558
0.0148756
0.0170473
0.0107732
0.017635
0.0160603
0.0177215
0.0163705
0.0184099
0.0183126
0.019124
0.0104637
0.0188827
0.0189831
0.0183629
0.0185287
0.00552308
0.005285
0.00567705
0.00425072
0.00499919
0.00554623
0.00503713
0.00542437
0.0172366
0.0171017
0.0102064
0.00995919
0.0176922
0.0171489
0.0106056
0.0106708
0.0180442
0.0111668
0.0179687
0.0185611
0.0178834
0.0189436
0.0183305
0.0190358
0.0171248
0.010073
0.00980778
0.00962296
0.0104896
0.0104263
0.00983409
0.00973423
0.0180261
0.0104416
0.0107919
0.0177465
0.0185502
0.0107288
0.0185021
0.0108531
0.00376632
0.00376685
0.00376022
0.0037991
0.00377722
0.00376554
0.00378224
0.00377724
0.00376685
0.0037649
0.00376222
0.00380032
0.0037773
0.0037649
0.00378589
0.0037787
0.00375644
0.00375733
0.00375383
0.00377731
0.00376273
0.00375633
0.00376514
0.00376152
0.0038477
0.00384353
0.00383052
0.00389749
0.00386333
0.00384872
0.00387365
0.00386565
0.00377815
0.00376899
0.00381764
0.00381839
0.00378747
0.00379331
0.00380126
0.00380486
0.00376582
0.00380556
0.00376122
0.00376051
0.00378151
0.00379558
0.00376202
0.00377119
0.00377356
0.00382658
0.00382717
0.00381024
0.0037895
0.0038209
0.003804
0.00383745
0.00376961
0.0038038
0.00381909
0.00377064
0.0037797
0.00379093
0.00377642
0.00378821
0.00377557
0.00377239
0.00382096
0.00380281
0.00378495
0.00378338
0.00379431
0.00379382
0.00376899
0.0037746
0.00382995
0.003792
0.00377805
0.00378211
0.00378833
0.00379234
0.00388626
0.00390562
0.00398391
0.0039565
0.00392494
0.00392049
0.00394715
0.00394528
0.00382179
0.00381182
0.00389524
0.0038393
0.00382425
0.00382289
0.00383543
0.00383759
0.00377673
0.00383962
0.00380488
0.00379795
0.00378632
0.00379895
0.00379112
0.00380151
0.00377831
0.00380112
0.00384538
0.00383861
0.00378868
0.00379843
0.00382225
0.00384167
0.00385682
0.00381502
0.00380853
0.00389492
0.00386189
0.00381644
0.0038766
0.00382129
0.00385695
0.00389975
0.00381276
0.00386218
0.00387728
0.00388033
0.00385968
0.00386243
0.0037801
0.00382566
0.00378137
0.00382789
0.00379954
0.0038105
0.00380702
0.00382096
0.00387479
0.00393376
0.00386545
0.00395145
0.00390146
0.00391074
0.00391723
0.00393026
0.00377945
0.00381528
0.00377784
0.00382248
0.00379867
0.00380066
0.00380089
0.00380803
0.00389175
0.00396696
0.00388726
0.00400796
0.00392491
0.00393729
0.0039352
0.0039566
0.00384739
0.00380126
0.00385014
0.00391169
0.00386074
0.00383748
0.0038841
0.0038638
0.00385743
0.00392466
0.00384984
0.0038074
0.00387335
0.00389198
0.00382335
0.00384461
0.00380751
0.00385999
0.00392512
0.00385725
0.00382794
0.00387644
0.00384925
0.00389653
0.00381613
0.00387191
0.0039395
0.00386047
0.00383181
0.0038598
0.00385438
0.00387724
0.00376798
0.00376544
0.00377035
0.00381696
0.00377928
0.00376889
0.00379706
0.00378709
0.00376508
0.00376504
0.00376489
0.0038099
0.00377619
0.00376761
0.0037908
0.00378208
0.00376932
0.00376329
0.0037675
0.00382295
0.00378139
0.00376644
0.00379829
0.00378075
0.00387567
0.00386971
0.00389202
0.00395823
0.00389134
0.00388134
0.00391825
0.00390666
0.00377682
0.00378297
0.00382953
0.00382415
0.0037931
0.00379813
0.00381191
0.00382043
0.00376798
0.00381584
0.00376545
0.00376909
0.00378471
0.00379521
0.00376645
0.00377854
0.00379964
0.0038498
0.0038439
0.00386085
0.00382448
0.00384108
0.00383862
0.0038539
0.00378737
0.00384271
0.00383455
0.00377911
0.00379747
0.00382241
0.00379128
0.00381378
0.00405089
0.00399991
0.00392971
0.0040344
0.00402181
0.0039766
0.00399226
0.00395286
0.0039482
0.00388906
0.0038545
0.00392577
0.00392822
0.00388463
0.00391496
0.00386813
0.00385062
0.00382231
0.00379268
0.00384025
0.0038364
0.0038165
0.00382477
0.00380337
0.00399592
0.00396113
0.00390282
0.00397784
0.00397467
0.00394398
0.00395384
0.00392346
0.00397979
0.00391468
0.0039878
0.00395818
0.00396176
0.00394028
0.0039804
0.00395908
0.00393154
0.00391692
0.00384812
0.00388404
0.00391262
0.00390161
0.00389459
0.00388215
0.00389733
0.0039714
0.00394155
0.0038833
0.00391663
0.00393725
0.00389929
0.00392353
0.00386717
0.00385613
0.00389878
0.00383364
0.00385677
0.0038728
0.00386933
0.0038837
0.00410967
0.00417445
0.00413678
0.00402142
0.00410258
0.00413367
0.0040675
0.00411043
0.00429433
0.00446361
0.00436749
0.00409727
0.00429109
0.00442101
0.00421279
0.00438778
0.00414035
0.00420276
0.0040759
0.00399662
0.00412859
0.00417063
0.00407332
0.00413138
0.00394328
0.00395593
0.00393156
0.00386993
0.00393081
0.00395407
0.00390598
0.00393662
0.00416483
0.00412422
0.00400757
0.00404328
0.0041198
0.00408097
0.00405973
0.00403013
0.00422538
0.00408065
0.00431744
0.00415975
0.00419793
0.00415523
0.00424253
0.00422758
0.0040797
0.00397873
0.00400788
0.00397705
0.00402486
0.00401187
0.00400918
0.00399061
0.00412652
0.00401195
0.00405758
0.00427253
0.00409411
0.00403444
0.00414564
0.00404006
0.00397485
0.0039927
0.00407204
0.00392145
0.00395681
0.00402176
0.00397543
0.00402124
0.0040263
0.00406404
0.00418661
0.00398174
0.00401024
0.00410985
0.00403498
0.00411011
0.00421463
0.00435146
0.00445992
0.00407722
0.00420896
0.00438877
0.00423355
0.00436351
0.00388516
0.00391608
0.00394057
0.00385916
0.00388201
0.00391989
0.00389567
0.0039222
0.0039746
0.00406078
0.00391163
0.00394259
0.00399555
0.00402104
0.00394715
0.0039538
0.00405809
0.00399242
0.00426246
0.00415694
0.0040554
0.0040592
0.00410794
0.00410194
0.00408213
0.00392688
0.0039596
0.00399904
0.00398013
0.00395589
0.0039843
0.00396489
0.00415487
0.00404032
0.003995
0.00425052
0.00415567
0.00403979
0.00412872
0.0040225
0.00409225
0.00399879
0.00410203
0.00407492
0.00407005
0.00404363
0.00409061
0.00407902
0.00392134
0.00385941
0.0039334
0.00389707
0.0039024
0.00388751
0.00391596
0.00390246
0.00410253
0.004004
0.00405296
0.00404203
0.00407398
0.00404709
0.00406434
0.0040388
0.00404866
0.00395196
0.00405018
0.00402581
0.00402271
0.00399581
0.00403099
0.00401297
0.00397983
0.00407863
0.00404924
0.00395445
0.00399835
0.00404383
0.00397294
0.00402079
0.00395873
0.00393323
0.00396557
0.00405007
0.00398272
0.00395383
0.00400397
0.00398711
0.00409636
0.00407082
0.00396716
0.00405688
0.00407769
0.00405561
0.00405605
0.00401812
0.00408372
0.00402674
0.00395175
0.00398036
0.00404511
0.00402835
0.00399857
0.00398697
0.0167628
0.0159167
0.00675396
0.00643091
0.0163867
0.0166439
0.00906511
0.0104476
0.0151133
0.0143842
0.00794361
0.0083426
0.0148944
0.0147338
0.0115201
0.0117617
0.00440348
0.00456608
0.00402475
0.00403141
0.00445917
0.00449655
0.00407428
0.00412323
0.00438687
0.00472051
0.00403909
0.0040819
0.00447076
0.00451448
0.0041161
0.00418183
0.0156167
0.00701602
0.00681249
0.00796278
0.0109754
0.0102016
0.00768958
0.00711008
0.0153855
0.00808216
0.0077967
0.00711933
0.0114275
0.0111412
0.00760249
0.00759665
0.00474346
0.00480187
0.00544978
0.00409132
0.00434615
0.00515804
0.0044692
0.00516323
0.00494304
0.00415083
0.00574451
0.00523199
0.0049667
0.00451561
0.00509352
0.00464894
0.0161118
0.0145797
0.00929869
0.0086565
0.0153996
0.0148138
0.0103368
0.0107479
0.0134809
0.0126366
0.00926756
0.009964
0.0129774
0.0126604
0.0102499
0.0101374
0.00518316
0.00575517
0.00412592
0.00419202
0.00538315
0.00541012
0.0042605
0.00441131
0.00469254
0.00517209
0.00417675
0.00417171
0.00477601
0.00481098
0.00422234
0.00432327
0.0140157
0.00964653
0.00902176
0.00978406
0.0106046
0.0105714
0.00978786
0.00938362
0.013647
0.00980376
0.0092593
0.0094976
0.0106022
0.0104051
0.00947587
0.00937652
0.00608366
0.00525563
0.00621672
0.00422921
0.0048097
0.00582073
0.00489422
0.00578276
0.00706397
0.00431612
0.00664882
0.00877669
0.00774284
0.00499629
0.00835622
0.00529489
0.0165743
0.00652421
0.0131627
0.00716959
0.0128402
0.0133834
0.0129332
0.0130106
0.0042762
0.00400189
0.00445553
0.00401342
0.00415443
0.00420364
0.0042869
0.00424318
0.0126621
0.00840205
0.0120584
0.00839053
0.0121047
0.0120562
0.0119092
0.0117681
0.00463497
0.0040444
0.00468358
0.00407502
0.0044076
0.00446126
0.00453404
0.00450637
0.00552832
0.0126253
0.00621809
0.00433825
0.00645413
0.0125425
0.00457967
0.00704819
0.00592834
0.00442316
0.00747118
0.0127117
0.00625307
0.00619998
0.00727973
0.00685186
0.0125127
0.00680037
0.00456429
0.00792087
0.00778047
0.00712657
0.00763196
0.00705804
0.0123781
0.00818801
0.00449559
0.00760353
0.0119659
0.00834721
0.00769491
0.00480192
0.0037796
0.00382325
0.00377749
0.00382273
0.00380068
0.00380938
0.00380938
0.00381852
0.00386732
0.00391773
0.00384499
0.00392476
0.00389378
0.00389846
0.0039031
0.00390755
0.00376795
0.00378941
0.00376102
0.00379567
0.00378077
0.00377706
0.00378179
0.00377908
0.00387361
0.00393081
0.00385996
0.00393521
0.00390015
0.00391118
0.00391384
0.00392113
0.00384647
0.00379755
0.00384581
0.00390196
0.00385773
0.0038319
0.00387704
0.00385802
0.00385192
0.00390336
0.00382842
0.00379176
0.00386247
0.00387529
0.00380838
0.00382999
0.00379496
0.00385713
0.00390755
0.00384155
0.0038119
0.00386547
0.00383426
0.00387896
0.003796
0.00383713
0.00391235
0.00382776
0.00380482
0.00383117
0.00382717
0.00384751
0.00515509
0.00466323
0.00715423
0.00476828
0.00498265
0.00497467
0.00494271
0.00500176
0.00448916
0.00415956
0.00586755
0.00423604
0.0044478
0.00460003
0.00438053
0.00457668
0.00947158
0.00901386
0.0118483
0.00982725
0.00966538
0.0094842
0.00995714
0.00987094
0.0044655
0.00422262
0.00532043
0.00421377
0.00439825
0.00448649
0.00434344
0.00448477
0.00464224
0.00671286
0.00468733
0.00436704
0.00456285
0.00486888
0.00440885
0.00474683
0.00489304
0.00442613
0.00958284
0.00750572
0.00489855
0.00468242
0.00716569
0.00712548
0.00662309
0.00462663
0.00431638
0.00578718
0.00627779
0.00476637
0.00603133
0.00461814
0.00729443
0.00695658
0.00442089
0.00910571
0.00702187
0.00667408
0.00658087
0.00538582
0.00401143
0.00398901
0.00392864
0.00400615
0.00399737
0.00397383
0.00397073
0.0039495
0.00391769
0.00384798
0.00382464
0.00388261
0.00387308
0.00384377
0.00386461
0.00383121
0.00384553
0.00380434
0.00378458
0.00382802
0.00381736
0.00380015
0.00380939
0.00378874
0.00400712
0.00393698
0.00389538
0.00399531
0.0039677
0.00393004
0.00395165
0.00391221
0.00394736
0.00390004
0.00398766
0.00391616
0.00393457
0.00392301
0.00396925
0.00395769
0.00391204
0.00388179
0.00382147
0.00387334
0.00389292
0.00386182
0.00388142
0.00384737
0.00388546
0.00396597
0.00390568
0.00386688
0.00391874
0.00393664
0.00387929
0.00390034
0.00385467
0.0038393
0.00386811
0.00380978
0.00383134
0.00385381
0.00383798
0.00385681
0.00378046
0.00380341
0.00382891
0.00382353
0.00378938
0.00379802
0.00381069
0.0038152
0.00382951
0.00385911
0.0038977
0.00389821
0.00384249
0.00385616
0.00387079
0.00388039
0.0038994
0.00394481
0.00400493
0.00397782
0.00391824
0.00393893
0.00397462
0.00398689
0.00388649
0.00393419
0.00396283
0.00395898
0.00390627
0.0039254
0.00394446
0.00395774
0.00381495
0.0038435
0.00383954
0.00387826
0.00383975
0.00383002
0.00386102
0.00385395
0.00382514
0.0038935
0.0038941
0.00385886
0.00384647
0.00386026
0.00386442
0.00387834
0.00387806
0.00387031
0.00390999
0.00395242
0.00389189
0.00388042
0.00390952
0.0038982
0.00388807
0.00396526
0.00392123
0.00392596
0.00390601
0.00392924
0.00391567
0.00393892
0.0130424
0.0163515
0.0115159
0.00772876
0.012049
0.0136196
0.00921274
0.0106105
0.0248805
0.0691246
0.102174
0.0124853
0.0217274
0.068518
0.0148814
0.0613053
0.0146959
0.0491864
0.0276387
0.0114412
0.0143807
0.0295152
0.0127943
0.0208925
0.00568247
0.0075075
0.00682361
0.00455762
0.00559139
0.00688148
0.00488442
0.00604226
0.0147879
0.0109316
0.00751467
0.00924517
0.0107625
0.0106955
0.00949957
0.00891852
0.0193433
0.0115944
0.0635328
0.0140379
0.0139786
0.0147184
0.0168365
0.0162673
0.00906937
0.00649929
0.008711
0.00779027
0.00833478
0.00755976
0.00829116
0.00808666
0.0122855
0.00987911
0.0104576
0.0327952
0.0131816
0.0110345
0.013628
0.0120364
0.0286472
0.0492002
0.0479415
0.0111547
0.029876
0.0494009
0.033251
0.047135
0.0925771
0.0706232
0.047342
0.0126221
0.0636963
0.0739497
0.0542708
0.0566902
0.0431144
0.0303246
0.02186
0.0101736
0.0323564
0.0297406
0.0258726
0.0232703
0.00685004
0.00775402
0.00804089
0.00466651
0.00665675
0.00785086
0.00679536
0.00762165
0.0488838
0.0491263
0.0103731
0.0108841
0.0505129
0.0459885
0.0117299
0.0117822
0.0909883
0.0125187
0.0471769
0.0617987
0.072041
0.0486547
0.0628047
0.0470334
0.0437684
0.0101626
0.0105781
0.0100445
0.0108982
0.0110362
0.0103803
0.0102715
0.0493333
0.0103365
0.0114794
0.0354149
0.03407
0.011194
0.0381288
0.0112663
0.0130684
0.0161071
0.0122676
0.00726382
0.0122193
0.0141625
0.00926864
0.0111575
0.0258392
0.0312664
0.0673858
0.0520431
0.0226616
0.0312277
0.017451
0.0418982
0.0172488
0.0540359
0.0327216
2.12028
0.0269381
0.0424088
0.0758941
0.0494399
0.00517991
0.0549446
0.189617
0.00460306
0.00629042
0.0475217
0.00642111
0.100664
0.0146031
0.0115308
0.00702947
0.0288288
0.0118301
0.0113687
0.0110649
0.00957805
0.0215992
0.059096
0.0548647
0.0159742
0.0157699
0.0174087
0.0192306
0.0199587
0.00957245
0.00586336
0.0739421
0.318266
0.0111002
0.0100084
0.111163
0.0579058
0.0136541
2.81632
0.233917
0.0385047
0.0214004
0.333236
0.0238681
0.338492
0.0319326
0.050664
0.17614
1.86572
0.046916
0.04731
0.356014
0.239356
0.0620004
0.0412065
0.176726
0.318486
0.0536694
0.0540266
0.158089
0.119257
0.227582
0.324267
0.190982
0.579836
0.315738
0.309033
0.253945
0.270096
0.307366
0.114966
0.12292
0.00575929
0.173195
0.200956
0.10229
0.132149
0.0506442
0.306818
2.03894
0.821144
0.335334
0.465168
1.22168
1.94214
0.0526662
0.782599
0.262616
0.299187
0.22621
0.276528
0.251106
0.264926
0.339271
1.87296
0.969133
0.799293
1.41801
1.82734
1.39091
1.51266
0.313896
0.93134
0.891712
0.341235
0.436734
1.31108
0.405201
0.999152
0.0172955
0.0184805
0.0124789
0.00854738
0.0155446
0.0166139
0.0105741
0.0116989
0.0273838
0.0428059
0.120839
0.01522
0.02423
0.0418329
0.0181688
0.0767394
0.0174983
0.0684351
0.0361061
0.015159
0.0176172
0.0431003
0.0161693
0.0283066
0.00590482
0.00839913
0.00787157
0.00463244
0.00578406
0.00766224
0.00500632
0.00676049
0.0162471
0.0122101
0.00820147
0.0106245
0.0121039
0.0118935
0.0108287
0.0101254
0.0238318
0.0140451
0.091679
0.0174273
0.0172821
0.0182015
0.0215232
0.0205026
0.0111451
0.00697777
0.0102775
0.00926782
0.00972795
0.00867341
0.00990963
0.00946864
0.0153579
0.0128686
0.0131245
0.0468716
0.0164997
0.0139612
0.0172245
0.0152561
0.0384301
0.0693775
0.0625962
0.0147512
0.0417686
0.0687282
0.0465954
0.0633092
0.104325
0.0432963
0.0392152
0.015418
0.0727535
0.0501152
0.0570512
0.042362
0.0477479
0.0302758
0.0236959
0.0121424
0.0336816
0.0299353
0.027852
0.0250817
0.00779199
0.0086574
0.0086626
0.00474578
0.00740484
0.00877928
0.0075712
0.00844131
0.0636988
0.0602142
0.0133406
0.0135727
0.0633632
0.0579416
0.0147286
0.0147395
0.10841
0.0152611
0.041856
0.0715778
0.0825789
0.0516219
0.0696662
0.0485073
0.0533667
0.0131596
0.0133272
0.0123058
0.0137118
0.0138744
0.013054
0.0130509
0.0554165
0.0125365
0.0141059
0.0343045
0.0359992
0.0135708
0.039454
0.0136929
0.0160129
0.0139607
0.0179918
0.0109926
0.0132175
0.0163045
0.0131502
0.0153732
0.0173565
0.0306826
0.0474081
0.0138979
0.0166072
0.0336591
0.016706
0.0294706
0.0231851
0.0648139
0.0351152
0.0162253
0.0202824
0.044999
0.0198506
0.0372551
0.00796528
0.00836832
0.0101179
0.00540821
0.00683934
0.0091064
0.00701134
0.00872027
0.0125877
0.0156672
0.010031
0.0101089
0.012741
0.0141555
0.0106752
0.011455
0.0175185
0.0145592
0.0601044
0.0214926
0.0164324
0.0163394
0.0189903
0.0178823
0.015426
0.0102253
0.0107861
0.0118752
0.0121538
0.0111602
0.0116933
0.0109163
0.0199802
0.0146078
0.01378
0.0485063
0.0187388
0.0152759
0.0176321
0.0148211
0.0209974
0.0248711
0.0312897
0.0137438
0.0211571
0.0244899
0.0214014
0.0243138
0.0311088
0.0361006
0.0567936
0.0169306
0.0343464
0.0446544
0.0337574
0.0388652
0.0469723
0.0495787
0.0328247
0.014072
0.0475245
0.049705
0.0368996
0.03534
0.0120681
0.011853
0.0090033
0.00579093
0.0118463
0.012158
0.00980984
0.00973967
0.0268482
0.0352759
0.014534
0.0161199
0.0267231
0.0249455
0.0154538
0.0152828
0.0316939
0.0167243
0.0634559
0.0440705
0.0305378
0.0311456
0.0435307
0.0505796
0.0378782
0.0141536
0.0149218
0.0135345
0.0144427
0.0145848
0.0144709
0.0146118
0.0448482
0.0139005
0.0150309
0.0522526
0.0470438
0.0148415
0.0497018
0.014958
0.00849574
0.00765879
0.00965492
0.00660249
0.0087069
0.00891143
0.00874669
0.00920128
0.00489628
0.00406678
0.00518434
0.00411025
0.00481293
0.00482318
0.00480863
0.00489043
0.0107527
0.00996944
0.0113671
0.00845208
0.0106898
0.0109439
0.010708
0.0113374
0.00438688
0.00403346
0.00441327
0.00405927
0.00431813
0.00433309
0.0043002
0.0043031
0.00768065
0.00976147
0.0065719
0.00489762
0.0076598
0.00892198
0.00497719
0.00675524
0.00785356
0.00495085
0.00923886
0.00989923
0.00830369
0.00783118
0.00895859
0.00897583
0.00982099
0.00649556
0.00486409
0.00729486
0.00741457
0.00693563
0.00741552
0.00661086
0.0102492
0.00790014
0.00498706
0.00971054
0.00982907
0.00762268
0.008823
0.00526223
0.00410745
0.00411641
0.00417853
0.00409258
0.00411355
0.00413853
0.00413222
0.00415706
0.00411949
0.00409051
0.00423597
0.00412257
0.00410172
0.00412655
0.00414292
0.00419032
0.00424283
0.00435292
0.0044376
0.00436087
0.00426629
0.00434622
0.00430572
0.00439362
0.00406782
0.00413988
0.00429571
0.00412838
0.00406339
0.00411559
0.00410034
0.0042198
0.00412041
0.00417675
0.00409645
0.00407954
0.00413745
0.00414998
0.00409166
0.00412042
0.00414786
0.00412161
0.00425147
0.00420481
0.00416426
0.00415048
0.00418322
0.00418878
0.00419502
0.00411492
0.00411685
0.00420711
0.00417146
0.00414248
0.00416592
0.00414198
0.00422115
0.00429472
0.00418975
0.00430649
0.00423908
0.00423688
0.0042344
0.00425906
0.0225007
0.021183
0.0236446
0.0139959
0.0219917
0.0231796
0.0214364
0.0223235
0.0193165
0.0193256
0.019499
0.0128116
0.0178429
0.018937
0.0170827
0.0177164
0.0211662
0.0200215
0.0199785
0.013267
0.0202098
0.0202152
0.0193163
0.0194402
0.00596444
0.00535444
0.00513079
0.00411856
0.0053493
0.00574209
0.00485397
0.00485421
0.0197333
0.0229128
0.0143164
0.0124869
0.0191856
0.0221829
0.0131179
0.0147568
0.0209141
0.0126106
0.0196608
0.0233128
0.0197925
0.0192915
0.0211821
0.0198676
0.0217441
0.0142076
0.0120362
0.0131398
0.0151166
0.014485
0.0143372
0.0140497
0.0223943
0.0122972
0.0119041
0.0186785
0.0223975
0.0135319
0.0194505
0.0129038
0.00409922
0.00408208
0.00401204
0.00406975
0.0040751
0.00407108
0.00406281
0.00404587
0.00406151
0.00402729
0.00396472
0.00400212
0.00404062
0.00402986
0.00402227
0.00399679
0.00393551
0.0039105
0.00387067
0.00391202
0.00391764
0.00390428
0.00390792
0.00388696
0.00403036
0.00398481
0.00395427
0.003983
0.00400617
0.00399513
0.00399456
0.00397174
0.00405769
0.00399152
0.00404625
0.00401469
0.0040455
0.00403993
0.00403783
0.00403782
0.0040534
0.00400435
0.00395393
0.00397709
0.00402246
0.00401446
0.00398965
0.00396952
0.00397911
0.00403528
0.0040008
0.00395395
0.00398687
0.00401418
0.00396703
0.00400443
0.0039611
0.00392909
0.00397657
0.00393287
0.00395476
0.00395228
0.00395677
0.00395576
0.00379973
0.00391681
0.00385819
0.00385832
0.0038131
0.00383015
0.00383137
0.00384303
0.00468434
0.0166184
0.00922204
0.00756495
0.00567294
0.0105681
0.00629073
0.00965833
0.00395591
0.00492701
0.00408253
0.00414291
0.00400942
0.00406377
0.00405006
0.00408791
0.00395178
0.00454071
0.00412368
0.00411315
0.00399987
0.00409355
0.00404117
0.0040999
0.00400212
0.00387903
0.00388114
0.00444944
0.00407472
0.0038735
0.00426419
0.00393054
0.0042435
0.00471409
0.00547876
0.00393295
0.00425067
0.00452217
0.00428015
0.00442055
0.00390273
0.00390663
0.00451578
0.00404309
0.00395251
0.00394092
0.00400248
0.00401639
0.00394204
0.00412084
0.00467712
0.00516676
0.00402755
0.00411082
0.00450366
0.00466168
0.0185349
0.0172241
0.0186417
0.0104695
0.0172868
0.0183855
0.01641
0.0174851
0.0169072
0.0168194
0.0172952
0.0113224
0.015618
0.0168353
0.0149641
0.0156868
0.0184043
0.0174236
0.018339
0.0106293
0.0176383
0.0180893
0.0170581
0.0171404
0.00681811
0.0057305
0.00582376
0.00409423
0.00619766
0.00630696
0.00565188
0.00553225
0.0159072
0.0179163
0.0103743
0.0112807
0.0151886
0.0168504
0.0110842
0.0104612
0.0170713
0.0114237
0.017244
0.018637
0.0159678
0.0154219
0.0172988
0.0162364
0.0171899
0.0104993
0.0113146
0.0102973
0.0105902
0.0104964
0.0104881
0.0105007
0.0178343
0.0103052
0.0113615
0.0160635
0.0170853
0.0109158
0.0156075
0.0119211
0.0155482
0.0164036
0.0172229
0.00959102
0.0134572
0.0173379
0.012827
0.0163398
0.0171095
0.0184893
0.0194062
0.00919332
0.0163411
0.0192521
0.016112
0.0184321
0.0173713
0.0197892
0.0197179
0.00944752
0.0172515
0.0202951
0.0163693
0.0190111
0.00535814
0.00520512
0.00585218
0.00410654
0.00478786
0.0056058
0.00483955
0.00556135
0.0145245
0.0140344
0.00932651
0.00932644
0.0147326
0.0140764
0.00967824
0.00969596
0.0176418
0.0096582
0.0201531
0.0180598
0.0173634
0.0174052
0.017979
0.0176773
0.0137702
0.00921432
0.00941155
0.00897481
0.00944789
0.009443
0.00916668
0.00926392
0.0171021
0.00946793
0.00953058
0.0191023
0.0167045
0.0096969
0.0168916
0.00966869
0.017716
0.0201631
0.0183375
0.0112786
0.0151196
0.0192185
0.0151162
0.0186627
0.0242769
0.0269155
0.0250137
0.0192562
0.0303051
0.0262755
0.029436
0.0246636
0.0193444
0.0231901
0.0210283
0.0134241
0.0190592
0.0221111
0.0183428
0.0208737
0.00488379
0.00608436
0.00460958
0.0040657
0.00453027
0.00546299
0.00433078
0.00462303
0.023521
0.0175353
0.0130316
0.0212956
0.0233364
0.0225837
0.0173101
0.016301
0.0236002
0.0191181
0.0241582
0.0203327
0.0223862
0.0305432
0.021066
0.0251472
0.0168346
0.0107521
0.0207861
0.0091892
0.0132362
0.0149117
0.011809
0.0180297
0.0194952
0.0135157
0.0174067
0.0226076
0.0251276
0.0167364
0.0244307
0.0175957
0.00811684
0.00691741
0.00735846
0.00646689
0.0078634
0.00722275
0.00795144
0.00717904
0.00539209
0.00444162
0.00439481
0.00443853
0.00465229
0.00447616
0.00460439
0.00439757
0.0048701
0.00431046
0.0040742
0.00414886
0.00465778
0.0043172
0.00465255
0.00420745
0.00442707
0.00424977
0.00407357
0.00408511
0.00432405
0.00423714
0.00428501
0.00415122
0.00610329
0.00685149
0.00590983
0.00459421
0.00607108
0.00636878
0.00520478
0.00530441
0.00554587
0.00447092
0.00442469
0.005529
0.00538094
0.00463908
0.00535544
0.0046413
0.00688358
0.00592627
0.00454237
0.00469979
0.00500015
0.00512365
0.00471618
0.00460457
0.00522295
0.00428898
0.00439997
0.00434329
0.00462732
0.00440939
0.00459097
0.00438821
0.0148146
0.0163277
0.0157053
0.00981851
0.0137618
0.0156842
0.0136729
0.0153385
0.0181028
0.0199486
0.0195801
0.0106346
0.017176
0.0192267
0.0169894
0.0187944
0.0167965
0.0193319
0.0191092
0.0086877
0.015214
0.0187797
0.0153075
0.0186409
0.00456159
0.00473951
0.00431318
0.00405126
0.00435349
0.00457659
0.00423251
0.00437021
0.0159239
0.0146108
0.00950096
0.00941641
0.0158675
0.0160862
0.00993733
0.00953047
0.0174475
0.0101585
0.0190418
0.0166388
0.0168739
0.0171343
0.0172526
0.0164416
0.0143865
0.00765755
0.00893907
0.00643274
0.00885862
0.0089149
0.00733217
0.00849051
0.016208
0.00861069
0.00979405
0.0187678
0.0164486
0.00933249
0.016523
0.00999115
0.00377102
0.00381494
0.00377754
0.00381219
0.00380512
0.00380285
0.00379789
0.00379925
0.00388125
0.00398005
0.00390349
0.00396372
0.00396284
0.00395239
0.00394496
0.00393434
0.00378074
0.00383662
0.00378231
0.00382923
0.00382358
0.0038171
0.00381181
0.00380489
0.00387321
0.00394459
0.00388211
0.00394576
0.00393001
0.00391801
0.00391707
0.00390797
0.00386747
0.00381778
0.00385881
0.00393948
0.00385665
0.00382718
0.00387452
0.00385188
0.00386132
0.00393039
0.00387889
0.00381258
0.00385334
0.00390244
0.00382829
0.00388636
0.0038093
0.00385388
0.0039246
0.00386076
0.00382578
0.00384918
0.00387265
0.00388731
0.00380366
0.00385293
0.00391446
0.00386277
0.00383402
0.00386231
0.00387065
0.00388772
0.00484377
0.00447375
0.00601219
0.00470617
0.00482896
0.00474931
0.00489758