/*--------------------------------*- C++ -*----------------------------------*\
| =========                 |                                                 |
| \\      /  F ield         | OpenFOAM: The Open Source CFD Toolbox           |
|  \\    /   O peration     | Version:  2412                                  |
|   \\  /    A nd           | Website:  www.openfoam.com                      |
|    \\/     M anipulation  |                                                 |
\*---------------------------------------------------------------------------*/
FoamFile
{
    version     2.0;
    format      ascii;
    arch        "LSB;label=32;scalar=64";
    class       volScalarField;
    location    "1000";
    object      nut;
}
// * * * * * * * * * * * * * * * * * * * * * * * * * * * * * * * * * * * * * //

dimensions      [0 2 -1 0 0 0 0];

internalField   nonuniform List<scalar> 
43136
(
2.73064e-05
2.84298e-05
2.83579e-05
5.86401e-05
3.65915e-05
3.026e-05
4.67359e-05
4.13625e-05
3.20331e-05
2.75768e-05
3.3822e-05
7.80915e-05
3.62773e-05
3.46473e-05
4.43733e-05
5.06238e-05
4.13461e-05
3.06874e-05
6.22514e-05
5.79497e-05
5.03519e-05
4.34336e-05
5.52496e-05
5.74158e-05
8.38527e-05
0.000119035
6.46459e-05
9.38063e-05
7.01204e-05
7.77942e-05
6.88012e-05
7.68605e-05
5.16789e-05
5.20443e-05
4.86346e-05
5.94733e-05
4.64034e-05
7.55054e-05
6.07908e-05
5.19212e-05
3.25775e-05
5.06617e-05
3.99634e-05
3.53006e-05
5.92985e-05
6.63934e-05
3.36784e-05
7.44611e-05
5.51179e-05
5.91764e-05
6.4305e-05
6.43126e-05
6.71899e-05
5.9015e-05
6.97027e-05
9.67451e-05
4.83155e-05
6.75273e-05
6.7239e-05
7.27509e-05
7.05146e-05
6.78401e-05
5.55708e-05
4.83035e-05
8.18227e-05
5.03036e-05
8.6153e-05
7.93931e-05
0.000111811
8.2309e-05
8.58859e-05
0.000127627
3.65138e-05
2.83772e-05
4.0406e-05
4.32227e-05
3.16868e-05
2.38581e-05
2.48014e-05
3.2983e-05
6.3472e-05
4.58897e-05
4.72107e-05
5.98731e-05
3.79406e-05
3.35874e-05
3.67469e-05
3.70773e-05
7.53538e-05
5.82162e-05
6.82519e-05
6.73323e-05
7.4461e-05
5.05325e-05
5.98152e-05
7.88568e-05
5.5699e-05
7.3351e-05
8.9346e-05
5.3206e-05
3.84096e-05
7.4745e-05
5.68912e-05
4.98664e-05
4.39279e-05
3.47736e-05
3.35073e-05
5.72415e-05
5.79015e-05
4.89988e-05
5.87672e-05
4.33988e-05
6.2206e-05
6.98735e-05
3.88613e-05
4.99013e-05
7.54301e-05
8.43567e-05
6.7611e-05
7.00451e-05
6.37122e-05
6.25843e-05
5.52977e-05
4.11127e-05
6.63872e-05
4.17678e-05
3.10014e-05
5.19641e-05
8.94097e-05
6.70863e-05
6.21226e-05
7.29831e-05
6.15036e-05
5.80458e-05
4.77028e-05
5.12743e-05
6.6261e-05
5.86292e-05
5.45496e-05
7.36727e-05
5.90816e-05
4.54055e-05
6.50062e-05
4.37986e-05
5.63798e-05
5.49231e-05
4.62226e-05
6.40745e-05
4.59336e-05
3.62587e-05
3.99998e-05
4.50656e-05
8.67879e-05
9.64373e-05
7.9278e-05
9.16928e-05
8.60363e-05
7.10725e-05
5.65232e-05
7.39135e-05
6.48772e-05
5.45564e-05
7.44286e-05
5.57541e-05
7.32198e-05
7.38496e-05
8.00141e-05
8.16942e-05
5.82799e-05
7.63197e-05
3.63924e-05
5.17247e-05
5.25675e-05
9.90265e-05
5.60503e-05
4.67618e-05
5.58751e-05
4.74964e-05
4.40217e-05
5.17706e-05
6.8528e-05
8.40341e-05
6.67694e-05
7.27421e-05
4.74646e-05
6.89506e-05
5.83864e-05
5.09873e-05
7.36971e-05
6.12322e-05
5.15695e-05
8.35808e-05
2.09408e-06
2.0436e-06
3.24243e-06
8.5575e-06
7.01084e-06
4.27451e-06
7.0187e-06
7.9263e-06
1.88819e-06
1.57631e-06
2.31964e-06
8.36058e-06
7.5241e-06
4.78509e-06
7.57893e-06
7.84098e-06
3.2677e-06
2.54217e-06
3.22577e-06
9.11875e-06
8.53855e-06
4.76817e-06
8.52343e-06
8.5201e-06
6.06359e-06
4.98345e-06
1.41161e-05
1.56133e-05
3.25855e-06
6.95444e-06
6.68319e-06
7.96562e-06
7.57098e-06
8.283e-06
9.15421e-06
8.97973e-06
7.59046e-06
7.92102e-06
8.76778e-06
8.85242e-06
4.95108e-06
8.74826e-06
4.68349e-06
4.60553e-06
8.05785e-06
8.10929e-06
2.83698e-06
8.28521e-06
8.30257e-06
9.25617e-06
9.02244e-06
9.13219e-06
9.00591e-06
9.00899e-06
9.05468e-06
9.03794e-06
8.53244e-06
9.13083e-06
8.85224e-06
8.37426e-06
8.48505e-06
8.99696e-06
8.28209e-06
8.84264e-06
1.56509e-06
1.54377e-06
2.89211e-06
9.22544e-06
4.18541e-06
4.44529e-06
7.59675e-06
6.67055e-06
1.77538e-06
1.85349e-06
1.73122e-06
1.10457e-05
8.24064e-06
4.57967e-06
8.246e-06
8.37961e-06
3.37062e-06
1.81907e-06
2.44801e-06
1.21347e-05
9.40554e-06
4.47039e-06
9.42631e-06
9.62356e-06
9.92606e-06
6.59558e-06
6.34079e-06
1.01087e-05
4.33598e-06
7.47797e-06
1.14383e-05
6.2014e-06
7.79425e-06
3.83331e-06
1.04716e-05
1.13165e-05
7.95808e-06
8.40759e-06
6.41602e-06
1.0632e-05
5.47763e-06
1.10757e-05
4.36312e-06
3.07559e-06
7.08316e-06
8.19111e-06
2.40191e-06
8.3534e-06
8.51215e-06
1.06185e-05
1.16097e-05
1.1972e-05
1.06532e-05
1.07614e-05
1.17859e-05
1.16819e-05
5.049e-06
1.20962e-05
1.13456e-05
8.44745e-06
8.9041e-06
1.19194e-05
8.39384e-06
1.14031e-05
7.4358e-05
4.1661e-05
5.98591e-05
6.73684e-05
4.35489e-05
5.82068e-05
4.45541e-05
5.96155e-05
4.06025e-05
2.37818e-05
2.86321e-05
4.63407e-05
6.08408e-05
3.43616e-05
4.0835e-05
4.18653e-05
5.26124e-05
3.22606e-05
3.55837e-05
6.24494e-05
4.32319e-05
4.10463e-05
4.7153e-05
3.98974e-05
7.05278e-05
6.98314e-05
7.0812e-05
7.0585e-05
8.07138e-05
5.60686e-05
7.81328e-05
7.73781e-05
7.32379e-05
4.93385e-05
6.06855e-05
6.0089e-05
4.69426e-05
7.22524e-05
4.91583e-05
6.11123e-05
4.47959e-05
4.38485e-05
3.61902e-05
5.17823e-05
6.09185e-05
6.85132e-05
3.69393e-05
4.705e-05
4.80929e-05
6.28513e-05
4.31093e-05
6.47012e-05
7.14134e-05
7.49373e-05
7.04368e-05
8.41993e-05
5.89271e-05
7.10963e-05
6.22636e-05
4.39827e-05
6.09971e-05
5.45176e-05
4.21371e-05
6.84676e-05
0.000183997
9.69803e-05
0.000139702
0.000159687
0.000165179
0.000121362
0.000140824
0.000131664
6.81855e-05
5.80606e-05
4.45534e-05
7.12809e-05
4.85774e-05
4.78291e-05
4.08288e-05
4.56038e-05
8.09586e-05
6.07394e-05
3.92195e-05
6.11147e-05
5.10811e-05
5.18239e-05
5.16718e-05
5.34661e-05
0.00013068
9.16602e-05
8.56878e-05
0.000124494
0.000106308
8.44336e-05
9.93718e-05
0.00011896
7.62441e-05
8.35954e-05
0.000121047
8.21428e-05
6.26419e-05
0.000115993
0.00010615
8.50003e-05
6.50733e-05
5.88034e-05
4.4793e-05
7.47497e-05
6.85358e-05
7.58497e-05
8.30526e-05
5.09972e-05
8.79754e-05
0.000107812
5.92433e-05
8.17442e-05
0.000122383
0.000110888
8.88248e-05
0.000107627
6.98425e-05
9.06611e-05
9.00876e-05
6.16953e-05
7.72622e-05
7.43076e-05
4.63667e-05
6.79494e-05
6.29887e-05
5.65927e-05
5.78465e-05
7.43911e-05
7.23231e-05
7.01618e-05
7.03572e-05
6.14999e-05
3.20396e-05
1.84893e-05
2.94452e-05
6.02864e-05
3.29295e-05
3.34022e-05
2.89506e-05
3.81767e-05
4.09967e-05
3.23755e-05
5.06053e-05
5.70357e-05
3.88909e-05
3.80315e-05
4.41075e-05
6.24856e-05
6.61328e-05
8.09628e-05
7.26298e-05
7.82923e-05
7.68648e-05
6.58892e-05
6.51708e-05
8.41467e-05
3.85558e-05
4.47553e-05
7.61937e-05
5.49801e-05
3.62957e-05
7.48414e-05
6.0152e-05
6.61689e-05
4.11093e-05
4.44093e-05
3.7547e-05
4.94216e-05
4.01213e-05
6.26024e-05
4.6765e-05
3.93661e-05
5.43115e-05
7.01635e-05
4.6897e-05
5.91612e-05
7.22717e-05
7.16187e-05
6.34987e-05
7.20368e-05
4.92717e-05
8.54262e-05
5.89984e-05
4.87172e-05
5.4547e-05
5.68765e-05
3.8397e-05
6.23793e-05
4.31784e-06
4.80946e-06
2.38544e-06
1.2995e-05
1.11737e-05
3.62507e-06
1.11908e-05
1.19619e-05
4.54751e-06
1.76429e-06
3.43347e-06
1.0257e-05
5.96765e-06
2.34538e-06
1.05175e-05
1.0149e-05
2.50765e-06
3.62209e-06
2.73872e-06
1.15269e-05
9.32624e-06
3.6616e-06
1.20239e-05
1.22421e-05
7.13517e-06
1.7022e-05
1.39667e-05
9.76163e-06
1.03881e-05
1.8283e-05
2.558e-05
2.53861e-05
1.12545e-05
1.17623e-05
1.2863e-05
1.2319e-05
1.1616e-05
1.16421e-05
1.21986e-05
1.22826e-05
3.76886e-06
1.0649e-05
3.24001e-06
4.90315e-06
1.17984e-05
1.12595e-05
3.30158e-06
1.01249e-05
1.19682e-05
1.29341e-05
1.23848e-05
1.25229e-05
1.24946e-05
1.23802e-05
1.25004e-05
1.24344e-05
1.20417e-05
1.13689e-05
1.08749e-05
1.16906e-05
1.181e-05
1.11493e-05
1.15237e-05
1.09683e-05
6.03055e-05
4.7176e-05
0.000104631
7.89187e-05
6.67027e-05
5.60479e-05
8.17463e-05
9.33163e-05
3.89603e-05
2.86367e-05
7.76051e-05
7.0581e-05
4.89334e-05
3.80135e-05
4.46097e-05
6.22562e-05
0.000155787
0.000127589
0.000215992
9.80158e-05
0.000118047
0.000124171
0.000141387
0.000144964
4.39313e-05
6.35622e-05
5.71868e-05
3.56674e-05
3.54285e-05
3.19305e-05
5.39878e-05
3.37695e-05
5.71118e-05
9.53722e-05
4.89827e-05
4.3124e-05
5.41073e-05
7.13562e-05
9.80454e-05
3.91886e-05
4.52676e-05
3.22377e-05
7.46552e-05
8.81988e-05
6.74007e-05
4.49587e-05
8.28592e-05
8.12893e-05
0.000112959
6.38266e-05
3.78039e-05
7.3726e-05
8.24386e-05
5.53855e-05
6.16685e-05
3.81985e-05
0.000108388
6.49821e-05
4.4468e-05
8.75055e-05
0.000106882
5.44797e-05
7.59664e-05
0.000107756
7.18402e-05
8.53759e-05
6.06039e-05
6.23279e-05
9.29777e-05
8.48722e-05
0.000100453
9.71646e-05
0.000107293
7.91437e-05
4.4372e-05
8.52222e-05
0.000149343
0.000114805
0.000104567
9.83191e-05
4.4316e-05
2.58425e-05
2.8053e-05
4.35228e-05
3.2186e-05
3.19993e-05
3.28625e-05
3.00667e-05
5.59655e-05
7.7926e-05
4.88374e-05
5.79024e-05
7.23394e-05
8.96781e-05
9.40425e-05
7.16134e-05
0.000156646
4.77189e-05
7.77508e-05
0.000114004
0.000102971
8.41674e-05
9.11377e-05
8.87029e-05
0.000118129
9.24539e-05
5.79551e-05
4.65005e-05
0.000101654
9.71083e-05
5.05707e-05
6.46961e-05
4.96879e-05
0.000100683
0.000103003
6.19828e-05
4.62482e-05
6.82113e-05
4.56228e-05
8.77648e-05
5.08461e-05
4.53248e-05
9.18971e-05
5.99159e-05
4.94605e-05
5.34577e-05
5.58078e-05
4.41259e-05
4.21448e-05
2.36741e-05
4.59777e-05
2.86408e-05
3.85983e-05
3.45984e-05
3.48995e-05
5.10939e-05
2.09108e-05
2.31499e-05
3.97519e-05
2.9216e-05
3.05266e-05
3.32692e-05
3.52209e-05
4.10062e-05
5.88875e-05
6.15585e-05
6.49234e-05
4.20372e-05
5.8467e-05
7.73513e-05
7.30257e-05
7.84904e-05
2.78021e-05
2.38843e-05
2.49242e-05
1.47497e-05
2.15608e-05
2.52236e-05
2.77936e-05
3.26051e-05
2.84103e-05
3.91892e-05
2.60563e-05
2.97034e-05
3.39401e-05
4.18834e-05
2.13041e-05
3.22829e-05
3.71415e-05
3.65427e-05
5.58351e-05
6.95903e-05
4.25987e-05
4.01287e-05
4.10223e-05
3.75625e-05
5.06633e-05
2.91942e-05
2.95959e-05
4.4047e-05
3.61202e-05
4.78773e-05
3.36304e-05
2.73657e-05
7.01581e-05
4.66639e-05
4.71594e-05
6.40771e-05
4.84159e-05
4.87702e-05
5.26251e-05
3.58143e-05
4.4753e-05
5.44867e-05
4.79264e-05
3.19917e-05
3.73215e-05
4.85767e-05
3.02223e-05
3.82212e-05
6.45685e-05
6.50737e-05
6.95633e-05
5.55546e-05
5.65836e-05
6.02855e-05
6.77861e-05
7.1443e-05
6.10055e-05
8.32344e-05
6.7878e-05
4.0927e-05
5.76054e-05
8.64776e-05
4.47048e-05
0.000103645
1.84718e-05
3.27892e-05
2.74798e-05
1.71697e-05
1.85863e-05
2.8416e-05
1.86639e-05
3.33156e-05
4.42774e-05
4.79853e-05
2.81137e-05
3.55346e-05
5.54727e-05
4.35703e-05
6.19958e-05
2.46534e-05
5.27052e-05
2.94388e-05
8.8336e-05
6.93017e-05
4.80033e-05
5.57604e-05
5.96186e-05
6.36472e-05
6.19604e-05
3.01992e-05
3.99795e-05
2.09468e-05
3.22002e-05
3.08783e-05
3.75722e-05
3.57261e-05
5.51851e-05
6.25724e-05
4.11135e-05
8.4738e-05
6.31476e-05
5.30095e-05
8.24779e-05
4.40651e-05
1.63175e-05
3.63508e-05
4.06866e-05
1.6945e-05
1.78808e-05
2.53634e-05
2.2939e-05
2.51822e-05
4.34494e-05
8.25319e-05
7.8902e-05
6.02361e-05
4.46169e-05
5.04879e-05
5.24559e-05
5.72607e-05
5.90664e-05
8.52602e-05
7.57442e-05
5.00909e-05
5.79441e-05
6.57976e-05
7.01209e-05
7.54296e-05
2.25997e-05
4.29686e-05
3.3622e-05
2.95526e-05
3.84685e-05
2.91806e-05
2.99744e-05
3.55623e-05
3.10808e-05
2.85793e-05
3.71432e-05
3.80038e-05
3.64698e-05
4.39783e-05
2.78422e-05
2.91975e-05
3.66347e-05
4.03338e-05
6.19911e-05
4.0765e-05
3.87536e-05
6.09564e-05
6.95838e-05
4.54112e-05
3.44754e-05
3.15397e-05
4.47376e-05
4.54713e-05
3.82291e-05
3.46433e-05
3.54464e-05
4.75317e-05
5.2542e-05
4.71169e-05
4.77143e-05
7.04561e-05
5.85903e-05
4.74151e-05
6.47161e-05
5.54546e-05
7.16949e-05
5.90916e-05
5.32531e-05
5.64066e-05
4.2597e-05
5.60547e-05
5.07844e-05
2.93706e-05
7.21367e-05
6.13168e-05
3.47646e-05
4.36594e-05
3.16305e-05
3.28184e-05
4.32525e-05
2.80458e-05
4.82362e-05
4.31915e-05
5.3296e-05
6.15032e-05
2.03895e-05
2.61891e-05
2.73601e-05
2.02264e-05
6.17162e-05
5.96536e-05
5.993e-05
7.54381e-05
5.91699e-05
5.80653e-05
5.75546e-05
5.17543e-05
4.40309e-05
3.16061e-05
4.85805e-05
4.51465e-05
5.49054e-05
4.25179e-05
4.86076e-05
7.6987e-05
5.53034e-05
4.99422e-05
2.43337e-05
4.65321e-05
2.42379e-05
3.07929e-05
4.20022e-05
2.0637e-05
4.22799e-05
6.40511e-05
4.79446e-05
4.08643e-05
5.30769e-05
3.51044e-05
3.52722e-05
4.59228e-05
2.25161e-05
3.47131e-05
3.89134e-05
2.18056e-05
3.28748e-05
4.60016e-05
3.3459e-05
5.53211e-05
3.61939e-05
2.22967e-05
3.31711e-05
6.21003e-05
3.57343e-05
2.43926e-05
4.25727e-05
3.01144e-05
2.12633e-05
1.81192e-05
2.0357e-05
0.000100335
2.07733e-05
1.5122e-05
2.86274e-05
1.65359e-05
3.38721e-05
2.19311e-05
2.12269e-05
5.94409e-05
2.29242e-05
1.6507e-05
3.37294e-05
2.11983e-05
8.26541e-05
0.000120345
9.33962e-05
0.000134831
5.74534e-05
5.46191e-05
5.96483e-05
4.96016e-05
2.70289e-05
2.65318e-05
4.5841e-05
3.92927e-05
3.49774e-05
7.26968e-05
6.55867e-05
5.33616e-05
2.00252e-05
4.02643e-05
1.67928e-05
2.01356e-05
2.23667e-05
6.21857e-05
3.7454e-05
2.22794e-05
3.8945e-05
4.92011e-05
4.20917e-05
5.43643e-05
8.75993e-05
4.69937e-05
4.6173e-05
9.18026e-05
2.14484e-05
3.59645e-05
3.4388e-05
1.84087e-05
6.131e-05
4.21001e-05
3.28374e-05
7.68492e-05
5.09963e-05
6.95144e-05
5.32115e-05
4.55757e-05
3.49303e-05
4.29334e-05
6.83411e-05
3.74967e-05
6.87142e-05
9.05003e-05
5.653e-05
8.00036e-05
6.96352e-05
6.52966e-05
6.29651e-05
5.28739e-05
4.19158e-05
5.76184e-05
2.34984e-05
3.42968e-05
1.98321e-05
2.58143e-05
3.25502e-05
1.79694e-05
4.75807e-05
7.57263e-05
3.3738e-05
3.48144e-05
2.67486e-05
3.61972e-05
4.75735e-05
2.45992e-05
5.22726e-05
2.67558e-05
3.0674e-05
4.93674e-05
5.43805e-05
4.75546e-05
7.53923e-05
3.76451e-05
4.74563e-05
5.20084e-05
5.05908e-05
3.76797e-05
4.35304e-05
5.99723e-05
7.26191e-05
3.80256e-05
5.93112e-05
5.19037e-05
5.78129e-05
2.84703e-05
4.69969e-05
2.94905e-05
1.91261e-05
4.15495e-05
3.06615e-05
2.08994e-05
3.63216e-05
3.69533e-05
3.9872e-05
2.39157e-05
4.93833e-05
5.7681e-05
4.16062e-06
6.55515e-06
7.52503e-06
8.33433e-06
6.34782e-06
6.58262e-06
9.91863e-06
9.62608e-06
6.8584e-06
7.12128e-06
1.43775e-05
1.42094e-05
6.96728e-06
7.09027e-06
1.00199e-05
1.01068e-05
1.26627e-05
2.84645e-05
2.50897e-05
2.88239e-05
1.26775e-05
1.82024e-05
1.37731e-05
1.44983e-05
9.22987e-06
1.50553e-05
2.93558e-05
2.18577e-05
1.34346e-05
1.26535e-05
1.11011e-05
1.04488e-05
6.6589e-06
1.26589e-05
1.0378e-05
1.40455e-05
9.81673e-06
9.70902e-06
8.83092e-06
1.16154e-05
6.77059e-06
1.42121e-05
1.45677e-05
1.50697e-05
9.81718e-06
9.89882e-06
7.88087e-06
1.4402e-05
7.80752e-06
4.89153e-06
8.99679e-06
9.95766e-06
1.78621e-05
4.98291e-06
8.25505e-06
1.6436e-05
7.15231e-06
1.00405e-05
9.16284e-06
9.42906e-06
1.31689e-05
1.15885e-05
1.26229e-05
1.70797e-05
5.14306e-06
5.52236e-06
8.6164e-06
1.12065e-05
5.27385e-06
5.39318e-06
7.38783e-06
6.97483e-06
5.86596e-06
6.15059e-06
8.30532e-06
1.1108e-05
5.93026e-06
6.00106e-06
6.68727e-06
6.61646e-06
1.06507e-05
1.15855e-05
2.65413e-05
2.02894e-05
1.93249e-05
1.41743e-05
9.81466e-06
9.32482e-06
1.17432e-05
8.76562e-06
2.02927e-05
1.63718e-05
1.45834e-05
1.41166e-05
1.23009e-05
1.23397e-05
5.63172e-06
8.66051e-06
1.1277e-05
1.10914e-05
6.84192e-06
7.04892e-06
1.11811e-05
1.13699e-05
5.73378e-06
1.11667e-05
8.42249e-06
8.69599e-06
6.69766e-06
6.76165e-06
8.48602e-06
8.35365e-06
8.53338e-06
8.58697e-06
1.55577e-05
1.66988e-05
2.61729e-05
8.85546e-06
1.95937e-05
2.17843e-05
1.08486e-05
2.11427e-05
1.72075e-05
1.41399e-05
1.47977e-05
1.29454e-05
1.48965e-05
7.91689e-06
6.54121e-06
4.00605e-06
7.95062e-06
1.36242e-05
7.40787e-06
7.65408e-06
7.7649e-06
7.72847e-06
7.25713e-06
2.78861e-05
1.25248e-05
1.96761e-05
1.7656e-05
1.53396e-05
1.27939e-05
4.87222e-05
8.21322e-06
9.85986e-06
8.38706e-06
1.56211e-05
8.09363e-06
8.18258e-06
8.21455e-06
8.17929e-06
1.7145e-05
1.64725e-05
1.17537e-05
1.32347e-05
1.14588e-05
1.60912e-05
1.58792e-05
2.05004e-05
5.55757e-06
7.83343e-06
1.1802e-05
1.20128e-05
8.18048e-06
7.73287e-06
4.42484e-06
1.1217e-05
6.58117e-06
1.20801e-05
1.09816e-05
7.96179e-06
1.47767e-05
1.78391e-05
8.55249e-06
1.61363e-05
8.05369e-06
1.631e-05
1.4736e-05
1.61556e-05
1.29174e-05
1.41674e-05
1.62339e-05
1.6838e-05
7.98938e-06
1.63946e-05
2.87356e-05
1.58001e-05
7.99795e-06
1.59225e-05
1.35658e-05
9.33883e-06
5.17385e-05
2.25219e-05
4.58781e-05
3.04269e-05
5.24091e-05
4.04299e-05
4.04953e-05
5.10366e-05
1.98736e-05
2.44667e-05
4.61633e-05
3.86312e-05
3.22247e-05
4.58997e-05
5.06184e-05
4.9057e-05
8.66029e-05
8.0608e-05
0.000134844
7.01768e-05
8.80664e-05
0.000118809
9.62992e-05
0.000138891
2.01219e-05
3.52033e-05
4.06518e-05
2.04813e-05
3.19341e-05
4.23888e-05
4.096e-05
4.97632e-05
3.73091e-05
4.95038e-05
3.62777e-05
3.53782e-05
5.07618e-05
5.15815e-05
2.09717e-05
4.49548e-05
4.92415e-05
5.86647e-05
6.70125e-05
0.000111221
4.44161e-05
4.66592e-05
4.45436e-05
4.57823e-05
9.24907e-05
4.33723e-05
4.90721e-05
5.60275e-05
4.74466e-05
4.70183e-05
4.53989e-05
4.67226e-05
9.2809e-05
7.88599e-05
4.6279e-05
8.26352e-05
6.98577e-05
6.7589e-05
7.3325e-05
4.72652e-05
1.01822e-05
2.91189e-05
1.85945e-05
1.66456e-05
1.71335e-05
2.52771e-05
1.00622e-05
1.82618e-05
2.33596e-05
2.95144e-05
1.99428e-05
2.18522e-05
2.72078e-05
8.74289e-06
1.68554e-05
9.65602e-06
9.42697e-06
8.35232e-06
6.13033e-06
1.12447e-05
9.31501e-06
6.95584e-06
1.00096e-05
6.68696e-06
2.01943e-05
2.14344e-05
9.65261e-06
2.19096e-05
2.04323e-05
2.12274e-05
1.42853e-05
9.94378e-06
3.05468e-05
2.23684e-05
1.72501e-05
2.53263e-05
2.20829e-05
1.45254e-05
2.25919e-05
2.14406e-05
1.64927e-05
2.19504e-05
1.5819e-05
1.92633e-05
1.58406e-05
1.27326e-05
2.00422e-05
1.97131e-05
2.28228e-05
1.23206e-05
2.05606e-05
1.12182e-05
1.14147e-05
1.39323e-05
1.80602e-05
1.51927e-05
1.85603e-05
1.79636e-05
1.63777e-05
1.39864e-05
1.86071e-05
1.92379e-05
1.35507e-05
1.38441e-05
1.87168e-05
4.06228e-05
3.8404e-05
2.15003e-05
2.24122e-05
3.25453e-05
2.82274e-05
3.22102e-05
5.73846e-05
8.57141e-05
8.77235e-05
8.11172e-05
5.75577e-05
7.86993e-05
6.54531e-05
9.19315e-05
6.32844e-05
8.83963e-05
7.89414e-05
5.08089e-05
6.65506e-05
7.8834e-05
6.42056e-05
0.000119122
2.41129e-05
5.14995e-05
3.68797e-05
3.88854e-05
2.6158e-05
4.77265e-05
3.55511e-05
3.23787e-05
4.2864e-05
3.5867e-05
2.98517e-05
3.75427e-05
3.85352e-05
3.99459e-05
3.21633e-05
3.79087e-05
5.05457e-05
6.28989e-05
7.86078e-05
4.69251e-05
5.60637e-05
7.47561e-05
5.67122e-05
5.70559e-05
3.37121e-05
3.69856e-05
5.89624e-05
4.17187e-05
2.52417e-05
3.358e-05
3.34383e-05
4.72318e-05
5.96124e-05
5.79449e-05
6.01906e-05
0.000106827
7.27725e-05
5.55375e-05
6.36168e-05
7.6062e-05
8.60742e-05
0.00010481
5.97866e-05
7.28179e-05
0.000103104
9.08164e-05
8.70624e-05
9.55878e-05
0.00010084
0.000105426
9.31971e-05
8.52981e-05
7.10911e-05
6.26391e-05
5.68945e-05
6.12616e-05
5.40294e-05
8.36353e-05
4.31237e-05
6.45817e-05
3.03107e-05
3.30727e-05
3.09971e-05
2.86791e-05
5.62712e-05
7.82144e-05
5.82554e-05
6.11453e-05
3.30841e-05
3.21567e-05
3.16625e-05
3.33838e-05
7.60574e-05
5.31356e-05
5.59268e-05
5.67054e-05
6.39284e-05
7.08708e-05
7.91371e-05
6.0933e-05
8.01298e-05
4.88673e-05
4.64727e-05
5.35708e-05
7.39128e-05
8.04357e-05
8.2335e-05
5.68224e-05
4.81291e-05
5.30257e-05
4.52657e-05
3.72329e-05
5.44994e-05
5.10854e-05
3.89089e-05
5.98011e-05
4.8949e-05
3.43564e-05
4.80826e-05
4.60126e-05
5.72317e-05
3.61065e-05
4.42033e-05
7.15459e-05
2.83034e-06
3.22682e-06
4.72027e-06
6.8655e-06
3.03109e-06
3.29981e-06
5.31985e-06
5.00608e-06
4.29856e-06
8.97546e-06
1.9902e-05
5.91442e-06
4.42443e-06
1.1688e-05
5.29937e-06
1.53299e-05
6.10571e-06
1.44702e-05
1.03921e-05
8.49575e-06
6.40792e-06
1.07818e-05
7.81746e-06
9.63627e-06
8.70558e-06
1.2764e-05
1.61889e-05
8.02793e-06
9.61875e-06
9.13342e-06
1.95942e-05
9.76615e-06
3.42697e-06
4.99812e-06
7.47343e-06
6.64242e-06
5.08141e-06
5.04732e-06
6.10962e-06
6.60486e-06
3.93434e-06
6.2031e-06
1.51931e-05
5.23904e-06
5.07064e-06
5.20409e-06
5.05669e-06
5.36833e-06
7.11638e-06
6.42756e-06
1.03671e-05
1.33756e-05
8.71769e-06
9.9486e-06
9.36252e-06
9.96059e-06
6.43828e-06
9.81402e-06
8.46031e-06
1.19165e-05
6.48171e-06
8.05544e-06
6.66521e-06
7.67056e-06
1.10378e-05
1.48143e-05
1.52405e-05
8.73907e-06
1.1925e-05
1.49791e-05
1.30033e-05
1.49509e-05
1.91787e-05
1.07227e-05
1.22531e-05
5.83663e-06
1.49995e-05
1.23309e-05
1.36565e-05
1.23153e-05
1.34751e-05
1.0191e-05
7.3486e-06
6.27983e-06
1.11092e-05
1.01711e-05
1.0025e-05
8.79563e-06
1.62498e-05
1.21607e-05
1.1306e-05
5.41854e-06
1.64714e-05
1.22567e-05
1.65812e-05
1.35198e-05
1.49349e-05
1.52616e-05
9.00805e-06
7.38755e-06
1.53543e-05
1.49851e-05
7.66121e-06
7.72624e-06
1.93325e-05
5.86014e-06
1.23526e-05
1.60704e-05
1.71665e-05
1.31914e-05
1.59617e-05
1.29685e-05
1.45338e-05
8.866e-06
7.1606e-06
7.11763e-06
7.45023e-06
7.60887e-06
6.95972e-06
7.4572e-06
1.44076e-05
6.20955e-06
5.98539e-06
1.078e-05
1.13983e-05
6.02644e-06
1.18412e-05
6.00102e-06
2.96754e-06
3.32192e-06
4.77261e-06
1.00656e-05
3.65221e-06
3.52102e-06
4.58874e-06
5.57424e-06
4.75138e-06
6.18485e-06
1.54176e-05
2.23244e-05
4.99122e-06
6.57492e-06
6.18595e-06
1.18356e-05
6.51355e-06
1.56163e-05
9.86874e-06
0.000185043
1.04771e-05
1.38272e-05
1.83243e-05
1.88548e-05
3.01201e-06
4.97111e-05
6.55916e-05
2.92704e-06
7.18359e-06
2.97228e-05
3.74209e-06
6.16835e-05
3.62896e-06
5.17123e-06
1.13843e-05
2.07322e-05
5.63186e-06
5.48233e-06
8.13286e-06
8.93961e-06
4.584e-06
2.73801e-05
1.38419e-05
5.49472e-06
5.66719e-06
6.09354e-06
5.59537e-06
6.48838e-06
7.92793e-06
3.06152e-06
4.2506e-05
7.22382e-05
1.21592e-05
1.37492e-05
5.39041e-05
3.69592e-05
6.91127e-06
0.000201821
7.52761e-05
1.36766e-05
9.69709e-06
4.90463e-05
1.08307e-05
8.003e-05
7.15953e-06
1.58176e-05
4.12578e-05
0.000100553
1.70558e-05
1.76344e-05
9.30745e-05
7.08151e-05
1.59105e-05
9.22141e-06
5.03245e-05
9.55142e-05
1.45696e-05
1.48503e-05
4.42978e-05
3.36841e-05
7.67749e-05
9.41414e-05
7.36594e-05
0.00013803
9.81646e-05
9.63652e-05
8.89649e-05
9.21693e-05
9.60632e-05
6.63426e-05
6.50509e-05
5.6657e-06
7.50894e-05
7.81436e-05
6.10863e-05
6.80811e-05
1.67489e-05
8.92682e-05
0.000212175
0.000154782
8.70374e-05
0.000111405
0.000161919
0.000212279
1.71414e-05
0.000152773
7.53236e-05
8.70526e-05
6.40047e-05
7.596e-05
7.17975e-05
7.57545e-05
0.000100455
0.000216644
0.000173009
0.00015911
0.00019629
0.00021374
0.000196937
0.000202911
8.66719e-05
0.000171211
0.000166468
9.44685e-05
0.000116233
0.000193948
0.000106919
0.000176386
3.58515e-06
3.30831e-06
4.93503e-06
7.36377e-06
3.82108e-06
3.53223e-06
6.00772e-06
5.28309e-06
4.52696e-06
6.35125e-06
2.30246e-05
6.64244e-06
4.82352e-06
8.41073e-06
5.94369e-06
1.80858e-05
6.71297e-06
1.72303e-05
1.25497e-05
9.43189e-06
7.20051e-06
1.26787e-05
8.55175e-06
1.15648e-05
1.12044e-05
1.31621e-05
1.53245e-05
8.98044e-06
1.04737e-05
1.19126e-05
9.67158e-06
1.55818e-05
3.57668e-06
5.40729e-06
8.10068e-06
7.30757e-06
5.46769e-06
5.39476e-06
6.62022e-06
7.17098e-06
4.50338e-06
6.94623e-06
1.94192e-05
5.58924e-06
5.68589e-06
5.87136e-06
5.78992e-06
6.18079e-06
7.92834e-06
7.83406e-06
1.0963e-05
1.22617e-05
9.24109e-06
1.02988e-05
1.00876e-05
1.04805e-05
7.16573e-06
1.03883e-05
9.21639e-06
1.45198e-05
7.27533e-06
8.93266e-06
7.53354e-06
8.57044e-06
1.34649e-05
1.80245e-05
1.81364e-05
9.66305e-06
1.45374e-05
1.81616e-05
1.57502e-05
1.78861e-05
2.15908e-05
7.44279e-06
7.45358e-06
6.57623e-06
1.6555e-05
8.84079e-06
1.41176e-05
9.72288e-06
1.4552e-05
1.04995e-05
9.67306e-06
7.02398e-06
1.13579e-05
1.04654e-05
1.06044e-05
9.93105e-06
1.54733e-05
1.24928e-05
1.31509e-05
6.71386e-06
1.58136e-05
1.25968e-05
1.60976e-05
1.38291e-05
1.76016e-05
1.75716e-05
9.65968e-06
8.10898e-06
1.78395e-05
1.74184e-05
8.50274e-06
8.562e-06
2.27068e-05
6.59893e-06
6.64831e-06
1.82018e-05
1.94833e-05
1.37134e-05
1.75806e-05
1.3041e-05
1.66167e-05
9.5389e-06
7.86399e-06
7.67308e-06
8.22412e-06
8.39169e-06
7.66556e-06
8.17041e-06
1.58067e-05
6.84023e-06
6.70048e-06
1.04357e-05
1.15672e-05
6.74325e-06
1.18817e-05
6.72099e-06
3.48749e-06
5.25696e-06
3.75244e-06
6.68703e-06
4.32081e-06
4.02026e-06
4.35544e-06
4.12904e-06
6.57787e-06
1.12754e-05
1.42681e-05
8.31521e-06
7.4029e-06
1.13588e-05
7.46962e-06
1.06458e-05
4.37683e-06
1.60686e-05
7.01287e-06
5.97538e-06
4.86825e-06
9.51128e-06
4.86551e-06
8.37673e-06
1.33868e-05
1.30961e-05
1.03873e-05
1.60981e-05
1.41342e-05
1.17752e-05
1.76294e-05
1.27242e-05
6.19332e-06
4.22627e-06
8.8524e-06
9.90073e-06
6.26881e-06
4.74492e-06
8.11455e-06
6.64754e-06
5.83981e-06
8.1469e-06
1.51692e-05
4.65456e-06
5.9512e-06
6.52378e-06
5.61366e-06
6.21848e-06
4.24274e-06
9.01099e-06
1.02956e-05
6.99733e-06
5.80667e-06
7.06608e-06
6.8853e-06
8.09369e-06
4.63148e-06
6.59958e-06
8.51835e-06
1.33881e-05
5.20275e-06
6.45696e-06
6.20685e-06
7.57007e-06
8.27483e-06
9.29924e-06
1.01442e-05
7.30074e-06
9.08141e-06
9.28333e-06
8.56876e-06
8.60593e-06
8.91886e-06
8.06919e-06
1.38724e-05
6.22141e-06
8.24696e-06
7.42585e-06
8.34548e-06
8.65137e-06
1.40616e-05
1.44445e-05
1.17153e-05
8.30467e-06
1.41506e-05
1.46398e-05
1.26705e-05
1.20899e-05
1.25264e-05
1.08994e-05
1.27156e-05
1.07552e-05
1.27434e-05
1.1099e-05
1.29091e-05
1.21629e-05
9.00005e-06
1.06673e-05
7.15513e-06
6.64283e-06
8.45157e-06
8.34703e-06
6.75038e-06
6.76636e-06
9.11038e-06
6.23815e-06
1.52481e-05
1.20208e-05
8.51492e-06
8.23456e-06
1.16685e-05
1.28475e-05
1.19056e-05
7.27998e-06
6.75425e-06
7.87877e-06
7.04644e-06
6.89906e-06
7.08672e-06
6.96963e-06
1.30214e-05
8.01517e-06
6.47138e-06
1.40399e-05
1.35662e-05
7.20901e-06
1.36855e-05
7.1779e-06
9.86363e-06
1.4606e-05
8.48983e-06
2.02337e-05
9.86183e-06
9.57615e-06
1.01397e-05
9.17648e-06
1.61279e-05
2.1973e-05
1.14676e-05
1.59152e-05
3.90581e-05
1.84096e-05
1.75197e-05
2.24689e-05
7.23745e-06
1.1452e-05
6.69289e-06
1.52352e-05
7.07701e-06
6.88629e-06
7.19719e-06
6.59502e-06
2.32677e-05
1.67527e-05
1.55428e-05
2.19469e-05
4.0524e-05
1.97325e-05
1.96817e-05
2.53576e-05
1.45707e-05
8.40277e-06
2.03753e-05
4.22524e-05
1.47718e-05
9.69558e-06
1.86014e-05
1.93838e-05
1.43368e-05
1.90749e-05
1.22021e-05
8.11297e-06
1.35577e-05
1.44101e-05
1.24953e-05
1.24181e-05
8.62485e-06
2.12695e-05
1.8421e-05
1.74046e-05
1.67798e-05
1.86633e-05
1.68689e-05
2.01941e-05
7.7788e-06
1.56718e-05
1.84371e-05
1.16618e-05
8.13609e-06
1.61991e-05
1.25053e-05
1.32662e-05
5.98693e-05
6.91854e-05
4.1772e-05
5.29315e-05
3.52457e-05
3.85513e-05
3.73112e-05
3.48344e-05
5.54809e-05
4.88266e-05
2.98746e-05
1.56978e-05
2.00474e-05
2.19564e-05
2.44261e-05
1.93481e-05
4.39077e-05
3.12598e-05
3.54499e-05
1.79049e-05
2.79727e-05
3.06799e-05
3.49718e-05
2.66791e-05
5.01476e-05
4.92385e-05
1.99224e-05
1.70278e-05
2.67998e-05
2.85544e-05
3.3247e-05
3.09002e-05
3.55496e-05
3.39674e-05
3.06697e-05
4.25426e-05
3.79443e-05
6.26424e-05
6.56078e-05
3.2612e-05
3.16383e-05
3.62407e-05
2.39012e-05
3.74411e-05
3.65986e-05
9.11718e-05
4.90199e-05
2.28118e-05
4.32596e-05
3.63674e-05
4.25661e-05
4.19615e-05
3.172e-05
2.96735e-05
4.31103e-05
3.60921e-05
4.00427e-05
3.14225e-05
2.76293e-05
2.17498e-05
8.18794e-05
3.63228e-05
2.74293e-05
1.71806e-05
2.29275e-06
1.80063e-06
3.62856e-06
1.26152e-05
9.73334e-06
5.96538e-06
9.7361e-06
9.69589e-06
1.59172e-06
1.74865e-06
1.96609e-06
1.14964e-05
7.98944e-06
3.86845e-06
7.8209e-06
7.79978e-06
3.16453e-06
2.09463e-06
1.88526e-06
7.81222e-06
6.71191e-06
4.41365e-06
7.23147e-06
3.8294e-06
1.38366e-05
6.6859e-06
2.91652e-05
1.73341e-05
7.8881e-06
7.41235e-06
2.14124e-05
7.20841e-06
8.77675e-06
8.31482e-06
1.26126e-05
1.20587e-05
8.68962e-06
9.58079e-06
1.22954e-05
1.25023e-05
4.18814e-06
1.17666e-05
3.73515e-06
4.64612e-06
8.62456e-06
8.3451e-06
2.65885e-06
6.60284e-06
9.00742e-06
1.26322e-05
1.2019e-05
1.26355e-05
1.22276e-05
1.24696e-05
1.25209e-05
1.26676e-05
6.84803e-06
1.13234e-05
1.17143e-05
5.16276e-06
8.69331e-06
1.14424e-05
8.03212e-06
9.47759e-06
3.28743e-05
3.63843e-05
3.34991e-05
2.78605e-05
7.09459e-05
5.81215e-05
9.78478e-05
4.46724e-05
4.51532e-05
4.15601e-05
4.9461e-05
3.86484e-05
4.63465e-05
3.5701e-05
3.82476e-05
3.82619e-05
4.02705e-05
7.63331e-05
8.83786e-05
7.21152e-05
5.61541e-05
7.87877e-05
7.451e-05
6.87482e-05
2.21849e-05
4.55282e-05
4.87214e-05
3.1146e-05
4.78571e-05
4.71191e-05
5.08452e-05
4.21202e-05
7.94707e-05
4.71868e-05
5.94279e-05
5.63137e-05
5.25646e-05
3.71146e-05
3.8766e-05
5.21748e-05
4.51289e-05
4.25666e-05
6.95982e-05
0.000101725
4.01489e-05
3.41923e-05
3.53739e-05
4.25124e-05
9.77056e-05
6.09529e-05
4.37599e-05
5.92203e-05
3.81917e-05
3.93908e-05
4.56262e-05
3.98649e-05
5.4046e-05
6.49638e-05
4.91386e-05
5.7325e-05
4.5629e-05
5.52061e-05
5.81531e-05
5.93039e-05
3.46257e-05
1.48199e-05
3.53017e-05
2.35256e-05
2.86519e-05
2.14111e-05
2.69697e-05
4.10051e-05
1.25651e-05
4.86001e-06
8.88348e-06
1.1669e-05
4.19155e-06
7.24055e-06
5.56751e-06
8.23634e-06
2.73769e-05
1.46043e-05
2.41224e-05
1.63279e-05
2.14362e-05
1.03314e-05
2.15757e-05
2.03887e-05
1.51441e-05
1.25872e-05
2.02311e-05
1.69832e-05
1.50108e-05
1.21643e-05
1.426e-05
2.41874e-05
7.67643e-06
3.04579e-05
2.1076e-05
1.1128e-05
7.03333e-06
1.78054e-05
1.01678e-05
1.51348e-05
5.78367e-06
1.6669e-05
5.52324e-06
9.51301e-06
9.88288e-06
1.11768e-05
1.00296e-05
1.80623e-05
2.45806e-05
2.19469e-05
1.31688e-05
1.57425e-05
2.55614e-05
3.15783e-05
1.68366e-05
1.67759e-05
2.43973e-05
1.7027e-05
1.55049e-05
2.28442e-05
1.40461e-05
1.22358e-05
1.16829e-05
1.31988e-05
1.9603e-06
1.62183e-06
3.24989e-06
8.79722e-06
7.89244e-06
4.51569e-06
7.87569e-06
7.92729e-06
1.6152e-06
1.71273e-06
1.6133e-06
9.23546e-06
7.11433e-06
4.00529e-06
6.99463e-06
7.00514e-06
3.21999e-06
1.59582e-06
1.78487e-06
7.70478e-06
7.57468e-06
4.95453e-06
7.26673e-06
5.22086e-06
7.81826e-06
6.10338e-06
6.01502e-06
1.85447e-05
7.11597e-06
6.11413e-06
9.64131e-06
4.52298e-06
7.32868e-06
7.9452e-06
8.60603e-06
9.27869e-06
7.31791e-06
7.87956e-06
9.27172e-06
8.53495e-06
3.91863e-06
9.18706e-06
4.83023e-06
4.33735e-06
7.31852e-06
7.24658e-06
2.51522e-06
7.27885e-06
7.83514e-06
8.62424e-06
9.3055e-06
8.33998e-06
8.29557e-06
8.44751e-06
8.32266e-06
8.50998e-06
7.70469e-06
8.17354e-06
9.16097e-06
7.07144e-06
7.62176e-06
8.29407e-06
7.12491e-06
8.9283e-06
2.80992e-06
3.32116e-06
1.99311e-06
8.20803e-06
6.22344e-06
2.34609e-06
6.22721e-06
7.27301e-06
3.54876e-06
1.72194e-06
2.69468e-06
7.8848e-06
4.96209e-06