/*--------------------------------*- C++ -*----------------------------------*\
| =========                 |                                                 |
| \\      /  F ield         | OpenFOAM: The Open Source CFD Toolbox           |
|  \\    /   O peration     | Version:  2412                                  |
|   \\  /    A nd           | Website:  www.openfoam.com                      |
|    \\/     M anipulation  |                                                 |
\*---------------------------------------------------------------------------*/
FoamFile
{
    version     2.0;
    format      ascii;
    arch        "LSB;label=32;scalar=64";
    class       volScalarField;
    location    "1000";
    object      omega;
}
// * * * * * * * * * * * * * * * * * * * * * * * * * * * * * * * * * * * * * //

dimensions      [0 0 -1 0 0 0 0];

internalField   nonuniform List<scalar> 
43136
(
9.2361
8.97098
10.5919
7.27487
8.60039
9.77582
8.69148
9.46166
9.09446
9.82377
10.0994
7.47432
8.84729
9.71039
8.97944
9.48311
11.7898
11.7881
12.482
7.84652
10.938
12.3237
10.7344
11.6232
6.46012
6.53736
6.73901
6.2451
6.40774
6.55326
6.50391
6.58668
8.43269
9.79181
7.00032
7.08453
8.56109
9.09128
7.24539
7.29366
9.79908
7.42374
11.1147
11.2631
9.31005
9.14784
10.7147
9.81318
9.68181
7.09316
7.15268
7.45729
7.47933
7.29977
7.40488
7.23235
10.6753
7.62811
7.36877
10.4804
10.2042
7.64111
9.75381
7.61126
6.16967
6.86241
6.48781
6.3945
6.24349
6.43213
6.31651
6.44237
8.76547
16.1303
11.3118
10.0666
9.34348
11.3756
9.80102
11.629
7.32873
9.95919
9.49674
7.98932
7.64158
9.10888
7.94144
9.24614
6.66143
8.03098
7.26142
7.00805
6.79944
7.13809
6.92709
7.18925
7.10739
6.61008
6.49432
7.71836
7.31967
6.56945
7.45287
6.76185
7.7154
8.38855
9.54935
7.21188
7.80696
8.07968
7.68677
7.99954
6.7651
6.59017
7.9216
7.19528
6.84749
6.80385
6.99199
6.94929
7.26435
7.69166
8.49529
9.68079
7.42868
7.61751
8.33841
8.47896
8.7265
9.14372
10.0021
7.59617
8.62722
9.37963
8.38716
9.28716
10.6324
14.3442
16.3746
8.21223
10.593
14.039
9.76777
13.8624
13.094
17.7307
21.3504
9.09149
13.0499
16.9127
12.0896
16.6338
6.8738
6.95036
7.14615
6.41862
6.78976
7.01419
6.70025
6.94337
8.98114
9.92822
7.45172
7.68543
8.58989
8.76026
7.76329
7.78739
10.4484
8.26991
14.9345
11.7066
10.3481
9.60361
11.5388
11.3429
9.44263
7.32771
7.46542
7.76766
8.09645
7.72481
7.97594
7.48355
11.5868
8.54466
8.19699
14.6403
10.6108
8.65523
10.4279
8.56917
2063.5
2055.87
2052.69
1260.66
2456.56
2056.23
2372.13
2160.05
2044.12
2032.91
2038.53
1130.85
2012.19
2034.99
1948.9
1975.56
2050.99
2046.49
2045.22
1131.97
1937.49
2049.08
1863.37
1928.01
245.337
337.497
401.744
46.5955
179.836
360.541
189.089
314.592
2159.13
2049.09
1084.49
1140.05
2085.65
2083.54
1319.28
1224.03
2046.51
1164.24
2047.18
2053.36
2036.53
1975.31
2047.93
1975.58
1983.11
1061.93
1112.4
1110.62
1192.81
1146.94
1136.96
1112.21
1992.48
1124.58
1127.06
1942.23
1903.07
1150.22
1899.14
1144.71
2034.09
2032.01
2050.07
951.614
2117.63
2038.77
2103.04
2084.13
2044.43
2054.93
2049.5
836.973
1978.51
2048.27
1904.54
1943.39
2083.87
2050.09
2080.35
886.577
2067.69
2080.16
1972.71
2002.79
178.086
199.51
284.171
38.1251
141.784
227.045
142.258
200.032
1998.66
2204.07
768.838
775.701
1954.68
2092.45
865.69
890.188
2039.09
838.479
2048.08
2070.3
2002.4
1925.8
2047.94
1955.72
2155.96
754.951
775.284
897.151
940.998
834.421
911.913
837.697
2214.61
893.094
805.974
1929.08
2104.1
898.722
1877.23
806.33
14.3839
13.7611
16.6531
8.12102
12.1965
15.4831
12.3483
14.2364
11.2469
11.0509
13.969
7.78926
9.92573
12.353
10.1562
11.9525
17.852
17.1479
20.7407
9.01791
13.6296
18.7498
13.7841
17.9703
6.88508
6.68672
7.07933
6.362
6.70587
6.89224
6.77015
6.92208
11.0604
12.7118
7.82134
7.60591
11.1497
11.6059
7.94325
8.233
13.1508
8.11731
15.4494
16.6691
12.1188
10.4643
14.6055
11.6535
12.8208
7.91516
7.78948
8.19231
8.48057
8.18703
8.10864
7.88991
15.4044
8.66297
8.12378
14.7116
12.3664
8.71788
11.8411
8.39336
5.90595
6.1886
6.09733
5.9558
5.92847
6.03064
5.94932
6.03293
7.13976
9.30699
8.6675
7.36448
7.36146
8.38388
7.47322
8.32844
6.79608
8.34624
8.65264
7.08081
6.984
7.8754
7.15419
7.82831
6.04765
6.48684
6.3623
6.17432
6.10304
6.24402
6.15079
6.25203
6.29223
6.17811
5.99879
6.4283
6.37256
6.08783
6.33512
6.1329
6.70809
6.84325
7.9631
6.52446
6.70496
6.82584
6.82216
7.0215
6.22888
6.03656
6.51646
6.35094
6.20579
6.14128
6.281
6.20246
6.53254
6.60091
6.8025
7.83879
6.64879
6.61607
7.13502
7.06656
6.20344
6.79887
6.64453
6.35552
6.26864
6.4091
6.35384
6.47063
8.67402
14.1003
10.7223
9.69957
9.53493
10.147
9.73561
10.1887
7.45033
9.10168
8.49842
7.25182
7.55346
8.03644
7.7369
7.98026
6.50038
7.47114
6.77652
6.5587
6.54079
6.713
6.62099
6.71518
7.13352
6.75255
6.40162
7.52132
7.32474
6.58829
7.2563
6.5742
7.45618
7.83531
8.50264
7.03635
7.555
7.73456
7.82123
7.95797
6.88985
6.47586
7.60868
6.88897
6.69333
6.58974
6.79208
6.71897
7.09138
7.02634
7.82371
8.48095
7.29259
7.05914
8.14086
7.8909
1535.69
1541.11
1543.67
846.821
1480.9
1545.31
1437.82
1495.44
1534.82
1504.75
1528.34
1050.33
1711.11
1517.65
1684.96
1531.32
1542.89
1541.98
1550.57
907.76
1575.88
1549.1
1527.19
1513.53
214.999
204.904
239.929
43.1309
153.906
232.121
155.623
213.675
1531.53
1453.94
793.472
808.441
1523.09
1473
869.407
868.772
1539.02
1048.62
1538.26
1544.54
1515.75
1682.45
1542.08
1656.1
1430.86
778.79
791.921
768.429
839.53
842.17
786.704
782.848
1496.97
918.441
992.362
1518.01
1570.72
962.282
1605.57
989.495
6.0175
6.06725
5.91855
6.35539
6.14098
6.0345
6.17049
6.12685
6.1138
6.16031
5.95742
6.51486
6.27782
6.12088
6.36209
6.24351
5.88206
5.89207
5.86459
6.0181
5.92175
5.88531
5.92953
5.9106
7.1336
7.2082
6.66571
8.27752
7.57374
7.30898
7.70538
7.6253
6.21186
5.98996
6.6868
6.82924
6.30743
6.34371
6.47082
6.52239
6.07885
6.63826
5.94537
5.9298
6.23634
6.48333
5.94705
6.02855
6.01111
6.77556
6.95532
6.39056
6.15314
6.7209
6.34124
7.10136
5.9858
6.33669
6.81777
6.01231
6.07878
6.2029
6.06344
6.17472
6.07323
6.02677
6.63398
6.27526
6.1231
6.13953
6.19479
6.21104
5.98437
6.06219
6.97897
6.15096
6.06099
6.13624
6.14245
6.21129
8.28194
9.48385
13.0538
9.83384
9.50509
9.98595
10.1506
10.5023
6.40059
6.26244
7.49109
6.50531
6.36481
6.35184
6.45
6.48346
6.03237
6.95366
6.23565
6.16515
6.10251
6.2115
6.12184
6.21087
6.0715
6.22274
7.3097
7.06846
6.14397
6.21913
6.72192
7.03947
7.21159
6.31457
6.24641
7.60793
7.18125
6.34935
7.35212
6.35433
7.29587
7.79109
6.31183
7.50247
7.55672
7.51725
7.31881
7.25264
6.29739
7.1712
6.23868
7.2478
6.61203
6.77587
6.72588
6.88637
8.14987
9.40784
7.23598
9.80778
8.76656
8.69226
8.75928
8.93611
6.13426
6.43096
6.09037
6.6566
6.32531
6.29601
6.30983
6.36354
9.15262
11.0692
8.38734
15.5417
10.4068
10.2539
10.6234
10.8408
7.6276
6.52545
7.79656
9.13495
7.68245
7.13077
8.43521
7.87124
7.62625
9.05682
7.00485
6.49589
7.84283
8.12237
6.73143
7.05981
6.54485
7.99494
9.26022
7.37774
6.91557
8.10984
7.2883
8.56238
6.59393
7.51558
9.33129
7.12266
6.78926
7.2987
7.10203
7.55774
6.23122
6.04835
6.17261
7.43455
6.40544
6.14629
6.87991
6.52177
6.00801
5.99408
5.98502
6.58018
6.1236
6.03128
6.28693
6.17251
6.07764
5.96144
6.0215
6.98496
6.20873
6.00771
6.47767
6.17235
9.51086
8.24582
9.51215
12.9995
9.97863
9.05605
11.1639
9.98946
6.19929
6.33984
7.68236
7.01933
6.44139
6.67553
6.80428
7.29855
6.07104
6.83963
5.99011
6.07964
6.30013
6.41551
6.0327
6.15247
6.64218
8.35844
7.47521
8.44494
7.36532
7.86054
7.61195
8.07584
6.34797
7.49322
7.18272
6.12304
6.44743
6.96035
6.29078
6.68662
17.7576
11.0782
9.83357
16.5499
14.5053
10.8748
13.5825
10.2825
8.35738
7.02438
6.70945
7.843
7.81598
7.03624
7.64752
6.83755
7.14209
6.45876
6.24788
7.00059
6.7666
6.44306
6.65164
6.31881
12.6937
9.33439
8.55755
11.556
10.7322
9.2516
10.4359
8.82042
9.83356
8.79476
12.0114
8.99424
9.51993
9.20463
10.165
9.84813
8.18815
7.8477
6.6847
7.57068
7.86597
7.50326
7.60958
7.28268
8.46619
11.722
8.75238
7.87986
9.10435
9.37317
8.13523
8.51289
7.30835
7.16225
7.57225
6.53855
7.00616
7.37721
7.12296
7.43305
10.7799
13.614
13.0531
8.84724
10.7333
11.9744
9.93195
11.5413
21.563
35.5263
31.1103
11.7182
21.7869
30.8043
17.9254
29.7728
16.2272
21.7225
16.4957
10.2758
16.1336
19.1989
13.7398
18.0461
7.62766
7.87845
7.79453
6.73523
7.50213
7.88274
7.19873
7.69766
13.5785
12.9474
8.69418
9.72855
12.0592
10.7237
9.93767
9.29281
16.8095
10.9555
25.872
15.0952
15.9354
14.2689
19.7278
19.6439
11.52
8.22195
8.99721
8.82716
9.71362
9.07157
9.52295
8.6156
14.1377
10.0304
10.5744
24.2818
12.8571
10.3698
15.8407
10.634
9.61038
10.5468
13.5156
7.57915
8.89215
11.9997
9.15975
11.3204
12.3862
16.4
21.5508
10.0678
11.6146
18.4892
12.1561
17.3942
20.6952
31.0217
35.8573
11.4214
19.0747
32.3829
19.5031
28.8811
6.93532
7.62473
7.71394
6.64421
6.91947
7.52294
7.06265
7.49301
9.66927
12.4426
7.40398
8.19789
10.0418
10.8985
8.2477
8.30609
14.2045
9.8374
26.3295
18.3807
13.3027
12.9531
15.9624
14.8755
12.7636
7.59468
8.44724
8.87424
8.77231
8.20424
8.70731
8.34587
17.1131
10.2367
9.6126
23.8635
16.507
10.5728
15.384
10.3992
10.3487
8.47934
12.0392
10.9129
10.0514
9.46316
11.0397
10.9336
7.32916
6.62604
7.9654
7.21014
7.14272
6.96997
7.47185
7.33837
14.6474
11.0403
16.2425
15.4766
14.0943
12.9089
15.2835
14.7573
11.6617
8.82982
16.0712
13.8635
11.3021
10.338
12.9918
12.6984
8.27973
11.6936
10.5881
8.29603
8.89732
10.0853
8.49041
9.79265
7.95383
7.90388
8.68897
10.791
8.71652
8.18855
9.36708
9.18698
13.1937
12.091
9.07031
14.4262
13.3272
11.919
13.1177
10.7792
13.0591
13.6718
8.90004
9.80609
11.8088
11.9318
10.0521
10.299
2717.74
2428.12
436.808
436.636
2581.46
2528.46
913.948
1085.34
2203.62
2019.9
552.505
587.119
2137.77
2078.04
1149.72
1163.74
64.6913
79.2913
14.744
15.0248
68.5467
70.9823
21.8687
24.8583
62.0887
96.696
16.017
20.2569
70.7456
72.604
25.5069
30.5948
2345.23
465.594
471.904
566.926
1118.03
1050.73
544.728
489.097
2272.4
568.682
535.204
472.427
1164.03
1125.51
520.966
527.47
118.53
133.982
212.958
23.233
55.1253
182.305
68.0663
179.143
143.299
27.6333
244.857
172.948
142.472
70.3765
158.142
85.6335
3132.73
2640.12
1079.19
772.454
2920
2746.76
1399.17
1540.95
2298.15
2054.53
1115.86
897.012
2188.34
2109.7
1532.75
1532.15
187.787
243.973
22.8209
26.9309
207.849
208.093
43.0342
59.2689
107.31
164.786
25.965
28.6328
117.121
118.46
35.8895
45.7258
2488.71
1113.85
800.017
882.127
1549.95
1499.71
875.393
825.306
2380.11
877.947
1099.35
1092.18
1582.97
1538.84
1116.64
1122.45
346.34
198.038
320.887
36.244
123.012
273.265
133.506
265.455
465.831
45.9249
368.955
620.706
478.411
142.295
560.954
175.432
2533.84
444.127
1655.56
526.241
1733.32
1748.53
1665.6
1683.46
50.092
12.6824
64.1463
13.9949
32.6406
35.6341
48.9272
41.626
1541.67
580.072
1437.74
537.129
1495.59
1473.4
1449.77
1438.77
105.498
17.4052
97.7577
20.6241
69.1317
73.5935
83.8927
78.8364
266.479
1611.72
360.018
59.8871
393.068
1621.97
97.021
443.451
309.692
67.6074
462.549
1596.58
354.185
347.55
494.031
424.624
1553.66
403.279
87.2158
490.286
508.124
428.472
470.126
419.174
1549.32
499.435
77.0603
481.234
1496.12
511.856
503.216
108.161
6.2204
6.99753
6.15487
6.92146
6.47576
6.59844
6.62029
6.71082
7.79951
8.69042
6.82265
8.43919
8.31811
8.05141
8.06006
8.03706
5.9689
6.10767
5.90186
6.19105
6.06022
6.01106
6.05844
6.02402
8.0226
8.63165
7.19889
9.57807
8.53722
8.33816
8.72855
8.52967
7.37103
6.38584
7.30216
8.31432
7.31275
6.85898
7.88136
7.33121
7.234
8.02507
6.5988
6.22253
7.35248
7.48889
6.44172
6.71735
6.26415
7.41397
8.11252
6.85734
6.50343
7.43168
6.7937
7.57686
6.24436
6.71427
8.08414
6.55224
6.31576
6.64805
6.58051
6.85238
102.955
62.2454
310.463
74.2963
90.7316
94.2592
89.6628
98.8906
48.3699
23.9054
247.745
28.184
47.1535
70.0551
41.3504
73.5184
1004.73
1079.21
1932.74
873.946
1037.61
1363.49
994.754
1476.15
49.1343
27.3111
174.548
29.9582
44.074
56.9175
40.8284
60.4958
62.013
300.105
66.5993
38.7003
54.6905
87.3294
39.9765
76.4357
93.7456
50.9089
605.779
389.638
99.3057
77.6706
357.531
361.459
290.197
63.7565
35.1358
223.779
257.455
81.8478
244.08
69.1233
393.013
383.665
54.6939
651.042
373.748
346.924
307.037
179.445
15.0887
10.9611
10.5533
14.4366
12.9525
11.1966
12.5754
10.7644
7.81101
6.53887
6.379
7.07433
6.9073
6.51622
6.83876
6.41118
7.3593
6.26709
6.16612
6.83664
6.52348
6.26452
6.47551
6.1711
14.0588
8.67535
8.5115
13.1514
10.7107
8.8741
10.63
8.7011
8.95113
8.67994
12.0222
8.01057
8.94163
9.05598
10.1493
10.3197
7.88033
7.16016
6.37939
7.63167
7.63075
6.86999
7.56805
6.74162
8.63366
11.9025
7.92597
7.68473
9.9885
10.0957
7.81225
8.10742
7.38027
6.90533
7.03624
6.28467
6.65496
7.04364
6.66567
6.95804
6.07323
6.20621
6.60754
6.47322
6.12914
6.18571
6.34607
6.35868
6.38189
6.6122
7.16989
7.17283
6.49092
6.62152
6.81916
6.90147
8.0477
8.52658
12.0199
9.93561
8.34911
8.71254
10.47
10.5031
7.43984
8.12605
9.19562
9.72642
7.81724
8.15283
8.85583
9.01341
6.29557
6.75269
6.64523
7.00568
6.56669
6.48951
6.81854
6.78583
6.37088
7.19061
7.22378
6.92035
6.60485
6.71661
6.89186
7.02139
7.45075
7.12934
7.52989
8.97888
7.56712
7.21383
7.80074
7.40594
7.50586
9.10983
7.64095
7.82774
7.7069
8.13142
7.74518
8.10116
4608.06
5067.37
2439.68
1125.74
3975.14
4127.4
1731.77
2119.53
5788.1
6241.88
5133.85
2111
4910.77
5862.25
2808.14
3999.06
2406.92
3399.14
2659.59
1346.69
2244.21
2737.51
1636.63
2168.11
327.738
588.18
421.5
97.6191
296.724
492.952
155.641
305.967
4315.14
2187.14
1005.52
1391.84
2118.02
2119.06
1554.85
1350.3
4916.52
1869.13
4181.69
2679.48
2756.77
2828.23
3329.54
3030.24
1274.43
506.678
840.258
582.423
956.077
759.882
885.569
811.866
1908.19
1006.63
1236.08
2752.09
2033.67
1369.82
2044.64
1569.17
2595.38
3321.14
3145.67
1276.42
2505.32
3298
2557.12
3152.65
4827.08
5448.98
3863.68
2162.57
4246.56
5449.5
3974
4603.23
3199.56
2975.62
2567.22
1620.05
2912.57
2924.03
2580.81
2645.67
421.547
637.629
609.02
111.294
404.139
640.534
409.822
563.741
3273.13
3218.96
1151.54
1473.3
3289.81
3068.95
1531.08
1524.96
4706.5
2136.25
3819.2
3845.51
4196.61
3688.36
3934.72
3626.73
3011.49
1146.25
1477.26
1411.22
1462.81
1450.44
1491.48
1377.4
3424.12
1664.61
1917.91
3285.24
2989.04
1857.48
3220.02
1877.4
3986.07
4848.74
2570.42
721.649
3345.73
4022.27
1295.93
2001.61
5438.25
5055.31
4370.7
2331.22
4540.28
4749.51
2821.08
3540.02
2648.14
3460.23
2850.49
9122.37
2571.14
3067.05
2401.82
2622.13
202.849
1105.28
2890.87
103.143
291.809
984.67
315.805
1631.94
4024.03
2229.8
617.472
1390.53
2100.56
2073.69
1360.52
1071.42
4711.88
2158.36
3963.66
2907.19
2782.67
2856.9
3436.87
3076.06
1207.43
313.697
1475.37
4405.78
912.908
727.923
2062.24
1356.85
1975.63
9836.14
3107.46
2815.37
2206.89
4309.32
2203.73
4229.57
2637.04
3203.02
2959.88
9698.85
2640.79
2682.83
3825.04
3380.02
3896.83
4468.57
3511.72
3334.44
3683.65
3638.07
3568.78
3540.47
2964.27
3444.46
2592.77
4200.78
3216.41
3206.89
2854.45
2930.43
3199.62
1732.91
1889.6
167.752
2306.51
2571.63
1674.52
1941.06
3023.74
3437.04
9609.68
5305.15
3852.76
4175.49
6805.26
9148.99
3072.46
5122.62
3486.5
3436.86
3534.27
3640.44
3497.42
3497.17
3377.36
8645.3
5601.63
5023.54
7224.03
8549.34
7062.71
7454.82
3354.29
5439.72
5356.66
3612.16
3757.41
6759.95
3789.81
5664.57
4824.22
5586.07
2528.64
1160.73
4068.12
4703.53
1760.08
2214.4
6049.05
5337.05
5237.34
2291.32
5023.3
4973.75
3056.82
4243.08
2606.64
3971.78
2856.33
1607.2
2446.67
3399.44
1890.76
2447.64
335.759
638.132
513.658
103.092
299.751
535.593
162.965
367.443
4542.5
2258.08
1012.44
1453.9
2213.71
2204.65
1635.7
1412
5291.97
2021.98
4721.05
3118
3039.48
3100.04
3717.36
3317.15
1405.73
530.556
937.469
698.162
1052.68
842.18
982.358
903.457
2143.24
1238.75
1424.03
3228.11
2267.89
1562.94
2286.37
1780.08
2854.1
3849.06
3451.42
1526.56
2873.17
3784.26
2958.4
3539.57
4831.9
4934.52
3740.18
2344.5
4394.66
5207.31
4041.13
4356.94
3281.2
2883.53
2393.26
1728.7
2965.47
2860.41
2626.45
2525.58
503.578
692.993
658.708
116.995
468.258
696.943
470.331
610.401
3618.91
3426.79
1381.07
1673.78
3551.85
3326.46
1732.22
1721.5
4774.34
2312.66
3929.04
3932.45
4238.44
3764.34
3962.68
3719.61
3211.63
1379.57
1694.71
1603.76
1667.27
1653.35
1702.94
1597.34
3505.89
1832.77
2105.21
3287.23
3112.18
2012.5
3320.57
2037.34
4591.53
2655.66
4794.68
1643.86
3059.03
4055.59
3019.26
3723.2
2638.61
2721.19
3322.66
1671.38
2243.33
2963.27
2236.52
2768.29
5297.23
4033.58
5007.26
2715.36
4166.27
4731.12
4079.86
4447.45
595.012
638.991
974.063
187.363
394.716
773.352
397.707
685.329
2032.46
3707.1
1133.14
1021.02
2032.45
2983.3
1315.56
1723.19
2999.84
1787.09
3962.26
4617.52
2761.2
2504.59
3382.88
2875.67
3635.86
1134.75
1047.64
1697.1
2093.08
1579.41
1698.31
1348.74
4313.99
2213.45
1617.68
3623.09
3601.72
2365.81
2840.75
1957.86
2264.24
2674.53
3084.48
1882.52
2329.72
2638.05
2497.6
2825.24
3487.98
4473.29
4094
2721.35
4164.73
5180.84
4044.99
4492.38
3340.47
3432.35
2801.86
1694.46
3358.48
3395.2
2912.25
2923.1
963.41
1087.49
708.05
218.164
929.601
1095.41
759.92
800.77
2983.12
3306.91
2031.27
2426.66
3161.91
2988.55
2289.33
2258.64
3478.87
2680.97
4161.56
3666.2
3586.38
3782.3
3730.62
3936.92
3181.54
1944.18
2209.25
1717.84
2049.64
2114.03
2041.98
2096.49
3444.2
1734.27
2322.68
3721.72
3467.73
2058.74
3631.72
2083.89
861.319
524.359
1137.23
326.311
882.888
930.586
862.621
1002.7
123.485
18.5883
163.997
22.7115
116.234
117.495
116.551
130.198
1485.7
870.542
1698.39
554.773
1510.5
1589.23
1487.8
1719.09
45.8434
15.98
52.5851
16.9122
40.6449
43.854
38.6788
41.0574
527.128
1161.7
322.542
115.913
518.541
920.211
122.675
348.499
547.791
123.309
757.155
1220.17
612.469
543.45
716.956
722.804
1138.69
305.392
111.636
419.134
441.875
371.619
439.598
327.365
1317.59
504.099
128.674
832.679
1208.08
470.563
705.54
161.15
10.5316
12.2253
12.8641
11.1465
11.3233
12.3011
11.6695
12.5202
14.9217
19.404
26.8064
24.6984
16.2368
19.0218
18.8379
22.7731
16.2034
32.2828
36.5149
41.0973
22.7256
29.1348
26.3701
32.632
11.9629
33.6107
45.5136
25.1053
13.8639
25.2582
16.72
33.0524
13.4571
14.0339
12.4138
14.8811
13.8604
13.7443
13.5243
13.6597
15.0303
20.9606
24.7846
15.443
15.1839
18.7625
15.5135
19.3085
14.4603
12.7526
19.3028
24.8631
14.7611
14.0799
19.7788
19.8979
15.7317
34.6003
27.2247
28.3331
22.989
29.3813
23.0315
35.3492
2387.17
2372.4
2399.82
1109.45
2259.42
2394.66
2201.75
2302.37
2351.64
2351.77
2353.57
1114.4
2233.31
2347.4
2184.23
2271.39
2372.57
2359.51
2359.11
1280.68
2541.01
2361.99
2671.15
2736.98
250.751
210.603
175.922
27.9304
187.014
229.244
135.997
138.292
2248.37
2412.97
1135.08
1035.51
2207.87
2315.35
1066.9
1180.33
2369.41
1071.73
2355.36
2396.2
2294.9
2311.72
2372.35
2403.07
2414.03
1124.71
1001.42
1039.91
1236.27
1161.63
1145.06
1109.11
2513.6
1040.2
1016.2
2433.96
2576.41
1182.6
2421.59
1147.37
10.3844
10.6199
8.71873
10.3471
9.94334
9.90705
9.81405
9.45194
11.3953
12.4119
8.76939
10.3238
11.1013
11.2219
10.6302
10.2304
7.51721
7.27754
6.6957
7.29319
7.25376
7.09635
7.15024
6.92034
10.375
9.4958
8.37908
10.2106
9.72715
9.40803
9.68537
9.03839
10.2094
8.35546
9.84209
9.70618
9.96575
9.49392
10.066
9.645
10.3223
9.64542
8.12679
8.15868
9.59787
9.67307
8.67267
8.33375
8.18807
9.7887
9.49071
8.05935
8.52311
9.23885
8.21109
9.21992
7.92428
7.6351
9.03296
7.77737
7.90953
7.97052
8.11994
8.28164
7.00047
16.476
8.31627
8.94105
7.38183
8.06655
7.78479
8.14765
179.331
3419.43
1038.11
648.294
369.428
1459.57
427.684
1172.65
13.0537
156.324
19.8826
23.7533
16.9125
23.9418
18.0863
22.6454
13.6768
84.9626
22.4847
24.0546
17.1427
24.8613
18.9221
23.3125
25.6812
9.2672
10.0784
78.2418
31.2588
9.80387
51.7705
13.7979
64.3924
127.768
261.815
14.5746
57.4428
99.4391
55.1271
76.9812
9.90145
10.8125
81.0265
17.7108
12.4424
13.0861
16.1114
19.2174
13.4098
24.5177
112.4
202.069
20.784
26.4501
82.4455
102.576
2356.64
2341.87
2357.85
1190.09
2190.29
2354.96
2083.63
2205.68
2338.28
2337.29
2342.69
1225.97
2195.28
2337.47
2139.37
2239.32
2355.19
2344.15
2354.46
1379.57
2328.58
2351.65
2347.42
2396.98
402.396
284.492
314.224
29.1092
325.706
359.475
260.203
258.435
2170.54
2254.99
1205.47
1215.76
2075.54
2138.49
1195.49
1225.69
2340.14
1243.46
2342.11
2357.8
2181.84
2128.17
2342.72
2230.63
2193.94
1217.41
1215.9
1234.69
1276.61
1242.55
1260.18
1233.93
2283.45
1260.8
1240.21
2271.6
2241.64
1316.09
2190.55
1335.2
2339.97
2349.66
2358.97
1168.49
2162.35
2360.27
2059.83
2246.63
2357.56
2372.9
2382.97
1165.95
2479.1
2381.32
2401.19
2317.51
2360.59
2387.42
2386.85
1173.59
2215.48
2393.22
2105.23
2265.35
243.199
219.739
314.793
25.6186
137.108
285.889
143.238
273.281
2245.27
2053.63
1091.3
1075.72
2200.68
2097.53
1191.06
1204.12
2363.55
1223.53
2391.4
2368.32
2304.34
2399.08
2367.38
2368.02
1984.97
1067.62
1063.61
1016.59
1170.05
1167.77
1041.67
1046.14
2246.23
1179.4
1191.89
2293.13
2182.73
1214.94
2256.17
1210.54
2360.86
2388.37
2367.79
1047.39
2167.88
2377.79
2213.42
2443.05
2433.96
2462.72
2441.85
1562.18
2862.85
2455.78
2829.94
2392
2378.96
2421.69
2397.83
1349.36
2710.17
2409.76
2788.15
2430.42
175.171
220.976
107.114
21.8836
103.288
171.877
62.2365
104.773
2616.92
2441.15
972.611
1222.32
2633.44
2659.03
1462.14
1402.99
2426.51
1566.31
2432.45
2390.13
2489.9
2957.72
2398.4
2821.94
2415.93
840.893
1175.08
704.35
1275.41
1298.43
887.01
1122.62
2412.32
1312.73
1502.05
2376.83
2915.34
1496.04
2802.42
1559.27
803.885
456.943
490.189
310.025
696.237
509.979
711.711
486.118
163.639
39.9576
40.5535
41.5229
64.6455
44.5332
61.2289
39.1386
117.359
37.3732
17.6055
23.7237
90.6717
41.1443
91.339
30.7401
48.0984
24.9888
17.8247
17.1151
35.5859
26.0217
34.8285
21.3968
270.013
404.543
237.788
62.4049
269.505
324.401
139.638
154.68
186.64
46.4741
45.3615
198.716
170.925
68.8324
174.871
73.5739
411.063
240.671
59.5782
90.0196
122.373
135.785
89.6103
71.5625
162.232
36.6382
41.7543
38.9159
80.2317
47.2567
70.3333
42.7531
1581.06
1597.68
1590.84
835.559
1613.63
1590.64
1664.95
1600.1
1616.95
1636.79
1632.82
862.385
1806.5
1629.07
1869.1
1638.02
1602.74
1630.14
1627.74
815.688
2218.49
1624.21
2458.57
1770.28
102.621
97.8746
56.3495
20.8246
57.4719
80.4109
41.4342
58.633
1710.52
1811.35
691.296
626.169
1768.15
1811.35
822.733
792.854
1609.87
848.949
1627.05
1601.06
1623.24
1914.15
1607.76
1968.43
1900.92
542.641
583.177
414.016
775.763
744.663
507.006
573.814
1657.41
772.202
844.094
1693.22
2144.17
837.604
2099.75
894.098
6.00984
6.50851
6.11859
6.38191
6.34045
6.33945
6.26177
6.33591
7.99851
11.853
9.5051
9.91688
10.6536
11.0078
9.83561
10.11
6.21396
7.72739
6.45845
7.18602
7.04879
7.1752
6.8485
6.79773
7.31999
9.04837
8.19434
9.68373
8.68341
8.54214
8.66128
8.70505
7.44159
6.63903
7.0559
8.95359
7.23467
6.71011
7.43165
7.01644
7.51229
9.01431
8.66404
6.65832
7.42797
8.64243
7.0055
8.4883
6.53787
7.04075
8.71178
7.62662
6.7462
7.10531
7.72767
7.88005
6.54908
7.6246
8.75753
8.20448
7.13758
7.66498
8.057
8.28541
83.3329
47.7197
253.192
70.4236
83.4962
76.4117
92.7257
106.676
27.4535
15.5589
82.2751
16.1506
26.5941
25.0027
28.7121
33.4955
836.647
545.793
1917.3
580.008
865.022
833.382
972.796
1225.71
36.6518
17.4458
99.6311
21.6183
35.6037
33.958
36.1989
44.2269
46.8786
254.897
69.7009
30.9149
51.9352
86.3512
32.2673
65.999
43.9695
29.0269
143.188
236.665
61.1002
47.606
155.357
152.717
282.125
73.7759
33.4575
224.967
216.059
94.9294
213.378
70.6623
328.551
295.86
38.9697
207.99
271.065
202.412
166.411
89.0806
6.97355
9.01277
8.9783
7.88208
7.14575
8.12426
7.54896
8.18076
11.3684
14.4218
15.4209
11.8651
11.6293
12.8337
11.9974
13.3632
12.7071
17.0662
19.0933
17.7617
13.5237
16.7897
16.0292
17.9329
9.42111
10.3925
14.2214
12.1698
9.73795
10.1938
10.8902
11.2292
9.22346
9.31032
8.16072
9.58319
9.29995
8.43918
9.26618
8.65037
10.869
11.0062
14.6164
10.8708
10.8354
11.4068
12.5976
13.0383
10.1583
8.74649
10.0886
12.7
10.7417
9.23931
11.0951
9.78018
11.1143
13.2557
11.1784
15.1379
11.6585
11.9444
13.1604
13.0989
1751.46
879.817
1947.24
545.095
1802.38
1842.15
1827.19
1903.91
153.57
16.158
158.506
20.1548
109.379
95.5876
123.754
91.7207
2169.36
1100.42
3302.33
512.328
2273.26
2349.23
2291.17
2445.32
45.909
13.4883
45.8734
14.8604
34.0318
36.4123
32.5596
30.5164
832.024
2009.5
481.133
107.513
864.631
1930.65
152.812
505.665
814.718
113.508
717.497
2054.35
804.912
748.997
851.322
764.308
2040.28
461.883
102.093
344.266
492.849
442.23
389.247
377.424
2134.23
311.987
79.9019
682.629
2177.41
434.217
803.701
129.928
10.8106
12.6443
11.0388
10.8985
10.7485
11.5671
10.6592
11.3525
16.3972
20.0466
17.5319
16.6776
16.6267
18.7995
16.0944
18.1162
11.8185
15.4389
13.9109
11.4639
11.8636
13.9438
11.5876
13.6597
11.1828
13.6705
10.2088
11.7772
11.345
11.3674
11.1187
10.9736
12.721
11.1182
10.9089
13.1373
12.4472
11.4472
12.6136
11.2484
14.4334
13.6528
16.2187
12.4619
13.9842
13.9706
13.4555
13.4207
10.7396
10.814
12.9537
10.2616
10.548
10.9999
10.5604
11.3241
12.1991
11.5633
13.1793
15.6559
11.9949
11.8223
12.8874
12.7468
784.605
490.392
449.094
306.974
520.412
504.665
517.859
494.328
161.591
63.2163
56.3248
50.8842
62.0824
56.8131
51.21
51.6211
163.967
55.5719
39.9673
41.7896
60.0894
56.4579
54.1591
51.9327
53.1236
38.6382
25.6624
21.2277
35.7293
33.9807
30.0955
30.8847
168.207
215.674
156.886
49.2669
157.435
168.019
149.895
153.175
163.925
45.241
56.9563
207.596
158.7
51.0974
203.063
60.3967
208.879
151.693
40.125
45.6395
140.062
147.979
51.1318
41.3623
198.746
45.1973
40.8188
52.5862
57.054
48.8446
52.7981
48.5831
1771.8
1167.19
1741.18
1016.26
1474.13
1388.74
1511.18
1405.06
727.818
318.656
598.181
275.708
420.725
404.482
414.111
394.955
1725.65
1215.1
1949.42
1020.08
1418.34
1426.19
1448.36
1454.87
325.063
169.292
350.329
53.7077
196.696
202.623
191.587
195.826
843.443
1424.01
771.363
330.134
852.478
1033.41
647.439
760.661
871.313
340.229
787.618
1350.61
882.679
533.888
1128.4
796.418
1459.74
784.563
319.854
778.239
1002.15
760.706
761.908
444.058
1365.11
692.631
336.285
796.079
1010.08
701.665
799.138
574.924
6.50254
7.80504
6.45315
7.52175
6.96446
7.0925
6.92
7.13598
10.3781
16.6648
9.69007
15.894
12.7078
12.6746
11.7936
12.5466
6.28264
7.0613
6.18653
6.88195
6.51903
6.55011
6.37731
6.50591
9.00059
12.2328
8.36075
11.281
9.97229
10.1085
9.42253
9.92528
8.75825
6.78001
8.30855
11.5514
8.52416
7.44376
9.94193
8.48898
8.79928
11.5983
8.16409
6.82896
8.84739
9.26953
7.56783
8.13788
6.63411
8.01414
10.6411
7.30492
7.17963
8.33406
7.66296
8.69114
6.81024
7.57556
11.2518
8.09224
7.0221
7.74735
7.817
8.9591
10.8555
13.4917
13.1548
13.0349
11.934
12.1204
12.8628
13.0508
21.0537
35.8116
30.9095
31.3619
28.9205
29.3761
30.0342
31.3822
17.0527
24.5276
30.9086
27.6885
19.7156
20.1308
27.3828
28.6399
16.2602
22.3007
23.3309
18.4524
19.2697
19.8503
18.964
21.111
16.2209
14.7332
14.8933
24.828
18.2904
14.8923
19.2714
15.2686
16.5047
25.3623
23.6648
14.9701
18.6709
24.0657
18.5526
23.2323
16.4131
16.0451
22.2379
23.4263
16.7691
16.4887
19.4966
19.3973
16.7126
25.2237
23.8022
24.4468
19.6178
20.1176
23.2623
23.8742
127.089
93.0872
305.807
139.288
112.88
105.953
127.896
125.962
69.7886
37.4565
106.461
55.8075
61.888
54.1004
78.4539
78.9484
839.546
576.757
1548.39
1052.75
867.964
775.297
1216.33
1337.65
174.444
84.8194
549.828
113.008
176.287
150.089
257.504
312.242
87.0226
297.672
137.686
106.091
103.155
117.004
107.641
126.499
81.4852
91.139
180.005
269.317
100.513
92.7454
225.548
220.542
441.911
178.922
161.437
755.371
526.706
180.864
538.07
172.618
430.8
835.47
183.332
414.765
427.05
471.332
400.856
312.03
3622.29
958.311
329.103
357.744
1349.59
874.073
335.597
348.003
130.205
14.58
10.8467
12.7576
18.8484
14.9301
13.3878
11.2906
21.0681
8.08025
6.66953
7.66578
8.2623
7.72465
7.21012
6.84627
35.195
11.0768
9.95467
13.794
12.8544
11.2207
11.8019
10.5002
133.296
52.676
57.5487
15.2274
79.0393
80.0721
74.8379
56.208
123.508
12.2978
10.4877
53.8023
61.4504
14.0835
56.9672
11.7788
24.1447
32.9944
10.7933
8.65036
23.6996
25.6427
9.92168
10.8819
21.9757
8.01449
9.96854
8.45395
9.26813
9.11703
9.37642
9.60158
1866.55
1835.73
1124.55
1053.27
1808.71
1727.72
1188.51
1158.46
1844.36
2091.39
1257.07
1412.97
1825.96
1834.48
1310.87
1320.08
699.836
924.76
463.089
353.462
597.981
610.415
397.189
473.465
323.514
758.683
236.945
126.679
405.862
432.922
189.803
245.539
1751.43
1012.23
990.133
1178.25
1029.81
1001.74
1059.97
961.083
1667.02
1145.97
1026.91
982.679
1015.29
1091.12
983.288
1040.8
666.739
514.02
762.829
292.443
569.947
549.34
500.293
483.208
672.9
362.729
824.209
851.64
563.649
506.84
759.386
801.819
23.0505
20.9789
8.70006
25.6554
21.4178
16.0639
20.4763
14.1823
16.3185
10.0977
7.29527
16.669
14.0489
9.11846
12.4143
8.27231
7.00211
6.63995
6.39168
6.78867
6.8605
6.66443
6.80674
6.51451
26.2468
20.3544
8.00747
19.3311
20.2551
12.5024
14.6857
9.51936
18.7026
8.40497
22.4513
19.0639
17.5164
14.5794
23.8772
15.4468
12.6434
11.2305
7.31832
7.82248
10.9885
10.9577
7.85917
7.69202
8.21191
20.0183
14.5053
7.96865
8.33726
12.2641
8.12907
12.2185
7.59627
7.33749
8.77468
7.03365
7.49451
7.63081
7.52361
7.60008
9.06309
7.59576
7.40204
9.48169
8.38194
7.72869
8.31073
7.88715
6.74843
6.24825
6.40059
6.96434
6.56227
6.33759
6.63387
6.47215
6.85688
6.56514
6.71284
7.29405
6.81674
6.64328
6.89003
6.75873
10.3843
8.37492
8.5082
11.1757
9.57094
8.46834
9.47348
8.9693
7.27779
7.19718
8.81048
7.51164
7.32874
7.57412
7.91008
8.05435
6.90114
7.05308
6.46919
6.88431
7.03226
6.77106
6.80963
6.64556
7.21937
8.75809
7.62659
7.68228
7.76327
8.22276
7.55525
7.83706
7.02799
7.473
7.35187
6.58595
6.90437
7.25131
6.75163
7.18854
20.3529
17.5768
9.91129
8.49378
16.3127
17.5297
9.96982
10.3883
13.5686
9.41679
8.04872
7.29638
9.89101
9.83255
7.90861
8.14695
7.79824
7.46661
7.19324
6.89074
7.48719
7.5545
7.15122
7.12869
6.9945
6.67618
6.62132
6.40335
6.77843
6.77627
6.59235
6.5518
12.9985
8.83331
7.92039
7.39104
8.87733
8.58353
7.80856
7.95177
13.6609
7.39473
8.16774
8.94945
9.11629
7.86797
8.79842
8.07765
7.76754
7.35984
6.92822
6.83739
7.3351
7.32638
7.09523
6.97374
7.7946
6.83854
6.9752
7.441
7.34854
7.10851
7.34473
7.02596
5.97577
6.05844
6.40468
6.51152
6.04681
6.13071
6.22742
6.2489
6.14461
6.31453
6.55608
6.69836
6.24742
6.32255
6.40535
6.41445
7.17949
7.17806
8.83854
9.54274
7.27759
7.42134
8.0437
7.8947
7.71757
7.79185
10.4365
11.9914
8.06804
8.31557
9.34966
9.16269
6.14364
6.50857
6.67666
6.77283
6.29609
6.38259
6.61721
6.84415