/*--------------------------------*- C++ -*----------------------------------*\
| =========                 |                                                 |
| \\      /  F ield         | OpenFOAM: The Open Source CFD Toolbox           |
|  \\    /   O peration     | Version:  2506                                  |
|   \\  /    A nd           | Website:  www.openfoam.com                      |
|    \\/     M anipulation  |                                                 |
\*---------------------------------------------------------------------------*/
FoamFile
{
    version     2.0;
    format      ascii;
    arch        "LSB;label=32;scalar=64";
    class       volVectorField;
    location    "900";
    object      U;
}
// * * * * * * * * * * * * * * * * * * * * * * * * * * * * * * * * * * * * * //

dimensions      [0 1 -1 0 0 0 0];

internalField   nonuniform List<vector> 
60096
(
(-8.49793 3.80556 8.56567)
(-6.84085 3.21741 8.35326)
(-5.72951 2.29029 5.61338)
(-6.06372 3.13465 6.36037)
(-6.66198 2.42223 7.74326)
(-6.62241 2.7608 7.6059)
(-6.46148 2.51497 6.86914)
(-5.9526 3.02811 6.23169)
(-4.92423 4.04235 7.47102)
(-4.06379 4.14951 6.10339)
(-4.82752 4.10106 7.6379)
(-3.92776 4.10556 7.49388)
(-4.28507 3.99609 7.08309)
(-4.38835 4.14081 6.8293)
(-4.19274 4.06226 7.66121)
(-4.66049 4.12303 7.44155)
(-2.65919 1.7911 3.42774)
(-3.32824 2.22726 4.87863)
(-1.1449 0.772803 1.7251)
(-2.01973 1.49599 3.36342)
(-2.78785 1.6382 3.69668)
(-2.55446 1.71682 3.41829)
(-2.13654 1.56675 3.2491)
(-1.57631 1.29772 2.51335)
(-4.72646 2.73992 5.74935)
(-2.86632 2.84241 6.98265)
(-2.36004 1.89583 4.5212)
(-3.13601 2.43644 5.53376)
(-3.76408 3.12382 6.11674)
(-2.52777 2.35288 5.15398)
(-2.96839 2.48038 5.61097)
(-2.30847 1.91677 4.7638)
(-5.2358 3.29686 7.68721)
(-4.74047 2.19033 5.29296)
(-5.75931 3.01531 6.59431)
(-3.1588 3.23708 7.12581)
(-4.68467 2.73889 7.01321)
(-5.18145 2.40068 6.15381)
(-3.37589 3.14491 7.00563)
(-4.77266 2.55001 6.03123)
(-4.64193 2.86884 6.93152)
(-3.1427 2.93949 6.57857)
(-4.9138 3.4372 6.74408)
(-3.67719 2.39487 5.05856)
(-3.30946 2.57509 6.07986)
(-3.63056 2.69552 6.44488)
(-3.56478 2.33597 6.14858)
(-3.94302 2.91428 6.96694)
(-3.58746 2.10249 4.64682)
(-4.9125 2.64743 6.00712)
(-3.20286 2.99707 7.01558)
(-2.27481 1.84438 4.35285)
(-3.48426 2.04962 4.86588)
(-3.29761 2.23514 5.17941)
(-2.78573 2.33513 5.02949)
(-3.29765 2.48671 5.20003)
(-2.39972 2.17946 4.23184)
(-2.23172 1.72726 4.0318)
(-3.34284 2.60629 6.83097)
(-4.00527 2.67955 5.80146)
(-2.41103 1.93842 4.29921)
(-2.29585 2.16288 4.57251)
(-3.72139 2.75249 6.43738)
(-3.71023 2.57493 6.58599)
(5.99675 -6.34262 -47.2543)
(2.63403 -0.640626 -15.5052)
(-0.345416 1.09503 -21.9309)
(8.23204 -6.95244 -36.7323)
(6.12229 -7.00364 -46.3368)
(2.31904 -0.806965 -31.9638)
(6.14992 -6.04776 -43.8567)
(3.1228 -1.02026 -33.0146)
(3.73897 -2.30677 -1.6936)
(-2.38389 1.57985 -2.48067)
(2.51821 -2.2441 0.304979)
(1.90793 -5.8735 0.459373)
(4.00188 -2.79577 -2.40357)
(3.79806 1.31235 -0.583107)
(4.38718 -0.823206 1.1587)
(2.6547 -0.808445 -0.0770254)
(-1.1245 2.82912 -11.4454)
(-2.17118 0.168617 -5.38109)
(-1.90677 1.87181 -9.08474)
(-1.11662 1.80595 -15.6482)
(-1.18057 2.68898 -12.7871)
(-0.940189 2.1185 -8.48416)
(-0.989297 1.72557 -11.7528)
(-0.851765 2.0254 -9.90996)
(5.03383 -3.96047 -41.5589)
(1.29676 -6.69337 -20.9001)
(-1.84691 0.863806 -28.8893)
(2.37599 1.69477 -57.9072)
(5.16835 -5.71083 -60.2459)
(-4.58328 -4.29836 -41.1853)
(4.96282 -4.96333 -40.6315)
(-2.37746 -4.14001 -39.3569)
(4.13383 -0.992023 -16.7613)
(-0.53516 2.74771 -22.674)
(4.56786 -5.20404 -43.4335)
(4.21255 -5.42007 -18.9042)
(5.89598 0.663032 -11.8331)
(4.33211 1.07665 -27.0294)
(4.78935 -5.08149 -20.5809)
(1.13983 -3.63759 -34.1731)
(1.96804 0.57259 -6.50003)
(2.26032 -1.50367 -2.9155)
(-0.0337919 -0.608842 -4.32856)
(0.0160165 0.5922 -17.8194)
(4.18437 1.81472 -5.6882)
(3.98831 0.873234 -3.09931)
(2.92156 -1.02595 -11.3409)
(2.2418 -0.721093 -10.1677)
(0.240029 2.4245 -20.156)
(6.09217 -3.90518 -34.9033)
(3.48243 -4.35745 -13.9704)
(0.417742 0.117103 -18.0511)
(-0.073761 0.130982 -24.7574)
(2.65929 -2.63368 -32.9401)
(-0.759177 1.08569 -22.9763)
(4.47707 -1.17464 -23.6735)
(-0.171104 1.07805 -18.9483)
(-0.895707 -0.772125 -18.0747)
(2.16865 -7.25855 -9.36519)
(-0.86291 0.826048 -1.12526)
(-0.101988 1.0899 -17.3922)
(-0.63857 -0.749806 -18.7412)
(4.80229 -1.74826 -6.07926)
(-1.3172 -2.07938 -14.9915)
(-1.22393 1.90793 6.26209)
(-1.38897 2.38314 6.52222)
(-1.24856 2.23013 6.25068)
(-1.29908 2.21403 6.27433)
(-1.28691 2.05882 6.25342)
(-1.26047 2.21196 6.50957)
(-1.33056 2.14537 6.25454)
(-1.33786 2.24059 6.15367)
(-1.67901 3.05751 6.95563)
(-1.96049 3.5559 6.31178)
(-1.52537 2.05665 5.12709)
(-1.60263 3.29293 5.97023)
(-1.82469 3.22345 6.93429)
(-1.59542 2.83988 6.02469)
(-1.64191 2.9024 5.90343)
(-1.34176 2.5765 5.3624)
(-1.21688 1.74412 5.45204)
(-1.25002 1.36541 4.87393)
(-0.761312 0.852878 5.38316)
(-0.989822 1.10501 4.92477)
(-1.19479 1.68718 5.1792)
(-1.29592 1.4375 5.04937)
(-0.947681 1.31174 5.2366)
(-1.17604 1.16778 5.17397)
(-1.34623 2.59609 6.19063)
(-1.4716 2.93584 5.48143)
(-1.13507 1.87482 5.06867)
(-1.467 2.76282 5.53719)
(-1.36694 2.80441 6.16605)
(-1.37915 2.50382 5.93554)
(-1.48241 2.7255 5.9023)
(-1.35339 2.19498 5.32484)
(-1.40837 2.54632 6.66618)
(-1.2701 2.36659 6.27287)
(-1.28804 2.42393 6.19762)
(-1.44667 2.91874 6.31176)
(-1.42288 2.54843 6.21742)
(-1.35126 2.45451 6.2385)
(-1.44604 2.76059 6.29299)
(-1.33521 2.48369 6.32894)
(-1.44315 2.71945 6.56951)
(-1.46534 2.65102 6.06172)
(-1.53955 1.87992 5.20482)
(-1.3352 2.01934 5.71758)
(-1.34352 2.51683 6.20569)
(-1.55191 2.67594 6.03313)
(-1.41408 2.22313 5.86382)
(-1.54797 2.29993 5.54279)
(-1.34894 2.21514 6.01187)
(-1.36504 2.48759 6.29634)
(-1.52886 2.81486 5.66442)
(-1.11421 1.76777 5.29713)
(-1.29629 2.26574 6.00966)
(-1.42937 2.37862 5.97619)
(-1.35196 2.32604 5.61445)
(-1.4133 2.55804 5.8796)
(-1.4233 1.77976 5.46531)
(-1.26461 1.46381 4.96434)
(-1.34916 2.20984 5.17138)
(-1.35496 1.71027 4.98596)
(-1.41001 1.75056 5.26675)
(-1.41136 1.81671 5.39434)
(-1.34163 1.68785 4.98073)
(-1.33568 1.95815 4.89976)
(-0.140792 0.231619 1.25204)
(-0.379812 0.767969 1.73449)
(-0.372067 0.200509 1.55503)
(-0.178226 0.541565 1.69589)
(-0.135757 0.468539 1.34405)
(-0.332328 0.439307 1.44424)
(-0.286203 0.521392 1.53277)
(-0.4289 0.464441 1.64823)
(-0.471488 1.07167 2.4753)
(-0.472348 1.34968 3.66081)
(-0.691612 0.993494 3.23606)
(-0.376865 1.3104 3.30639)
(-0.36578 1.21636 2.86603)
(-0.594033 1.03969 3.08471)
(-0.499345 1.27183 3.02488)
(-0.693088 1.07704 3.49114)
(-0.43347 -0.077823 2.10654)
(-0.755462 0.429286 2.86978)
(-0.5244 -0.52616 2.92579)
(-0.66937 0.376243 2.78677)
(-0.652862 0.0687674 2.36097)
(-0.754467 -0.14036 2.86308)
(-0.392991 -0.026547 2.67539)
(-0.592147 0.1805 3.07479)
(-0.216302 0.858588 2.41297)
(-0.383585 1.29876 3.324)
(-0.560463 0.880042 3.1864)
(-0.365207 1.22849 3.26617)
(-0.23412 1.05555 2.70451)
(-0.489006 0.956992 2.75968)
(-0.404846 1.08334 3.038)
(-0.624935 1.02522 3.30553)
(-0.320021 0.964929 2.01109)
(-0.421848 0.337648 1.73271)
(-0.1394 0.769035 1.96427)
(-0.356163 1.21027 2.78327)
(-0.439742 1.04758 2.23145)
(-0.432842 0.597347 1.79342)
(-0.458 1.02388 2.40976)
(-0.446914 0.776747 2.27989)
(-0.560106 0.77544 2.26612)
(-0.486805 0.996527 2.80699)
(-0.835118 0.561731 2.76172)
(-0.669524 0.21595 2.01114)
(-0.566933 0.790896 2.27395)
(-0.666767 0.903378 2.80308)
(-0.620215 0.509388 2.14826)
(-0.669232 0.665998 2.59185)
(-0.465852 0.393078 1.99463)
(-0.356525 0.815572 2.14057)
(-0.464177 1.2558 2.90159)
(-0.416528 0.57639 2.66169)
(-0.443077 0.404752 2.20458)
(-0.472789 0.811616 2.24904)
(-0.536076 0.611271 2.53959)
(-0.594001 0.86387 2.75739)
(-0.619886 0.318665 2.09255)
(-0.699377 0.503691 3.18641)
(-0.621879 1.0312 3.3278)
(-0.888294 0.620326 3.21316)
(-0.771355 0.252988 2.52526)
(-0.650325 0.449889 2.56429)
(-0.626752 0.649318 2.67195)
(-0.653388 0.85967 3.19829)
(-1.90982 0.143931 3.83477)
(-1.87497 1.58014 3.7721)
(-1.73857 0.44733 2.21928)
(-1.77832 1.55752 3.71631)
(-1.93088 0.57149 3.22431)
(-1.79559 0.697403 2.82886)
(-1.98122 0.426825 3.05911)
(-1.70705 0.807667 2.74918)
(-2.09793 3.20239 4.93451)
(-2.09971 3.826 6.17773)
(-2.09026 3.81654 4.29742)
(-1.46381 3.43471 5.52082)
(-1.94221 3.38189 4.99027)
(-2.21424 3.45668 4.92977)
(-1.89994 3.57119 4.65916)
(-1.99308 4.12186 5.06758)
(-1.58594 1.02803 1.75951)
(-1.54881 2.88788 2.49276)
(-1.17263 0.988949 1.11347)
(-1.71002 2.02609 2.39692)
(-1.53279 1.67479 1.90038)
(-1.78524 2.18795 1.82732)
(-1.37239 1.34676 2.00214)
(-1.31399 1.90706 1.68374)
(-1.68562 2.51895 4.54172)
(-1.44059 3.11514 5.33053)
(-1.70787 2.89833 3.91894)
(-1.54544 2.93455 5.47435)
(-1.64144 2.78479 4.59056)
(-1.92806 2.93785 4.47603)
(-1.59338 2.71766 4.46182)
(-1.79374 3.35682 4.49889)
(-1.75694 1.96768 3.69552)
(-1.60961 1.08012 2.37446)
(-1.70553 1.86926 3.62796)
(-1.60662 2.82271 4.71537)
(-1.88748 1.79773 3.42547)
(-1.82362 1.20531 2.87218)
(-1.6349 2.58831 4.54451)
(-1.96423 2.13189 3.46536)
(-1.94861 2.14007 3.47891)
(-1.88313 2.95699 4.59018)
(-2.13138 3.30781 3.45839)
(-1.7989 1.37072 2.1551)
(-1.84312 2.35419 3.57825)
(-1.79915 2.60797 3.9151)
(-1.9131 2.21452 2.71917)
(-1.89894 2.89388 3.41567)
(-1.64642 1.04284 2.41968)
(-1.72968 1.59225 3.46217)
(-1.57523 2.99138 4.24018)
(-1.68608 2.43287 3.26198)
(-1.96296 1.86909 2.99261)
(-1.85956 2.25703 3.5217)
(-1.7395 2.57689 3.22722)
(-1.72627 2.55874 3.67464)
(-1.5819 1.47692 2.15922)
(-1.74837 3.00655 3.06398)
(-1.64109 3.42148 4.5863)
(-1.79567 3.53892 3.23246)
(-1.68408 1.86264 2.52438)
(-1.90232 2.77839 3.2722)
(-1.61868 2.65069 3.263)
(-1.54043 3.12832 3.85357)
(0.366671 -0.170358 -4.28561)
(0.592122 -0.188939 -9.11459)
(0.838979 -0.321181 -2.64823)
(0.629103 0.310307 -4.03022)
(0.461237 0.151605 -4.22567)
(0.385273 0.562787 -5.16254)
(0.49544 0.20858 -4.26044)
(0.796881 0.400857 -4.99234)
(2.43579 -0.190017 -19.9152)
(4.42205 -3.7077 -53.4705)
(4.24402 -1.08435 -14.5736)
(1.52809 0.0584532 -19.0945)
(0.560116 0.220907 -20.2514)
(2.56882 0.555754 -31.2987)
(0.284464 0.709967 -20.7443)
(3.02279 3.5203 -27.9188)
(2.20641 0.41178 -1.36085)
(4.18034 1.58143 -2.47831)
(-0.395492 2.20215 -3.10789)
(1.52496 -0.653126 -1.17287)
(1.92948 -1.14226 -1.62946)
(3.43068 -0.64732 -1.41944)
(1.70573 -0.580584 -0.372955)
(3.10984 -0.960134 -1.35415)
(1.59092 0.617443 -4.67827)
(-0.306537 3.4939 -8.02938)
(0.67654 0.179308 -6.73916)
(0.887875 2.98108 -4.68311)
(0.999216 1.47151 -6.20454)
(1.78997 2.26159 -7.358)
(0.42585 2.5728 -5.3122)
(1.48214 2.49373 -6.71273)
(1.71162 1.54505 -8.71487)
(1.09285 -0.255879 -3.67976)
(0.657342 0.7218 -4.15462)
(-0.377462 -2.12602 -4.82414)
(0.227676 0.872129 -8.20951)
(0.396651 0.485079 -5.74427)
(0.554306 1.03843 -9.79323)
(-0.436311 0.101839 -8.21681)
(0.548816 0.645251 -12.3998)
(1.19505 1.10103 -16.1297)
(3.14005 1.94883 -4.36191)
(1.31736 0.239126 -2.40497)
(1.24458 1.16089 -9.09175)
(0.12008 0.12137 -15.8413)
(1.85621 -0.584825 -3.30625)
(1.00393 -0.919448 -9.20355)
(1.15496 -0.650398 -2.58777)
(0.657056 0.445578 -4.47432)
(-0.600298 -0.084212 -9.07732)
(0.39858 -0.562643 -4.72612)
(0.936208 -0.513017 -4.17985)
(-0.350475 0.0467477 -7.94039)
(1.15163 0.192967 -5.86672)
(1.55329 -0.150474 -7.83775)
(0.868337 0.10304 -2.46105)
(1.43627 -0.246783 -1.96249)
(0.603505 1.50498 -15.9907)
(3.94927 0.761717 -4.75585)
(2.51566 -1.30002 -1.05354)
(2.50244 0.795252 -2.44535)
(1.01001 -1.39024 -7.76139)
(0.759215 0.135182 -11.3519)
(-11.0855 3.45863 4.06484)
(-7.49056 3.26968 3.5903)
(-7.14551 3.24219 5.93787)
(-7.72497 3.81508 6.05338)
(-11.324 3.72557 4.79908)
(-9.34239 3.44176 4.56705)
(-9.35685 4.01717 5.77816)
(-8.35261 3.87691 5.75836)
(-3.63075 1.37092 2.01367)
(-2.06225 0.443296 1.40559)
(-2.85851 1.88917 3.15371)
(-4.39644 2.49344 5.19245)
(-3.37827 1.15849 2.08109)
(-2.06112 1.05433 1.65582)
(-3.68334 1.78676 3.33258)
(-2.2405 1.49249 2.79148)
(-7.12522 2.48862 6.8898)
(-5.76553 2.77366 5.32271)
(-8.93865 3.32867 8.58738)
(-7.30534 3.01469 8.3293)
(-6.6269 2.13304 6.59801)
(-6.77715 2.63055 6.55842)
(-7.53991 2.79905 7.66455)
(-6.6431 2.49888 7.43625)
(-5.45411 4.20533 5.8478)
(-5.40521 4.14023 7.05164)
(-5.24542 3.54009 7.53081)
(-4.1323 3.98732 5.81751)
(-5.27942 4.16335 6.18825)
(-5.10864 3.97943 6.97925)
(-4.59021 4.0513 5.82667)
(-5.118 3.95938 7.02761)
(-6.91349 3.04925 3.57713)
(-6.53783 3.45127 5.7972)
(-7.07385 3.89628 6.22579)
(-6.20235 3.87678 6.10686)
(-7.43338 3.54201 5.43802)
(-7.65375 3.7053 5.91508)
(-6.51939 3.995 6.29644)
(-6.98159 3.95622 6.67405)
(-5.09456 1.56497 2.44795)
(-5.52504 3.08239 6.34117)
(-3.49524 2.22107 3.77927)
(-5.87519 2.85337 5.50369)
(-5.51974 2.97119 4.84491)
(-4.74854 2.67623 4.79333)
(-4.56015 2.14871 4.79715)
(-4.11594 2.01967 4.69095)
(-6.22032 2.90666 6.49316)
(-6.20065 4.03369 6.09246)
(-6.01748 4.16806 7.27771)
(-5.42909 3.75858 7.34433)
(-5.96767 3.37639 6.85425)
(-6.30578 3.84322 6.75256)
(-5.71105 3.92785 7.25907)
(-5.84745 4.08532 6.80543)
(-5.40741 2.60862 5.70361)
(-4.95013 3.13905 6.9832)
(-4.82962 3.1654 6.46616)
(-3.82794 2.05685 4.62452)
(-5.28123 2.17237 5.96603)
(-4.92245 2.83708 6.55819)
(-4.12151 1.81859 5.42821)
(-4.03504 2.61452 6.28252)
(-1.19899 0.807867 5.17014)
(-1.34964 1.5071 4.78925)
(-1.40559 1.7134 5.12366)
(-1.23709 1.41952 5.0151)
(-0.791197 1.67333 5.11228)
(-1.10856 1.41031 4.79523)
(-1.16641 1.94611 5.55575)
(-1.52962 1.71191 5.07346)
(-1.59718 1.9876 5.15331)
(-1.82538 2.80295 6.18679)
(-1.75068 2.46554 6.42463)
(-1.69032 2.10684 5.61737)
(-1.57722 2.47108 5.4847)
(-1.77803 2.66315 6.03507)
(-1.58023 2.36877 5.56253)
(-1.83777 2.61748 6.2381)
(-1.5252 1.76608 5.60046)
(-1.66085 2.17774 6.42576)
(-1.49112 1.85383 6.41747)
(-1.53935 1.73554 5.94763)
(-1.4836 1.91818 5.77866)
(-1.56753 2.037 6.34469)
(-1.39322 1.76448 5.93561)
(-1.54738 1.90463 6.30467)
(-1.29242 1.43849 4.8414)
(-1.5598 1.66091 5.23176)
(-1.53044 1.58121 5.48994)
(-1.32583 1.51333 4.87638)
(-1.33196 1.57866 4.8522)
(-1.52236 1.68092 5.16575)
(-1.36183 1.41848 4.87857)
(-1.49165 1.53869 5.31303)
(-1.41978 1.87148 4.98874)
(-1.28908 1.95299 5.28854)
(-1.17718 1.63803 4.8383)
(-1.50864 1.91529 5.15376)
(-1.47949 1.84684 5.1321)
(-1.38696 1.80458 5.0262)
(-1.4768 1.57056 4.92443)
(-1.38739 1.58893 4.93084)
(-1.55332 1.93998 5.23961)
(-1.63973 2.07382 5.46068)
(-1.73697 2.31394 6.32606)
(-1.51081 1.80555 5.41712)
(-1.58841 1.93191 5.23808)
(-1.60448 2.23562 5.46741)
(-1.57795 1.81811 5.52058)
(-1.56464 2.17159 5.72828)
(-1.31024 1.92702 5.27607)
(-1.23063 1.66366 5.07905)
(-1.53735 1.79187 5.20574)
(-1.34413 1.63535 5.43019)
(-1.47737 1.54728 5.2214)
(-1.41294 1.61211 5.03048)
(-1.43046 1.68733 5.26461)
(-1.49756 1.73001 5.19622)
(-1.5695 1.80162 5.48608)
(-1.52623 1.74196 5.77154)
(-1.67698 1.98076 5.6631)
(-1.66708 2.31003 6.4)
(-1.50379 2.01668 5.82406)
(-1.57472 1.83062 5.64771)
(-1.52842 2.10181 5.78985)
(-1.58276 1.92443 5.72758)
(-1.54331 2.09333 6.80111)
(-1.4807 1.93959 5.76783)
(-1.45654 2.18393 6.80839)
(-1.70061 2.5439 6.81021)
(-1.59855 2.24645 6.79125)
(-1.38912 2.00552 6.53882)
(-1.63499 2.46811 6.66449)
(-1.38999 2.10392 6.3852)
(-1.1647 1.63624 5.23427)
(-1.1317 1.42312 5.4535)
(-1.26022 1.76572 5.41494)
(-1.19336 1.44633 4.95043)
(-1.20793 1.53601 5.12827)
(-1.24619 1.63933 5.00316)
(-1.20879 1.57524 5.11828)
(-1.28611 1.51515 5.27767)
(-1.2334 2.1414 6.6839)
(-1.31533 2.11187 6.30806)
(-1.15957 1.90748 6.45513)
(-1.28879 2.40261 6.73845)
(-1.28094 2.17773 6.76212)
(-1.26705 2.02259 6.62764)
(-1.25945 2.34771 6.61066)
(-1.21696 2.12304 6.45636)
(-1.82377 2.94065 6.78665)
(-1.58314 2.139 5.33442)
(-1.48971 2.90816 6.82152)
(-1.97331 3.33547 6.50381)
(-1.88213 3.04942 6.49331)
(-1.53154 2.62369 6.32836)
(-1.8387 3.31581 6.67935)
(-1.53719 2.68313 6.27031)
(-1.51587 1.9423 5.50625)
(-1.49412 2.29096 6.82162)
(-1.73857 2.60819 6.79285)
(-1.62144 2.11271 5.35296)
(-1.50909 2.04852 5.71653)
(-1.43848 2.2167 6.36262)
(-1.57681 2.08097 5.63187)
(-1.47232 2.28869 6.31193)
(-1.34062 1.78003 5.44631)
(-1.44218 1.7953 5.26657)
(-1.34576 1.90657 5.84728)
(-1.32286 2.12453 6.67375)
(-1.33905 1.7934 5.45691)
(-1.42413 1.84014 5.4326)
(-1.34434 1.97955 5.91367)
(-1.43351 2.09055 6.02906)
(-1.47982 2.52821 6.73844)
(-1.76233 2.85396 6.64272)
(-1.50568 2.16945 5.46951)
(-1.51546 2.87344 6.88511)
(-1.54288 2.58509 6.88834)
(-1.49235 2.41069 6.42363)
(-1.51468 2.6106 6.75654)
(-1.52169 2.61008 6.25259)
(-1.30529 2.29829 6.52286)
(-1.35509 2.59642 6.70256)
(-1.39598 1.85203 5.38216)
(-1.25317 1.94813 5.79623)
(-1.38709 2.371 6.65825)
(-1.42771 2.38272 6.535)
(-1.312 2.20263 5.9578)
(-1.36506 2.24782 6.06907)
(-1.33106 0.478819 1.28754)
(-1.88247 1.87198 2.15348)
(-1.68129 0.692749 1.50275)
(-1.53691 0.730438 1.52589)
(-1.56851 0.622142 1.27961)
(-1.74178 1.15007 1.56663)
(-1.69262 0.670513 1.48131)
(-1.86788 1.20485 1.47479)
(-2.20236 2.9373 3.80047)
(-1.8964 3.43543 5.5759)
(-1.91957 2.58584 4.14522)
(-2.11309 2.8543 4.63916)
(-2.1419 2.91655 4.37502)
(-1.97542 3.2074 4.82092)
(-2.09573 2.76544 4.07027)
(-2.08913 2.94501 4.65782)
(-1.78031 0.619729 2.04748)
(-1.82558 1.46174 3.14211)
(-1.42424 -0.11633 3.07809)
(-2.17318 0.691587 2.62915)
(-1.97392 0.695234 2.13849)
(-1.87255 0.741725 2.6322)
(-1.65388 0.539355 2.4342)
(-1.80883 0.60874 2.82134)
(-1.81363 1.03865 1.97346)
(-2.09251 2.14875 3.81959)
(-1.90784 1.10692 2.45281)
(-1.92392 1.18225 2.63673)
(-1.85518 1.1351 2.33823)
(-2.10177 1.56379 2.77266)
(-1.93116 1.15917 2.28694)
(-2.18829 1.306 2.86032)
(-2.13315 2.12545 2.65379)
(-1.8093 0.840951 1.72254)
(-1.72107 0.882397 1.79256)
(-2.19779 2.21432 3.41466)
(-2.13214 1.99429 2.71513)
(-2.0723 1.28109 1.8866)
(-2.10296 2.14728 2.81816)
(-1.92936 1.4539 2.06343)
(-2.04779 2.51738 3.31299)
(-2.09153 2.25603 3.84327)
(-1.96509 2.08919 3.41823)
(-1.9331 1.1215 1.99216)
(-2.07717 2.19699 3.27051)
(-2.09058 2.27554 3.39905)
(-1.95484 1.85251 2.8135)
(-1.9719 1.90576 3.0744)
(-1.85313 0.785135 1.78212)
(-1.89897 0.913223 1.81121)
(-2.12937 2.1306 3.24908)
(-1.88607 0.852243 2.26291)
(-1.87899 0.877882 1.9659)
(-2.20859 1.42872 2.19247)
(-1.86733 1.05775 2.08287)
(-2.20068 1.34924 2.29904)
(-2.04353 1.07888 2.04096)
(-2.04075 0.978331 2.76907)
(-2.06033 2.10384 3.68545)
(-2.11508 1.82464 3.46083)
(-2.09239 0.955971 2.2799)
(-2.04937 1.18506 2.66804)
(-2.01947 1.71708 3.12473)
(-1.98764 1.8915 3.45149)
(0.252135 0.132821 -3.54015)
(0.722299 0.436664 -3.40138)
(0.980848 0.106192 -2.08085)
(0.33125 0.225044 -2.93036)
(0.287925 0.203874 -3.21039)
(0.405826 0.233054 -3.55441)
(0.238744 0.411347 -3.23064)
(0.523698 0.290844 -3.26348)
(1.00735 1.38328 -3.18022)
(0.614327 1.60573 -2.92184)
(0.417791 0.970514 -3.57414)
(0.787649 0.913071 -1.82061)
(0.46907 1.47989 -2.34379)
(0.161149 1.42164 -2.57338)
(0.55105 0.624978 -2.69569)
(0.73719 0.126653 -1.34853)
(1.83291 0.130177 -0.281074)
(2.32165 -1.26446 -0.485157)
(-0.412198 2.18551 -1.50758)
(1.24427 0.511788 0.310682)
(2.29037 -0.389849 -0.697487)
(2.08924 0.0706424 -0.229237)
(1.3623 0.344792 -0.025643)
(0.0762771 1.85983 0.429873)
(0.394848 0.0372226 -2.28668)
(0.639755 0.422225 -1.80122)
(0.64102 0.0442445 -1.71292)
(0.390343 0.223307 -1.10358)
(0.459106 0.252664 -2.16263)
(0.543811 0.1887 -2.21621)
(0.435987 0.179536 -2.13061)
(0.647174 0.215976 -2.07534)
(0.756382 0.578305 -3.05941)
(0.894894 0.0816387 -2.09561)
(0.327547 0.33007 -2.80806)
(0.64057 0.635232 -2.2763)
(0.638216 0.401995 -2.92503)
(0.588033 0.247955 -3.19743)
(0.645313 0.489425 -2.50857)
(0.420044 0.349469 -2.79637)
(0.375725 0.76727 -3.48235)
(0.607282 0.558974 -2.27438)
(0.882923 -0.145036 -2.15738)
(0.702793 -0.118433 -1.90067)
(0.673215 0.514724 -2.85802)
(0.660959 0.294272 -2.80155)
(1.31504 0.121361 -1.70341)
(0.962009 0.115161 -1.72537)
(0.578069 0.286187 -1.91033)
(0.449136 0.246621 -2.9668)
(0.655857 0.337489 -2.3179)
(0.501663 0.218948 -2.01185)
(0.68902 0.0702763 -2.17691)
(0.693279 0.260688 -2.73713)
(0.619454 0.0954533 -2.32854)
(0.685144 0.170173 -2.65302)
(0.677758 -0.0641089 -1.61087)
(1.31271 -0.378707 -1.20901)
(0.681385 0.440227 -2.25564)
(0.66211 -0.581608 -1.60578)
(0.953532 -0.601996 -1.59798)
(1.09582 0.145385 -1.50673)
(1.19284 -0.459781 -1.42034)
(1.16625 0.155589 -2.12485)
(-1.37634 0.579535 1.20098)
(-1.28744 0.590005 1.29865)
(-1.61234 0.74301 1.47496)
(-1.97829 2.08013 2.17279)
(-1.65524 1.0538 1.28134)
(-1.08436 0.465244 1.2823)
(-1.7229 0.876271 1.3494)
(-1.47386 0.576117 1.32248)
(-1.17144 0.856834 1.31389)
(-1.03401 0.859643 1.28591)
(-1.57971 1.05528 1.65536)
(-1.76548 2.75803 2.35229)
(-1.38864 1.39485 1.34691)
(-0.978858 0.754413 1.29381)
(-1.53676 1.29802 1.52785)
(-1.4192 1.13063 1.42732)
(-1.71364 0.414292 1.91015)
(-1.74721 0.557324 2.1388)
(-1.67593 -0.431049 2.9878)
(-2.01793 0.883669 2.70618)
(-1.91834 0.819286 2.28408)
(-1.65599 0.365229 2.07526)
(-1.92462 0.530315 2.41343)
(-1.75971 0.298989 2.50679)
(-2.14917 3.18984 3.67904)
(-2.10282 3.65181 4.01598)
(-2.16515 2.44091 3.88666)
(-2.12275 3.57599 4.91016)
(-2.33927 3.65183 4.72407)
(-2.13714 3.2401 3.91579)
(-2.28124 3.33004 4.55548)
(-1.79163 3.07079 4.0521)
(-1.59879 1.21377 1.44626)
(-1.9305 1.13453 1.67363)
(-2.29105 2.95427 3.20515)
(-2.08932 3.10611 3.22283)
(-1.64008 1.07981 1.42695)
(-1.83381 1.11058 1.45181)
(-1.93817 2.52639 2.52902)
(-1.91427 2.31697 2.36146)
(-1.06926 0.72151 1.31739)
(-1.78327 2.58358 2.3519)
(-1.55553 0.935176 1.58755)
(-1.6343 0.840922 1.55342)
(-1.50465 0.867082 1.33799)
(-1.72916 1.35881 1.54939)
(-1.72297 0.94778 1.59941)
(-1.76818 1.28623 1.72112)
(-2.00794 0.924892 1.74915)
(-2.11808 2.49901 3.08744)
(-1.9713 2.8543 3.17113)
(-2.11484 1.97635 3.25809)
(-1.97977 1.6182 2.31375)
(-1.8396 2.31673 2.66345)
(-2.10507 2.28256 3.43248)
(-1.98012 2.55038 3.27302)
(-1.83291 0.774266 1.73835)
(-1.897 1.86821 2.68736)
(-1.6817 2.3726 2.51987)
(-1.70507 0.865186 1.8401)
(-1.93069 1.04969 1.85181)
(-2.00956 1.86862 2.52958)
(-1.81154 1.09079 1.77031)
(-1.92801 2.09897 2.65134)
(-0.365826 0.138702 0.969056)
(-0.668009 0.138823 1.28197)
(-0.188479 0.195213 0.987275)
(-0.676932 0.499673 1.51672)
(-0.650135 0.265237 1.27689)
(-0.572817 0.258348 1.21784)
(-0.573426 0.227542 1.31475)
(-0.606536 0.208988 1.37414)
(-0.716577 -0.033582 1.78177)
(-0.660816 -0.676034 2.76714)
(-0.516059 -0.0108159 1.83678)
(-0.798483 0.108706 2.64576)
(-0.62096 -0.119123 2.12778)
(-0.553427 -0.206218 2.49229)
(-0.821212 -0.0540424 2.2587)
(-0.71894 -0.0676124 2.51156)
(-0.13009 0.198384 0.99063)
(-0.3491 0.225292 1.26452)
(-0.13912 0.248589 1.03851)
(-0.339633 0.740393 1.55165)
(-0.283629 0.339614 1.23547)
(-0.288091 0.249338 1.19395)
(-0.233662 0.334149 1.35367)
(-0.355906 0.219122 1.31269)
(-0.726345 0.94625 2.27124)
(-0.815932 0.823717 2.76852)
(-0.511356 1.10672 2.32336)
(-0.589627 1.34646 3.16897)
(-0.767114 0.975225 2.63189)
(-0.79365 0.921904 2.69778)
(-0.54505 1.01534 2.76201)
(-0.771092 0.918249 2.8848)
(-0.739992 0.218639 1.58502)
(-0.434434 0.278105 1.24707)
(-0.799284 0.589459 1.85435)
(-0.892403 0.504078 2.32185)
(-0.81187 0.167037 1.76301)
(-0.772979 0.270014 1.43333)
(-0.903067 0.459696 2.00089)
(-0.807585 0.490771 1.8068)
(-0.614524 0.146919 1.55523)
(-0.833378 0.411199 2.25963)
(-0.528575 0.110163 1.70288)
(-0.443551 0.255652 1.25426)
(-0.763043 0.0666168 1.78213)
(-0.808092 0.167863 1.85932)
(-0.439623 0.192551 1.29724)
(-0.543492 0.205843 1.58887)
(-0.371538 0.274885 1.33749)
(-0.731646 0.590263 1.90998)
(-0.823865 0.559268 2.48248)
(-0.460995 0.730839 1.95646)
(-0.487919 0.592828 1.48047)
(-0.783248 0.631544 2.05424)
(-0.542439 0.642322 1.86301)
(-0.817804 0.576513 2.19175)
(-0.44626 0.287481 1.40867)
(-0.595315 0.591129 1.84642)
(-0.957296 0.371985 2.62704)
(-0.6101 0.0770559 1.65146)
(-0.510883 0.318341 1.43295)
(-0.59258 0.618954 1.82883)
(-0.613739 0.254348 1.61682)
(-0.66867 0.433094 2.09181)
(-0.566977 -0.80012 3.18491)
(-1.031 0.519365 2.818)
(-0.747935 -0.0538469 2.13017)
(-1.33296 0.514075 2.77578)
(-1.11001 0.299591 2.7674)
(-0.83082 0.0588555 2.67383)
(-1.0341 0.0627038 2.36347)
(-0.835456 0.0495224 2.21607)
(-0.978982 0.907711 3.2986)
(-0.700823 1.18606 3.61053)
(-0.937515 0.851926 2.60785)
(-1.16431 1.06493 3.37557)
(-0.885621 0.954953 3.28254)
(-0.935553 1.13895 3.05949)
(-1.00042 0.787939 2.9669)
(-0.954419 0.970227 2.81767)
(-0.849139 0.0720259 1.6028)
(-0.945409 0.520719 1.73904)
(-0.610621 0.142359 1.20399)
(-1.03245 0.466987 1.59025)
(-0.880113 0.307007 1.53875)
(-1.01612 0.43275 1.48084)
(-0.90688 0.177088 1.42771)
(-0.779252 0.336543 1.29561)
(-1.64945 0.731042 2.74748)
(-1.59934 1.21106 3.08145)
(-1.43976 0.733905 2.0349)
(-1.6605 0.904292 2.78215)
(-1.4974 0.858667 2.61937)
(-1.4907 0.954012 2.58885)
(-1.57757 0.675043 2.30849)
(-1.4674 0.88272 2.3452)
(-1.14179 0.690204 2.91717)
(-1.00972 0.217338 2.05915)
(-1.36188 0.492979 2.80721)
(-1.35853 0.96788 3.04268)
(-1.16771 0.46823 2.69626)
(-1.08529 0.210314 2.322)
(-1.32699 0.92289 3.00263)
(-1.15431 0.623536 2.50519)
(-1.04129 0.815213 2.71515)
(-1.40562 1.19325 2.94335)
(-1.05494 0.838184 2.19681)
(-1.07811 0.355987 1.99788)
(-1.09278 0.645016 2.49885)
(-1.10609 0.800052 2.6076)
(-1.07338 0.517691 2.3406)
(-1.03331 0.672583 2.27505)
(-1.06944 0.0563615 1.79005)
(-1.42613 0.310623 2.33585)
(-1.3747 0.817845 2.65859)
(-1.2205 0.377766 1.76755)
(-1.09393 0.259359 1.95223)
(-1.25609 0.373519 2.26526)
(-1.22957 0.556376 1.96606)
(-1.29272 0.613465 2.28597)
(-0.930956 0.261077 1.71811)
(-1.17964 0.621046 1.67524)
(-1.34211 1.03553 2.57484)
(-1.09042 0.690006 1.98257)
(-1.15378 0.374017 1.77919)
(-1.32675 0.728329 2.03956)
(-1.1611 0.576495 2.25513)
(-1.13709 0.91467 2.33926)
(-11.9358 14.7648 -26.7328)
(-2.50333 -2.22655 -16.0567)
(-7.63942 4.97429 -16.3595)
(1.22394 0.781524 -29.5587)
(-2.25316 4.11989 -24.7629)
(-5.70405 -3.45415 -6.74834)
(-4.12391 6.14921 -28.8107)
(-4.55205 0.470195 -6.18916)
(-1.55666 -0.24226 -13.4488)
(-1.3699 0.547518 -10.2884)
(0.0156796 0.716871 -8.00059)
(-0.747113 0.678777 -13.7971)
(-1.30746 0.818203 -13.0406)
(-1.3289 -0.300393 -8.49801)
(-1.35458 0.492604 -13.7435)
(-1.51171 -0.0421892 -8.49141)
(-5.48235 1.97534 -13.9853)
(-4.91236 1.08874 -5.7185)
(-7.72409 2.66512 -8.36179)
(-7.08063 -2.16027 -12.725)
(-5.97903 0.731964 -12.5572)
(-6.52367 2.99997 -10.9809)
(-6.74323 0.145756 -12.9563)
(-6.65874 1.83592 -9.50716)
(3.04614 -0.0666919 -48.5224)
(-0.347752 -0.893344 -24.1906)
(-6.74276 -1.40038 -22.2931)
(2.02112 -2.43473 -59.3589)
(-0.0944762 1.38936 -51.9234)
(2.28311 2.34434 -16.7571)
(0.824756 -1.12058 -56.3981)
(2.98885 -5.21066 -32.0882)
(-2.35846 -2.72287 -17.6232)
(-3.42278 2.48018 -16.6496)
(2.4234 0.738202 -34.4732)
(-0.558311 0.942331 -17.5624)
(-2.29334 -2.04825 -19.213)
(-1.16765 -1.60394 -6.66216)
(-0.789217 -0.17003 -18.7802)
(0.147047 -0.365295 1.24012)
(-2.51307 -2.34442 -4.91297)
(0.42158 3.47736 -1.21051)
(1.68596 0.673112 -4.993)
(-5.26936 -0.0512506 -12.9543)
(-1.90471 0.658635 -2.88706)
(-0.977537 0.331949 -1.30592)
(-1.11705 2.38782 -5.0714)
(0.0850029 1.20982 -1.37324)
(-5.1446 1.84241 -19.2216)
(3.22107 0.775399 -42.2752)
(-0.419198 -0.437224 -21.1709)
(-4.29808 -0.598624 -19.5322)
(-3.86045 0.470618 -18.6649)
(-1.81941 1.51822 -13.0979)
(-4.56503 0.0986732 -20.5046)
(1.56783 1.60079 -18.326)
(-4.66001 -0.62082 -12.7568)
(0.733936 -4.32411 -15.2103)
(1.38953 -2.29131 -3.67388)
(0.833503 -2.35808 -2.67774)
(-2.51746 -2.5337 -13.0836)
(-0.559966 -2.16982 -14.3423)
(-2.01283 -4.13467 -2.8028)
(1.01829 -2.37724 -1.80897)
(-13.6163 4.35829 4.46423)
(-7.53189 4.51103 6.02605)
(-8.55828 3.98506 6.34498)
(-10.7804 5.02009 4.23076)
(-10.5731 5.47878 5.45685)
(-8.90963 3.88236 5.51578)
(-10.4142 4.1736 4.52454)
(-8.30198 3.52605 5.53984)
(-5.48555 4.19794 5.83432)
(-4.18552 3.68618 5.23143)
(-5.24285 3.5906 7.48655)
(-4.22453 3.71347 3.03551)
(-4.80824 4.45786 4.79515)
(-4.61574 3.49313 5.26237)
(-5.08171 3.69255 4.50158)
(-4.7897 3.23064 5.41056)
(-7.08363 2.48557 7.15958)
(-7.62842 3.21767 8.70474)
(-8.48183 3.9409 8.53906)
(-8.27621 3.33393 9.12673)
(-7.23868 3.18643 7.55455)
(-8.15163 2.84547 8.65969)
(-8.69399 3.10107 8.50032)
(-9.16131 2.8211 9.42615)
(-6.20933 4.43857 1.80447)
(-3.57205 2.91722 1.47149)
(-6.70321 4.16523 4.74563)
(-3.18893 3.57637 0.639155)
(-4.67345 3.96325 2.2526)
(-4.80258 3.6377 2.54653)
(-5.48082 4.25878 2.21528)
(-5.64314 3.91145 3.34851)
(-6.46226 4.89344 5.4079)
(-7.42631 4.15821 6.88039)
(-6.77093 4.56534 3.95403)
(-4.54587 2.94682 2.15663)
(-6.66459 3.91197 4.92344)
(-6.78492 3.97833 5.75417)
(-6.67802 4.12618 4.47353)
(-6.98107 3.79195 4.62584)
(-6.00416 4.14731 5.44032)
(-4.77705 3.01452 3.82347)
(-5.60106 3.30543 7.13354)
(-6.76581 3.36232 6.63946)
(-6.14923 3.46872 5.64343)
(-5.68912 3.99472 5.44922)
(-6.48861 4.08236 7.05495)
(-5.84567 4.1679 7.13303)
(-7.9541 3.08868 6.61658)
(-8.08338 4.19601 3.65552)
(-5.55444 3.7249 3.01278)
(-7.68713 3.6046 6.33628)
(-7.84371 3.34622 6.72395)
(-7.61815 3.47936 5.31144)
(-7.18667 4.2959 6.54955)
(-6.71145 4.52605 4.36468)
(-7.02387 2.345 6.79069)
(-7.12262 2.53377 6.59508)
(-5.79549 4.51347 5.61852)
(-5.94065 2.69476 7.18799)
(-6.56707 2.85142 6.85095)
(-6.73759 3.28174 6.62673)
(-6.42449 3.55408 6.84972)
(-6.2665 4.18367 6.74284)
(-3.5411 1.32614 6.59674)
(-4.0524 1.28514 5.81559)
(-3.12889 1.03188 6.48918)
(-3.30122 1.74312 6.89353)
(-3.81864 1.39741 6.7127)
(-3.79367 1.44078 6.2414)
(-3.47124 1.44805 6.84698)
(-3.46226 1.24751 6.87578)
(-3.96447 2.54477 6.21902)
(-3.8751 4.28262 6.30716)
(-4.54282 3.04189 7.01335)
(-3.61507 3.53529 7.54762)
(-3.51682 3.03721 6.78425)
(-3.67307 3.3854 6.0472)
(-4.11526 3.07063 7.37568)
(-4.07335 2.97534 7.18934)
(-3.99854 0.842285 6.83843)
(-5.29252 1.84612 7.60487)
(-5.6466 0.774055 7.54466)
(-5.17932 1.58471 7.74789)
(-4.6405 1.01693 7.48398)
(-4.72121 1.3008 7.3183)
(-5.08542 0.939536 7.65794)
(-5.34915 0.813635 8.01393)
(-3.21107 1.86495 6.7987)
(-3.39491 2.7696 7.02578)
(-4.23087 2.05719 6.96886)
(-3.5551 2.24979 6.50155)
(-3.15087 2.01609 6.75413)
(-3.54699 2.34599 7.01872)
(-3.56767 1.98913 6.88688)
(-3.88828 2.1279 6.87053)
(-3.58082 2.12707 6.68979)
(-3.67264 1.26274 6.9651)
(-3.46709 1.81938 7.08486)