/*--------------------------------*- C++ -*----------------------------------*\
| =========                 |                                                 |
| \\      /  F ield         | OpenFOAM: The Open Source CFD Toolbox           |
|  \\    /   O peration     | Version:  2506                                  |
|   \\  /    A nd           | Website:  www.openfoam.com                      |
|    \\/     M anipulation  |                                                 |
\*---------------------------------------------------------------------------*/
FoamFile
{
    version     2.0;
    format      ascii;
    arch        "LSB;label=32;scalar=64";
    class       volScalarField;
    location    "300";
    object      p;
}
// * * * * * * * * * * * * * * * * * * * * * * * * * * * * * * * * * * * * * //

dimensions      [0 2 -2 0 0 0 0];

internalField   nonuniform List<scalar> 
42368
(
0.262905
0.314121
0.263042
0.311761
0.265004
0.252923
0.257046
0.272949
0.369066
-6.40593
-0.957776
-0.4888
1.91688
-0.728301
-0.525417
0.182425
-0.271893
-0.485432
-0.0621068
-0.124752
0.737268
-0.310478
-0.119667
-0.0929592
0.0890551
-1.37859
-1.03152
0.688637
2.72243
0.736348
1.26885
-1.20737
0.470777
0.484288
0.33032
2.6292
0.112063
0.421195
-0.0676827
0.0177812
0.0556896
0.465425
-1.06493
0.179655
-0.127428
0.594231
0.022794
-0.267156
0.00210534
0.114084
0.235698
0.805584
-0.230432
-0.207367
0.0973698
1.37955
-0.266763
0.311853
-1.22567
0.611156
0.340841
0.269849
-0.21762
-0.151561
0.575188
0.0511609
0.891937
0.222591
0.676709
0.624556
0.668796
0.841062
-0.822744
-1.24153
0.259385
-1.04318
1.58695
-0.409146
0.11747
-0.0096361
-0.319416
0.877935
-0.737614
-0.545166
1.06635
-0.525417
0.0157931
0.255675
0.42884
-0.115804
-0.0964715
0.102735
0.125785
-0.15978
0.251729
0.126795
0.940644
0.876075
0.103684
0.111794
0.936142
0.547055
0.0155006
0.662157
-0.48411
-0.51599
-0.0207623
0.353204
0.529431
0.622295
-0.220934
0.650143
0.465271
-0.318648
0.33952
0.706722
0.222265
-0.130082
0.353821
0.594279
0.610548
0.461744
0.358258
0.0458397
1.15612
-0.996576
1.04306
-1.08356
-1.8063
-1.09878
-2.23642
0.342383
-2.51405
-0.632885
-1.47874
-1.60295
-0.617763
-0.480371
-0.361315
-0.261666
-0.890932
-0.210495
-0.76718
-0.705499
-1.83891
-0.556544
-0.513451
-0.0614369
-0.363463
-0.190375
-0.0878049
-0.0451104
0.290501
0.305617
0.387309
0.277614
0.295902
0.335229
0.310438
0.343603
-1.44355
-0.755734
0.271454
0.211778
-1.29145
-1.10918
0.117616
0.00104319
-0.379699
-0.279361
-0.595474
-1.42991
-1.2151
-0.858449
-1.63934
-0.411874
-0.756744
0.154286
0.231328
0.23485
-0.106635
0.0622571
0.449236
0.290469
-0.797193
0.351898
-0.0462821
-0.538006
0.511655
0.0465705
0.849318
-0.175207
0.349155
0.357676
0.348498
0.326214
0.345909
0.35138
0.353125
0.33207
0.413657
0.472115
0.598478
0.386518
0.415815
0.471579
0.422498
0.467283
0.378297
0.86324
1.17648
0.317392
0.483906
0.486403
0.384192
0.546301
0.240075
0.243286
0.211455
0.140619
0.212607
0.229009
0.205185
0.178397
0.347507
0.359587
0.309441
0.351195
0.336962
0.340451
0.34633
0.348478
0.367451
0.38435
0.617016
0.394778
0.344168
0.386435
0.387998
0.450567
0.391783
0.296736
0.328113
0.311732
0.32591
0.305546
0.301669
0.294122
0.417334
0.337237
0.340766
0.709835
0.40084
0.344122
0.471195
0.294789
0.291309
0.744673
0.568064
-0.919912
-0.66745
1.16327
-2.5517
-0.602477
-0.415843
-0.411578
-1.70905
-0.67329
-2.26874
-0.382617
-3.99876
-1.13058
1.25416
-1.59515
-1.29712
-0.0912468
-1.56582
-1.52467
0.407377
-0.113929
0.0727018
-0.0269516
-0.124328
0.226353
-0.00439585
-0.348733
0.346669
0.217787
-2.60038
-1.72618
-0.442098
0.289548
-2.79591
-2.67153
-1.13947
-1.0021
-0.0727946
-0.289273
-1.2834
0.224502
-1.4843
-4.04979
-0.337717
-1.68708
-0.769249
0.716541
0.412268
0.170767
0.0251679
0.0496339
-0.074113
0.0985131
-0.762861
-0.138024
0.0722637
-2.71088
-3.00446
-0.0206554
-2.8221
-0.616131
0.269408
0.221171
0.274322
0.256058
0.26576
0.248067
0.242076
0.214584
-0.0631464
0.0295645
0.0322547
0.236462
0.130583
-0.0837681
0.126957
0.0317806
0.28218
0.429578
0.234914
0.379254
0.265738
0.231458
0.167802
0.0393759
0.17454
0.716976
0.194924
1.22561
0.550844
0.635135
0.782656
1.01571
0.308807
0.266659
0.367949
0.801256
0.299533
0.311658
0.192189
0.263907
0.30502
0.110318
0.10827
0.126954
0.198925
-0.0414003
0.149374
0.131721
0.190608
0.280208
0.422906
0.015629
0.239792
0.175213
0.122358
0.320716
0.0639679
0.0865625
-0.068827
0.0334264
0.189792
0.141191
0.111716
0.0681409
-26.0816
-2.05381
-1.77108
-5.16617
-5.28195
-0.332773
-4.60407
-4.22166
-0.775245
0.0953708
0.109091
0.0721962
-0.0680348
0.711374
0.265865
0.183585
-0.0350135
-0.858188
-0.209141
-0.780882
-0.859274
-1.36805
-0.883079
-0.967246
-11.4525
-0.407037
-0.446473
-2.98938
-4.25075
6.53663
1.04179
-0.0473853
-0.67925
-3.23346
-2.85856
0.147723
-0.1169
3.69087
0.65091
4.48967
-0.608451
0.871551
-0.131992
-1.95629
-1.35021
0.719554
-1.62219
-0.476325
-1.16513
-4.02925
-0.603975
-0.906205
-5.01151
-1.46432
-0.858694
4.05674
-1.201
-1.48302
-0.465039
-0.859711
-1.86784
-1.85539
-1.40061
-1.30488
0.848583
0.650015
0.376096
0.33934
1.52279
0.810064
-0.130616
-0.285425
0.838496
0.806047
0.469333
0.547185
0.704417
0.846278
0.371788
0.38424
0.41727
0.545918
0.367199
0.347896
0.411239
0.423951
0.368837
0.393416
0.232937
0.241485
0.250992
0.118174
0.266231
0.274998
0.194176
0.231735
0.752011
0.49179
1.20646
0.644541
0.162995
-0.131544
0.587182
1.47423
0.778805
0.731025
0.542471
0.532459
0.135545
0.416744
0.55629
0.198916
0.401462
0.294292
0.276395
0.289895
0.323951
0.274541
0.313383
0.116431
0.43825
0.315614
0.305769
0.345057
0.392716
0.364849
0.354388
0.330997
-0.494834
-0.179419
0.163498
-0.894078
-0.276876
-0.248406
-0.0319407
-0.160051
-0.512973
-0.447917
-0.7281
-0.713595
-0.531141
-0.179812
-0.336961
-0.0930064
0.104923
0.0226336
0.0306764
0.310962
0.0930617
0.102591
0.112738
0.0125064
-5.54192
-1.08561
-1.00213
-6.71463
-5.47242
-3.91191
-3.13885
-2.96256
0.117766
-0.0219027
-0.796426
-1.15696
-0.206733
-0.175338
-0.356282
-0.689012
-0.379189
-0.934715
-0.138907
-0.179546
-0.618001
-0.327162
-0.646255
0.126274
-0.0330269
-0.501768
-0.868689
-0.117648
0.10061
-1.05738
-0.54846
-0.593414
-0.423587
0.380939
-1.26295
-0.147483
-0.585829
0.512819
-0.483069
0.571163
0.0545697
0.23829
0.114408
0.110012
0.135787
0.163606
0.109697
0.146901
0.357272
0.517584
0.692795
0.46731
0.338049
0.489603
0.293888
0.463972
0.170977
0.884375
0.454683
0.673062
0.00802474
0.0997471
-0.421699
-0.202001
0.166387
0.185073
0.198985
0.143499
0.187898
0.195659
0.126077
0.152967
0.282775
0.244014
0.103467
0.204582
0.305683
0.288804
0.312186
0.28404
0.248417
0.357737
0.587154
0.29974
0.27866
0.154863
0.170293
0.0817515
0.179107
0.11931
0.192341
-0.0703613
0.331537
0.224912
0.189507
0.155804
0.300416
0.288427
0.360893
0.475673
-0.0653818
0.28267
0.145856
0.472682
-0.234299
-0.58001
-0.460139
-2.09187
0.0821519
-0.077097
-0.0625016
-0.564662
-0.371515
-0.0143455
0.566322
0.408952
-0.104871
0.0425854
0.0290683
0.0775732
0.447899
0.130617
0.40103
0.645747
-0.200097
0.112166
0.56899
0.687189
-0.652234
0.242663
-2.11189
-0.966491
0.267861
0.181856
-0.578515
-1.52932
-0.715198
-0.454171
-0.593738
0.0301026
-0.499026
-0.651663
-0.171923
-0.0745254
-0.146246
0.0446511
-0.533559
0.0169245
-0.633172
-0.0530934
-0.546407
-0.258219
0.218032
-0.393355
0.264684
0.586938
-0.461539
-0.571399
-0.496848
-0.504877
0.200636
0.435889
0.32852
0.197393
0.213749
0.0143811
-0.0110651
0.197218
-0.330161
-0.117954
0.512561
0.0919505
-0.00624874
-0.0600067
-0.281901
-0.192867
0.427336
0.230567
0.321936
0.24408
0.194337
0.155732
0.06602
0.150856
-0.111476
0.747869
0.344696
0.396955
0.058769
-0.0454416
0.414017
0.147752
0.254492
0.266407
0.290824
0.272834
0.247402
0.232933
0.289271
0.273241
0.096683
-0.0255617
0.266541
0.16802
0.0161433
-0.228066
0.156389
0.140181
0.209968
0.11146
-0.113302
-0.165503
0.0919432
-0.180982
0.455791
0.0951232
0.364157
0.36937
0.254024
0.388711
0.305569
0.283671
0.287921
0.249811
0.123633
0.327157
0.211181
0.228518
0.236318
0.240088
0.551957
0.292639
0.661275
0.694301
0.539969
0.718786
0.752225
0.671692
0.652577
0.545287
0.785864
1.1164
0.00414068
0.511986
1.79809
0.974335
1.35141
0.371265
0.403234
0.0718398
0.300699
0.353432
0.429691
0.275507
0.435559
0.153872
0.823501
-0.060765
-0.571223
0.306736
1.20237
1.561
1.79921
1.09647
1.12193
0.668087
0.873314
2.60886
0.817899
0.564013
1.12812
0.75218
0.742392
1.04318
0.135961
0.622819
0.358179
1.19835
0.458019
0.312076
0.57509
0.771818
2.10782
0.29667
0.383822
0.482336
0.0206375
1.9384
0.467983
0.232098
0.12951
0.0389571
-0.0187613
-0.0885437
0.32212
-0.237317
0.264016
0.243235
0.239513
0.26741
0.234259
0.241795
0.246782
0.247103
0.22783
0.174588
0.153678
0.303365
0.120496
0.147918
0.212709
0.14895
0.224148
0.0476737
-0.0148534
0.145712
0.182123
0.111645
0.212651
0.042187
0.337601
0.105754
0.3654
1.3237
0.398925
0.356174
0.0526751
0.0973705
0.217786
0.265068
0.316926
0.115449
0.234524
0.248242
0.233792
0.276295
0.217648
0.228039
0.110458
0.220359
0.247363
0.214209
0.205418
0.171316
0.284732
0.314274
0.288773
0.370667
0.272205
0.35723
0.147719
0.292573
0.235138
-0.138726
-0.146578
0.10314
0.26353
0.111738
0.219423
0.144036
0.107827
0.0655515
0.12678
0.269431
0.0959795
0.138228
0.143886
0.205742
0.175921
0.11861
0.210985
0.300825
0.122356
-0.0860727
0.249583
0.284119
0.413582
0.4426
0.588139
0.540218
0.388028
0.285391
0.668819
0.34372
0.262274
0.285164
0.319016
0.273795
0.27253
0.288478
0.276746
0.311303
0.133757
0.151488
0.238848
0.256551
0.206684
0.201438
0.22978
0.252082
0.236653
0.333378
0.299729
0.243106
0.203801
0.300515
0.276132
0.282897
0.279086
0.225697
0.29549
0.380083
0.32727
0.263198
0.348465
0.291625
0.291392
0.36074
0.307497
0.362044
0.281803
0.384333
0.290111
0.351331
0.480909
0.201085
0.0799605
0.221207
0.212537
0.242688
0.203763
0.191953
0.0400631
-0.0326363
-0.00648404
0.00861402
0.281317
0.153832
0.115938
0.00842144
-0.739778
-0.167453
-0.604972
-0.898363
-1.07471
-0.422203
-0.274466
-0.570243
-0.17244
-0.48163
-1.7586
-1.89521
-1.85797
-0.744608
-1.52434
-2.11561
0.248886
-0.16263
0.17153
-0.371701
0.145681
0.0610333
0.0904552
-0.152107
0.245159
-0.245827
-0.044758
-0.28463
-0.179669
-0.225836
-0.309788
-0.0605851
-0.631661
0.267855
-0.412613
-1.06882
-0.366511
-0.210425
-0.68611
0.00295573
-0.325733
-1.30627
-0.0803209
-0.0136426
-0.866262
-1.03721
-0.166211
-0.210218
0.108575
0.148457
0.364292
-0.629577
-0.424855
-0.0344527
0.497597
0.269374
0.360616
0.856969
1.09253
1.83889
1.50667
1.91461
2.41406
2.84639
0.457498
0.634396
0.5458
0.621817
0.493074
0.557759
0.543806
0.593789
-0.533533
0.36361
0.384156
2.83146
1.31347
1.70937
1.34076
2.78222
0.677244
0.0930645
-0.519055
2.3714
-0.0857352
-0.941301
-0.916099
-1.02682
-0.0189399
2.10471
0.699823
0.3199
0.237862
1.29275
0.464096
0.483199
0.301523
0.203568
2.66625
0.443708
0.425933
0.19944
0.24137
1.2197
0.423057
0.693145
2.77449
1.06601
0.731712
0.583879
0.788645
0.815018
0.53471
-0.746125
0.27127
0.310746
1.76072
1.34458
0.473954
0.53876
-0.124476
0.481362
0.30552
0.252051
2.19355
1.86729
0.248192
0.12737
0.375679
0.391476
0.364026
0.348847
0.346317
0.351779
0.34636
0.366553
0.159337
0.243178
0.261947
0.161773
0.0915181
0.442204
0.149906
0.247412
2.2423
0.380389
-0.0719447
0.173225
0.547087
0.131327
0.0980795
0.298687
0.965354
0.278902
0.377875
0.275153
0.434844
-0.246167
0.205984
0.249126
0.357409
0.244685
0.215638
0.281826
0.338372
0.229709
0.275052
0.272279
0.356138
0.316001
0.269526
0.360918
0.423091
0.3261
0.337869
0.363555
-0.377143
-0.500787
-0.87365
0.808712
-0.332618
-0.555055
0.0979729
-0.313584
-1.12209
1.09545
0.0200814
0.409198
-3.12048
-0.0274644
-0.627477
-1.11265
-3.20095
-1.76385
-2.92559
-0.22082
-1.70746
-2.56258
-0.479361
-1.92903
0.423066
0.701959
0.126287
0.259456
-0.256086
0.513233
-0.164619
0.382639
-0.567557
-0.550745
0.0496029
-0.566898
-0.419824
-0.453369
0.243901
0.492675
-0.40676
0.278309
-0.950626
-1.08736
-0.816343
0.167835
-0.625433
-0.769735
-0.270276
0.076934
-0.467966
-0.177393
0.130735
0.402539
-0.0564268
-0.162371
-0.573656
0.159383
0.42682
-0.144585
-0.822464
-0.168538
-0.173467
-0.31423
-1.82405
-1.91008
-2.50917
0.037747
-1.11012
-1.89309
0.673739
-1.10131
-2.06106
-2.09247
-1.6321
-0.349057
-1.33874
-2.15059
0.683812
-0.880926
-2.63568
-2.5769
-8.96105
0.0473388
-0.956373
-4.46453
3.21716
-0.0607388
0.553432
0.380536
0.416358
0.400175
0.3961
0.398966
0.37514
0.416869
-1.20624
-1.2217
0.102937
0.169674
0.718277
0.284183
-0.111767
-0.485447
-1.84315
-0.425914
-1.96326
-2.78982
-1.07023
0.257749
-2.17905
-0.837977
1.94819
1.02315
0.221605
0.587703
0.397205
-0.0211294
0.328358
0.416717
-0.921938
0.111093
0.215436
-0.484679
0.6247
-0.328094
-0.127227
-0.0561263
0.182212
0.0324094
0.116857
0.187897
0.161813
0.124723
0.140618
0.0777574
-0.223446
-1.93977
-1.64931
-0.147147
-1.06132
-0.863284
-0.944746
-0.884157
-0.194874
-1.34805
-1.08227
-0.00645199
-0.578487
-0.822447
-0.784318
-0.819556
0.284619
0.358733
0.361926
0.396151
0.363676
0.342308
0.43884
0.395136
-0.0707067
-0.0648705
0.231042
0.185658
-0.110945
-0.0350087
0.0765112
0.0964313
-0.0639651
-0.0175561
-0.919811
0.117966
-0.0398226
-0.582849
-0.244896
-0.913228
-0.0606494
0.259087
0.229508
0.314921
0.180324
0.258341
0.191341
0.235319
-0.0511695
0.376403
0.257497
-0.983193
-0.418034
0.0642347
-0.784211
0.0275767
1.52105
0.88668
0.514262
0.522639
0.609145
0.724019
0.235645
0.453987
0.439739
0.594349
0.471557
0.482946
0.508168
0.488957
0.46497
0.485379
0.562793
0.459115
0.375818
0.317296
0.475661
0.46622
0.389233
0.389833
0.270256
0.27134
0.258005
0.132674
0.261473
0.256845
0.191272
0.221272
0.510914
0.655842
0.279546
0.451737
0.536687
0.639052
0.476388
0.453559
0.50051
0.468009
0.464353
0.360237
0.42348
0.40671
0.242905
0.475686
0.396477
0.253782
0.37672
0.297005
0.364666
0.323428
0.382104
0.370543
0.495318
0.300959
0.406664
0.539396
0.457919
0.31171
0.507842
0.350447
0.291925
0.298992
0.303556
0.347491
0.284091
0.309878
0.286119
0.313939
0.448925
0.0619999
-0.173652
0.50801
0.3279
0.278652
0.309103
0.304165
0.543815
0.557196
0.525346
0.498467
0.416593
0.312981
0.694733
0.620347
0.380669
0.424591
0.391686
0.478204
0.465529
0.399644
0.461451
0.408657
0.313871
0.409326
0.399105
0.449507
0.352046
0.3865
0.421351
0.408919
0.358996
0.406769
0.273545
0.431972
0.445882
0.366118
0.519134
0.350698
0.443837
0.303616
0.412603
0.395478
0.253922
0.299676
0.444488
0.418917
0.53543
0.477421
0.593013
0.41839
0.519882
0.519912
0.315836
0.516253
0.334019
0.649323
0.239463
0.141378
0.376476
0.439691
0.310113
0.533656
0.909012
-7.70074
-6.00413
-8.93487
5.91845
1.38882
0.928664
-5.10856
-1.68018
-6.73191
-3.32387
-0.127466
1.98196
-0.000173696
-0.963913
-3.39558
-1.19804
-0.420974
0.344927
-0.572592
-3.05039
-0.898829
-2.41853
0.272429
-0.32009
0.0513574
0.213489
1.65258
-0.661096
-0.0589746
-1.67119
-0.445481
0.203077
-1.95226
-0.549589
-0.730194
-0.191151
3.27764
-0.0733978
3.19108
-0.718233
-0.638002
-0.827065
-1.96724
-1.77259
-1.62438
-2.84953
-2.46248
-1.50903
0.0912128
-3.01831
-5.82029
1.94035
-1.81111
-1.58298
-3.64539
0.354597
0.310851
0.373735
0.360193
0.323585
0.320751
0.33478
0.295489
0.275994
0.27035
0.276399
0.228713
0.257114
0.254631
0.235435
0.251554
0.183654
0.230839
0.103609
0.0976213
0.189342
0.207002
0.235128
0.220888
0.577986
0.349337
0.537487
0.749792
0.223956
0.461723
0.0724731
-0.136038
0.276412
0.270351
0.272192
0.219893
0.311105
0.274196
0.322726
0.257275
0.268645
0.240094
0.276567
0.299447
0.290415
0.265568
0.335787
0.287067
0.29038
0.47327
0.490116
0.249684
0.154797
0.380546
0.174826
0.27741
0.251983
0.238475
0.339547
0.269547
0.293128
0.367278
0.364755
0.335103
0.294487
0.338483
0.319101
0.160017
0.227728
0.265757
0.297651
0.315187
0.270488
0.310613
0.0575357
-0.00681575
0.247871
0.284626
-0.0288823
0.214125
-0.263628
-1.25575
-1.30108
-1.33117
-1.03828
-2.00222
-1.57367
-1.38426
-0.0989878
-0.805286
-0.649736
-0.160868
-0.331495
-0.726665
0.21463
0.192224
0.123638
0.282574
0.0407219
-0.202559
0.0190752
0.110753
-0.0181861
-0.0548692
0.206365
-0.313811
-0.110257
-0.0189579
0.0452041
-0.033262
-0.159709
-0.272669
0.195599
0.0418042
-0.694288
-0.46902
-0.218681
-0.134358
-0.704531
-0.850108
-0.190999
-1.19453
-0.604692
-0.477636
-0.647996
-0.887805
-0.712713
-0.816739
-0.640255
1.1786
0.129801
0.534684
1.20224
1.68424
-0.00111726
1.05483
1.0201
0.920068
0.987365
0.796026
1.00727
1.09001
0.930716
1.06732
0.7019
0.875294
0.806319
0.401716
1.25883
1.5626
0.563246
0.970243
0.27085
0.615213
0.153282
0.251333
0.633727
0.520897
0.233734
0.442185
1.12016
1.78653
0.883774
0.905314
0.936082
1.35061
0.78031
0.784654
1.28289
0.862555
1.61866
2.20728
1.2405
1.13351
1.3076
1.28645
0.107017
0.431502
0.823622
0.714835
-0.0816189
0.463813
0.76706
0.675715
0.96223
0.689354
0.9362
1.22751
1.09775
0.696132
0.811226
0.649471
0.571334
-2.77248
-4.99866
-2.67134
-2.59633
-1.72481
-3.77388
-2.17353
-1.6039
-1.85228
0.933706
-0.991201
0.633499
-0.984503
1.84721
0.468571
-0.0576452
0.50444
0.048421
-0.153576
0.962188
0.465393
1.18504
0.811681
0.0132234
0.278071
-0.0808297
0.381206
0.961557
0.397783
1.08407
0.887045
-1.95841
0.161076
-0.2954
-0.978544
0.766114
2.04515
-2.64484
-1.15084
-1.6379
-0.855754
0.764057
-0.138765
-2.22384
1.12766
0.296662
0.38887
0.800504
-0.383093
-0.943694
1.24661
0.0204001
-0.436474
0.687033
-0.682219
0.727086
0.8799
-0.793797
0.307333
0.273838
0.143564
0.0560122
-0.414753
-0.74609
-0.815359
-1.7514
0.56532
-0.318392
-0.819244
1.13078
-0.364552
-1.24829
-0.929885
-1.19795
0.16565
-0.484692
-1.1184
0.742626
-0.16733
-2.13364
-2.27235
-8.6319
0.759064
-0.143355
-4.49272
4.82764
0.297126
1.08051
0.847252
0.812744
0.889475
0.89897
0.824953
0.908179
0.852788
-0.30185
-0.396782
0.81691
0.461456
1.39373
0.770138
0.300353
0.104546
-1.07115
0.0182046
-1.64098
-2.40883
-0.434004
0.631187
-1.52925
-0.117158
2.51068
1.6711
0.969784
1.25786
1.1066
0.730793
0.767805
1.0901
-0.0636758
0.441099
0.70414
-0.0290469
1.44428
0.0333606
0.105166
0.310688
0.131272
0.210314
0.217767
0.216524
0.162403
0.187309
0.174257
0.22337
0.246827
0.239951
0.259414
0.2654
0.238158
0.246333
0.25515
0.256277
0.304986
0.293369
0.337425
0.332448
0.284845
0.298937
0.31335
0.309546
0.312373
0.307104
0.334359
0.368822
0.32475
0.318307
0.345358
0.330584
0.226572
0.232326
0.264013
0.278003
0.252392
0.233149
0.274608
0.264679
0.24228
0.272286
0.270759
0.256183
0.256117
0.256504
0.257378
0.262752
0.269276
0.277342
0.290807
0.315095
0.292569
0.293418
0.299694
0.301677
0.279769
0.313723
0.286146
0.280097
0.280578
0.294797
0.27785
0.291356
0.0486734
0.171287
0.147718
0.0560625
0.113274
0.167815
0.112515
0.150102
0.226344
0.232939
0.254034
0.222463
0.24343
0.23701
0.253888
0.234561
0.284502
0.282157
0.31641
0.275256
0.263559
0.281109
0.294515
0.274503
0.0429946
0.171602
0.180374
0.076246
0.109112
0.144536
0.132644
0.144682
0.204689
0.186393
0.12947
0.20395
0.206951
0.148017
0.152759
0.149853
0.220635
0.210586
0.260005
0.243935
0.213517
0.218606
0.257112
0.263781
0.188786
0.133726
0.219076
0.221572
0.158721
0.13671
0.196661
0.162201
0.226954
0.213248
0.208358
0.254022
0.227415
0.225561
0.278326
0.234497
0.22504
0.199796
0.202285
0.201052
0.225053
0.20919
0.219645
0.191602
0.149376
0.065678
0.0356656
0.0262436
0.0940203
0.0794666
0.0647781
0.0252466
0.142283
0.035585
0.0368929
0.0388465
0.0937193
0.0658801
0.0687589
0.0285597
0.144645
0.0231508
0.041925
0.0432205
0.137566
0.0868271
0.10529
0.0425888
0.182719
0.176243
0.19891
0.0929285
0.167804
0.187813
0.117366
0.164145
0.165232
0.0752845
0.0666259
0.150004
0.126362
0.122305
0.148119
0.106698
0.155317
0.169675
0.0847507
0.0801058
0.149568
0.127701
0.114309
0.141855
0.121486
0.0268331
0.0275921
0.0172137
0.103197
0.0680569
0.0607428
0.0277486
0.109251
0.117496
0.183658
0.208713
0.119447
0.126687
0.159176
0.170709
0.104352
0.109085
0.185174
0.223394
0.128984
0.125168
0.180669
0.193026
0.22968
0.224915
0.234389
0.265769
0.239377
0.224878
0.244204
0.243773
0.310597
0.304911
0.307019
0.360428
0.312546
0.301152
0.326933
0.33477
0.126477
0.206347
0.229676
0.235586
0.176888
0.196015
0.227708
0.225398
0.130403
0.225586
0.189984
0.196809
0.176077
0.205016
0.187893
0.207074
0.236149
0.26062
0.26907
0.274325
0.265529
0.265213
0.274114
0.28674
0.225692
0.278796
0.27966
0.231512
0.24395
0.256618
0.226475
0.256949
0.220711
0.184412
0.17825
0.197517
0.209683
0.195825
0.200693
0.183633
0.1234
0.0322634
0.0285509
0.0361597
0.0898504
0.061065
0.0662904
0.0292429
0.117493
0.0278141
0.0264436
0.0299149
0.0784951
0.0566572
0.0579241
0.0270648
0.158167
0.0395824
0.0357553
0.0584356
0.106084
0.0694249
0.0773441
0.0339934
0.162814
0.152335
0.174931
0.0912087
0.144122
0.160075
0.128102
0.15072
0.140851
0.063742
0.0579637
0.135756
0.120639
0.0879857
0.117904
0.0804831
0.139631
0.159016
0.0730068
0.0648921
0.127253
0.127331
0.0892006
0.0974817
0.115661
0.0286574
0.0315156
0.0277377
0.0828336
0.0602606
0.0612071
0.0321707
0.0555662
0.154398
0.0394834
0.0614608
0.0947994
0.11826
0.0592659
0.0873568
0.206433
0.222225
0.190205
0.209204
0.214807
0.215416
0.200167
0.204669
0.0365653
0.127626
0.0366456
0.0426399
0.0757793
0.0958128
0.0362095
0.0633868
0.0596242
0.154453
0.0407038
0.0531186
0.0892831
0.117351
0.0549259
0.0893588
0.172804
0.0780753
0.101868
0.17568
0.149758
0.104412
0.151177
0.11487
0.180996
0.186989
0.16935
0.0994802
0.158339
0.182697
0.133178
0.158883
0.040768
0.0637841
0.150828
0.0381462
0.0429894
0.0926641
0.078592
0.107987
0.0740038
0.0765375
0.16776
0.147928
0.096105
0.0996347
0.13215
0.152613
0.0827457
0.0637788
0.166691
0.158367
0.133371
0.111649
0.142275
0.15288
0.0540493
0.053672
0.130453
0.124693
0.0910617
0.0770592
0.114097
0.114067
0.20281
0.185725
0.21765
0.204091
0.215301
0.205733
0.205919
0.207556
0.18448
0.172936
0.19737
0.197561
0.195805
0.185937
0.190668
0.192566
0.11176
0.19236
0.185389
0.159345
0.123034
0.155218
0.139124
0.163848
0.0914267
0.143487
0.15066
0.174376
0.130166
0.137786
0.139041
0.165118
0.186504
0.17376
0.163703
0.195452
0.186944
0.180341
0.207455
0.180633
0.192959
0.198323
0.163749
0.172504
0.191639
0.197106
0.169058
0.172791
0.29405
0.280612
0.263696
0.249087
0.278806
0.279024
0.269825
0.26438
0.222639
0.109606
0.190488
0.181542
0.195928
0.172968
0.205541
0.189317
0.237884
0.217122
0.222944
0.211782
0.227301
0.221191
0.22447
0.22017
0.219398
0.198034
0.203422
0.202328
0.212179
0.211252
0.208934
0.206786
0.253447
0.247551
0.239476
0.212524
0.256664
0.2471
0.233067
0.24061
0.240891
0.203627
0.199159
0.242226
0.237413
0.20547
0.250811
0.225424
0.243295
0.232597
0.215877
0.213682
0.226858
0.226533
0.218122
0.214432
0.236457
0.211347
0.207676
0.215086
0.219736
0.211832
0.227971
0.205673
0.350265
0.303429
0.306812
0.340267
0.351419
0.333455
0.341692
0.319987
0.223199
0.138187
0.202373
0.236615
0.226649
0.188753
0.233399
0.211603
0.261642
0.229472
0.232953
0.256249
0.257267
0.241045
0.252601
0.238838
0.331238
0.306866
0.289733
0.323585
0.328548
0.302289
0.32152
0.290567
0.303784
0.301242
0.343798
0.306304
0.301641
0.313425
0.304183
0.317337
0.281411
0.264053
0.229294
0.27939
0.280734
0.264609
0.259131
0.259609
0.2931
0.335276
0.303458
0.282445
0.294168
0.302478
0.285995
0.297096
0.269132
0.255725
0.263258
0.241726
0.260794
0.263583
0.264745
0.273363
1.28116
1.45906
1.43353
0.118225
2.16811
3.15776
1.18784
2.45103
1.39631
1.08368
1.72696
0.963202
1.24746
1.43629
1.08172
1.28385
-0.239276
3.53554
4.85336
-3.03936
1.28775
5.76255
-2.83157
-0.24108
0.497745
0.774202
0.176707
0.496106
0.443507
0.363245
0.688988
0.681896
1.57417
1.87415
0.411897
0.867927
1.06728
1.63696
0.757898
0.42071
2.20213
0.985463
2.99446
2.94427
1.85165
1.56695
1.7733
2.02291
1.79069
0.814579
0.643764
-0.017234
-0.682095
0.351883
-0.759207
-0.318488
2.49411
-0.164712
0.742725
2.3161
0.851684
-0.177977
0.952342
0.151253
0.208061
0.202528
0.179876
0.171193
0.195698
0.199137
0.189469
0.18645
0.207069
0.217162
0.198488
0.184028
0.206232
0.207577
0.193656
0.204517
0.138844
0.143116
0.0644751
0.056307
0.114431
0.117564
0.0963038
0.0923571
0.119597
0.122378
0.053211
0.0475751
0.0977412
0.1023
0.0832943
0.0780463
0.19882
0.167133
0.159031
0.165702
0.183734
0.174574
0.172333
0.16196
0.202653
0.16843
0.179856
0.168579
0.191298
0.182648
0.186843
0.175521
0.15558
0.138288
0.141885
0.0853435
0.118932
0.138926
0.102513
0.121789
0.153089
0.0842307
0.144326
0.156295
0.130891
0.107436
0.151734
0.129163
0.207959
0.202265
0.179181
0.1953
0.201484
0.199264
0.195628
0.189757
0.205373
0.216742
0.192849
0.208897
0.20802
0.207405
0.203624
0.205065
0.133472
0.144168
0.0762075
0.144288
0.137391
0.121316
0.121571
0.10868
0.190643
0.200918
0.179209
0.195552
0.193682
0.192312
0.191275
0.188993
0.20192
0.177091
0.194138
0.198216
0.195311
0.189296
0.197081
0.19207
0.199387
0.198133
0.174771
0.168204
0.192539
0.192611
0.177157
0.182794
0.166878
0.190137
0.195968
0.165823
0.174575
0.186835
0.177743
0.185848
0.156869
0.160298
0.194886
0.167842
0.158522
0.16868
0.171862
0.183896
0.0699704
0.133953
0.129356
0.13529
0.100798
0.118129
0.116953
0.134067
0.186198
0.223082
0.21096
0.205271
0.201281
0.209802
0.202483
0.212423
0.177624
0.207405
0.2092
0.195894
0.189704
0.201915
0.196116
0.205405
0.175887
0.195219
0.190263
0.192615
0.18595
0.18995
0.189949
0.192529
0.158685
0.155494
0.157025
0.187932
0.169221
0.156648
0.17995
0.167348
0.171995
0.195919
0.20311
0.168576
0.18122
0.191675
0.179082
0.192918
0.165486
0.165907
0.191916
0.189652
0.173188
0.17731
0.18471
0.183398
0.178867
0.194827
0.197394
0.206468
0.188582
0.192866
0.196944
0.197156
-0.520059
-0.57324
0.124242
0.305573
-0.50104
-0.709079
-0.229361
-0.23159
-0.340968
0.401869
0.401689
0.773863
0.162787
0.238559
0.0682927
-0.0037498
0.197654
-0.00182245
0.459754
0.519719
0.179856
0.351092
0.476835
0.487184
0.709133
0.902927
0.728606
0.865358
0.846408
0.782534
0.845299
0.817101
-0.0201537
0.248561
0.641211
0.775529
-0.144917
0.0583238
0.587121
0.556753
-0.112073
0.626734
0.422714
0.102582
-0.0263878
-0.145879
0.278108
0.443271
0.243687
0.722882
0.794534
0.683208
0.44261
0.686642
0.638788
0.818114
0.210176
0.635705
0.803248
0.415418
0.328255
0.553603
0.496305
0.573038
0.102688
0.223378
0.244057
0.063625
0.0859911
0.263134
0.133739
0.235346
0.358238
1.2252
0.800678
0.345137
0.19548
0.578568
0.332344
0.617594
0.487563
0.592685
0.55203
0.640431
0.489321
0.59621
0.532316
0.628332
0.111428
0.456559
0.373558
-0.000868082
-0.00464754
0.319372
0.048292
0.387488
0.292164
0.299176
0.0697561
0.466871
0.277906
0.289463
0.171265
0.276355
0.387196
0.368369
0.543187
0.414012
0.321958
0.281927
0.368545
0.424004
0.324389
0.130811
0.469033
0.364392
0.305509
0.253335
0.36095
0.391098
0.430131
0.510298
0.312248
0.526502
0.488575
0.417084
0.587458
0.483491
0.550778
1.14705
0.271235
0.95978
1.72998
1.70458
1.24113
1.50427
0.659624
0.572932
0.733437
0.461127
0.568973
0.633271
0.559433
0.604694
-0.125092
1.04076
0.466931
0.16146
0.776429
1.41345
0.330311
1.78898
0.551446
0.330656
-0.180185
0.234837
0.0926512
0.283489
-0.10276
0.173694
0.852054
0.944406
0.194505
0.334234
0.520503
0.994756
0.450842
0.455489
1.07244
0.551319
1.03981
1.671
0.903028
0.681278
1.06443
0.903272
0.179751
0.17812
0.297504
0.38249
-0.125385
0.609344
0.406701
0.828154
1.23377
0.551546
0.472144
0.865861
0.904275
0.408995
0.625082
0.40543
0.333971
0.356465
0.299934
0.307455
0.325799
0.337303
0.295282
0.309457
0.340762
0.328183
0.28089
0.305898
0.329339
0.312791
0.296445
0.302049
0.262073
0.247625
0.23737
0.2467
0.253661
0.245387
0.240162
0.23798
0.212036
0.230994
0.194646
0.117034
0.203063
0.211987
0.152024
0.191458
0.335077
0.285396
0.269324
0.294069
0.301927
0.291826
0.303614
0.290024
0.325441
0.28471
0.271496
0.282032
0.30568
0.293542
0.289219
0.279764
0.267013
0.245156
0.24739
0.220648
0.269728
0.269387
0.250877
0.241542
0.266643
0.232925
0.267149
0.262681
0.255818
0.251685
0.257649
0.251567
0.0584851
0.141206
0.134747
0.0502126
0.0813957
0.117705
0.078631
0.118603
0.199079
0.224609
0.213571
0.17795
0.20729
0.207669
0.193453
0.209772
0.184753
0.209045
0.208492
0.172696
0.191818
0.203128
0.184707
0.200626
0.0478632
0.118561
0.118724
0.0473101
0.067569
0.0969915
0.0679344
0.0986924
0.15532
0.14758
0.0690423
0.139471
0.150283
0.130328
0.128035
0.107303
0.17672
0.161865
0.205047
0.173169
0.175705
0.181526
0.188577
0.19457
0.140587
0.0695993
0.135563
0.132329
0.121944
0.108721
0.134932
0.119772
0.171185
0.160936
0.160774
0.202949
0.178195
0.161639
0.187004
0.174419
0.223992
0.213484
0.203216
0.189563
0.220448
0.212416
0.200755
0.193524
0.154465
0.0488337
0.0389208
0.02761
0.100391
0.0715125
0.0627123
0.0471917
0.142659
0.0404821
0.0370473
0.0312238
0.101372
0.0722987
0.0705293
0.0345865
0.123219
0.0306497
0.0277225
0.0289375
0.089784
0.0688745
0.0492305
0.0329843
0.191124
0.174129
0.169306
0.0922639
0.161453
0.174855
0.139086
0.161376
0.173192
0.0679846
0.0723092
0.163788
0.144233
0.102977
0.138759
0.112741
0.152539
0.142076
0.0588389
0.0472639
0.129715
0.125267
0.0916678
0.0932067
0.134503
0.028494
0.032104
0.0398281
0.0923292
0.0688577
0.0703651
0.0344661
0.204685
0.166364
0.175472
0.157605
0.189327
0.182789
0.178953
0.165594
0.113671
0.027904
0.0301349
0.0197965
0.0764026
0.06117
0.0524929
0.0217956
0.115812
0.0271763
0.0279579
0.025107
0.0791831
0.0518219
0.0540525
0.0186746
0.0939529
0.0214528
0.0258411
0.0173386
0.0725124
0.0518825
0.0528462
0.0248022
0.146792
0.144854
0.137683
0.0747348
0.123968
0.134624
0.0895748
0.12018
0.133317
0.0568207
0.0552662
0.127619
0.102759
0.0896067
0.118412
0.0848668
0.123123
0.1185
0.0587509
0.0526962
0.109366
0.0963471
0.0750693
0.0890594
0.104477
0.0187856
0.0231259
0.0145543
0.0789293
0.0484245
0.0506218
0.0231459
0.0308415
0.115225
0.0214564
0.0241575
0.0477135
0.0705288
0.0268329
0.0497198
0.172417
0.203545
0.172245
0.163341
0.178593
0.188857
0.167448
0.178187
0.0243467
0.109291
0.0263298
0.0275273
0.056285
0.0805902
0.0259519
0.0494893
0.0239025
0.101005
0.0295597
0.0249798
0.0452354
0.0691991
0.0252917
0.0493661
0.12748
0.0479636
0.0436844
0.117384
0.108389
0.0708721
0.106712
0.0699276
0.140488
0.133332
0.142301
0.0681176
0.125091
0.140984
0.108504
0.125598
0.0263336
0.0230976
0.103117
0.0254538
0.024524
0.0453795