/*--------------------------------*- C++ -*----------------------------------*\
| =========                 |                                                 |
| \\      /  F ield         | OpenFOAM: The Open Source CFD Toolbox           |
|  \\    /   O peration     | Version:  2506                                  |
|   \\  /    A nd           | Website:  www.openfoam.com                      |
|    \\/     M anipulation  |                                                 |
\*---------------------------------------------------------------------------*/
FoamFile
{
    version     2.0;
    format      ascii;
    arch        "LSB;label=32;scalar=64";
    class       surfaceScalarField;
    location    "300";
    object      phi;
}
// * * * * * * * * * * * * * * * * * * * * * * * * * * * * * * * * * * * * * //

dimensions      [0 3 -1 0 0 0 0];

oriented        oriented;

internalField   nonuniform List<scalar> 
80800
(
9.15712e-09
-1.29445e-08
1.76227e-06
-1.75832e-06
1.74387e-06
-9.23929e-08
7.12847e-08
-1.72281e-06
-1.84873e-06
-3.517e-08
-2.1514e-08
1.90555e-06
2.86432e-08
-1.10556e-07
1.85129e-06
-1.76949e-06
3.37323e-08
1.71266e-06
-1.73733e-06
1.74624e-06
3.13674e-08
5.77297e-08
1.68353e-06
-4.47557e-08
-2.25995e-07
1.76371e-06
2.22202e-07
-1.75966e-06
7.15142e-06
-1.78063e-06
-5.37052e-06
-4.61419e-06
5.85115e-06
-1.23668e-06
-1.50357e-06
6.2064e-06
-4.70258e-06
-1.30791e-06
5.06885e-06
-3.98677e-06
6.34644e-06
-5.02797e-07
-1.73225e-06
5.29772e-06
9.58507e-08
-2.09516e-06
6.26975e-08
1.93679e-06
5.39544e-06
-4.56757e-06
-8.27595e-07
-4.67676e-06
-1.68238e-07
4.84521e-06
-6.46805e-07
-3.69427e-06
4.34143e-06
-2.05133e-07
4.11859e-06
-3.81736e-06
5.03328e-06
1.57291e-07
-3.56527e-07
3.82842e-06
-4.53687e-07
3.27264e-08
3.31467e-06
-2.89371e-06
7.66029e-06
-1.23306e-06
-6.42713e-06
-6.04474e-06
-1.08885e-06
7.13372e-06
-5.83645e-07
7.52148e-06
-6.93785e-06
-1.4938e-06
6.65211e-06
-5.61194e-06
7.14143e-06
-9.74844e-07
-1.09669e-06
7.16513e-06
2.35765e-06
8.58495e-08
-2.53577e-06
-2.3945e-06
3.19409e-08
2.32748e-06
-2.00528e-07
2.64285e-06
-2.55272e-06
5.25125e-07
-1.37221e-06
5.83893e-06
-4.99172e-06
2.35963e-06
-9.08882e-08
8.90571e-08
-7.95668e-08
3.09668e-06
-2.66231e-06
2.81665e-06
1.89757e-06
-4.80514e-08
-1.06466e-06
5.89909e-06
8.04146e-07
5.32234e-06
-2.74991e-07
-2.00274e-06
2.09996e-06
-6.5224e-08
-4.00627e-08
2.02671e-06
4.19314e-06
-4.16359e-09
2.81833e-08
4.99327e-06
1.7908e-08
-8.29123e-10
2.31044e-06
-2.33161e-08
2.69888e-06
6.26076e-06
-1.65471e-06
-5.8994e-06
-1.29486e-06
6.10564e-06
-3.07314e-06
-2.97666e-07
3.38876e-06
-2.79803e-07
-5.00612e-06
-1.19069e-06
3.98854e-09
-4.989e-06
4.24451e-06
7.54855e-07
9.58344e-07
-4.77153e-06
-5.2212e-06
9.76693e-07
5.88062e-07
-3.17405e-06
2.58592e-06
3.21823e-06
5.65687e-07
-3.78395e-06
-3.01445e-06
4.45389e-07
2.569e-06
-4.60702e-07
4.50802e-07
-2.86291e-06
2.8728e-06
3.34502e-07
3.75965e-06
-3.50612e-06
3.55271e-06
2.57786e-07
3.04112e-06
7.96035e-07
-3.26346e-07
5.11928e-06
-4.79292e-06
5.13864e-06
-4.14745e-07
-4.72388e-06
-4.56871e-06
4.6472e-06
-7.8422e-08
2.49862e-07
2.76305e-06
-7.39808e-08
-2.93898e-06
-3.99489e-07
4.74012e-06
-4.66694e-06
4.73918e-06
5.60479e-07
4.42954e-06
7.30991e-07
1.2309e-07
-4.71085e-06
4.58774e-06
4.93484e-06
-4.68833e-06
-2.46505e-07
-5.34706e-06
2.76352e-07
5.07068e-06
7.03719e-07
-3.97894e-06
2.04946e-07
3.07015e-06
2.2256e-07
4.69933e-06
-4.79884e-06
5.15739e-06
6.15824e-07
4.78719e-06
4.26152e-07
5.65437e-07
-4.14542e-07
-2.75326e-06
2.60236e-06
2.9364e-06
-3.87342e-07
8.58896e-08
-2.63495e-06
-3.26489e-06
-3.13891e-07
7.20357e-07
2.85841e-06
-9.92661e-08
1.25192e-07
-2.03233e-06
2.00641e-06
2.33187e-07
2.76337e-06
-2.43112e-06
3.41636e-06
-2.46765e-07
3.32482e-07
2.33162e-06
4.83945e-07
5.26305e-06
-1.0049e-07
-4.59688e-06
-4.83779e-06
1.79953e-08
5.26518e-06
1.62917e-07
3.73487e-06
-3.447e-06
-9.1783e-07
4.51109e-07
4.8565e-06
-4.38983e-06
4.66164e-06
4.36051e-07
1.65358e-07
6.19885e-07
4.21563e-06
-4.69742e-06
4.99843e-06
5.0188e-06
1.49825e-07
3.0643e-06
-4.43448e-07
5.09071e-06
-4.68861e-06
4.70661e-06
4.37844e-07
4.74632e-06
5.01724e-06
5.77295e-08
4.63155e-06
8.10531e-07
2.35119e-07
4.21951e-06
2.10837e-07
3.10949e-06
3.78812e-06
6.81024e-07
-4.90928e-06
9.8324e-07
3.6121e-06
-4.2355e-06
9.09341e-07
4.13668e-06
9.73763e-07
-4.51512e-06
5.15143e-07
2.30887e-07
-3.48413e-06
4.8834e-07
3.7232e-06
2.21097e-08
-7.19769e-07
1.12217e-06
-5.10625e-07
-4.05731e-06
-3.47963e-06
-1.45534e-07
9.80331e-08
1.44963e-06
-3.23005e-06
-1.28637e-06
5.03078e-08
-4.72645e-07
6.40208e-06
-5.9294e-06
-2.04596e-08
2.35906e-06
-2.11636e-06
9.36727e-07
1.04462e-08
-3.49576e-07
3.27227e-06
-3.28217e-06
2.45012e-06
4.81368e-08
-8.75007e-07
-1.6347e-06
1.4667e-06
2.5078e-07
-5.10307e-06
4.85234e-06
2.69543e-07
-2.36858e-06
2.16182e-06
9.44315e-07
-7.38378e-07
-6.90274e-07
1.21079e-06
-1.67937e-06
7.71299e-07
4.80728e-06
-1.45618e-08
-4.79263e-06
-4.22853e-06
1.48546e-07
4.08016e-06
6.28876e-08
4.1389e-06
-4.20171e-06
-4.05446e-07
2.14724e-07
3.77031e-06
-3.57952e-06
4.5231e-06
2.97099e-07
-1.27629e-08
2.94604e-07
5.02105e-06
-5.12933e-06
5.37854e-06
1.77101e-06
-1.44756e-08
-1.6852e-06
-1.79236e-06
-8.68664e-09
1.77964e-06
2.11336e-08
-6.98941e-08
1.93271e-06
-1.88399e-06
-8.55728e-09
1.7421e-06
-1.74639e-06
1.77453e-06
2.79961e-08
-1.89108e-08
1.13829e-09
1.69098e-06
-1.67148e-06
1.69323e-06
-5.36208e-07
3.12029e-07
-1.04119e-07
5.90833e-06
5.97994e-07
2.41014e-06
-9.90517e-08
-2.25247e-06
2.38e-06
-1.92713e-07
-2.39359e-06
-1.56147e-07
2.01372e-06
-4.75881e-08
-2.3804e-06
-1.78799e-08
-5.62896e-07
1.39218e-07
-1.27779e-07
-5.29154e-06
1.88628e-07
5.41614e-06
4.92254e-07
1.27276e-06
1.78167e-07
-2.67333e-07
5.59437e-06
3.55461e-08
5.72635e-07
6.27223e-06
-6.24684e-06
1.45315e-06
-1.56675e-06
-2.12763e-06
1.92623e-06
-1.22977e-09
2.71834e-06
-2.78696e-06
2.08538e-07
4.63957e-06
-4.27549e-06
1.64378e-06
4.82706e-07
4.15564e-06
6.74998e-06
3.01354e-08
2.90295e-06
-3.71844e-07
2.17032e-06
-5.8222e-06
6.15944e-06
5.02514e-07
6.23476e-06
4.6883e-06
4.48107e-07
4.76457e-06
2.90905e-06
-1.8293e-07
8.36641e-08
-2.80978e-06
-6.66993e-08
2.8165e-06
2.78815e-08
-2.77773e-06
-2.20575e-08
2.96512e-06
-4.88595e-07
-2.45458e-06
-2.92321e-06
3.17006e-06
-5.27137e-07
2.80331e-07
6.18696e-08
2.68178e-06
1.65417e-07
2.80892e-06
-2.81377e-06
1.0394e-07
-3.45393e-07
2.89076e-06
2.6574e-06
9.14185e-08
-1.73896e-08
-2.73147e-06
1.89499e-07
2.57086e-06
-8.58841e-09
-2.7518e-06
-5.17076e-08
5.19142e-07
1.26949e-06
-1.7369e-06
-2.80077e-06
1.4339e-07
2.48594e-06
1.71475e-07
-1.04308e-07
2.78045e-06
-1.87423e-08
2.71244e-06
-2.62726e-06
-3.03008e-07
2.82746e-07
2.35772e-06
3.32141e-06
-5.14658e-07
7.8264e-07
-3.58923e-06
1.15396e-06
8.31951e-07
4.75739e-06
-6.74327e-06
4.98038e-07
1.127e-05
1.51672e-06
-1.32847e-05
-4.08832e-06
1.86628e-07
4.40762e-06
-5.05883e-07
-1.50382e-07
3.91712e-06
-4.45315e-07
4.57439e-06
-3.57081e-06
-1.04288e-07
-6.68448e-08
4.96813e-06
3.49794e-06
-3.24361e-06
-7.31478e-07
4.77225e-07
-9.71384e-08
-3.05773e-06
2.95297e-06
2.01839e-07
1.43965e-07
-3.01144e-06
3.64324e-06
-7.7571e-07
-3.69866e-06
4.01371e-06
-1.00161e-06
6.866e-07
5.58585e-08
2.90542e-06
5.3668e-07
3.04915e-06
-3.09044e-06
1.8642e-07
-9.79641e-07
3.37954e-06
2.81524e-06
1.73475e-08
-1.61451e-08
3.09175e-08
3.9204e-07
2.54216e-06
6.78051e-08
2.71629e-06
3.86011e-07
-2.81878e-06
-1.90789e-07
2.81144e-06
1.98105e-07
-8.62105e-08
2.79086e-06
1.10558e-07
2.83546e-06
-1.12338e-07
8.43992e-08
2.79093e-06
2.94053e-06
-2.83176e-06
-2.90285e-06
2.85548e-06
-1.33583e-07
2.17482e-06
-1.52209e-06
2.7823e-08
2.71427e-06
-2.34997e-06
2.87416e-06
1.76997e-07
2.54075e-07
2.48175e-06
-2.2769e-06
2.60225e-06
2.63183e-06
3.00092e-07
-3.89706e-07
9.94853e-08
-6.26785e-07
-1.05668e-07
-1.40643e-07
-2.74319e-06
1.40628e-07
-4.08862e-07
1.58512e-07
3.07328e-06
-5.99992e-07
3.04891e-06
1.472e-07
1.82893e-07
2.4997e-06
-2.69516e-06
3.02243e-06
-3.94241e-07
3.10908e-06
9.71294e-07
2.0355e-06
2.52526e-06
-4.7083e-07
1.3004e-08
3.10272e-06
2.72147e-06
3.36715e-06
-3.78187e-06
2.55654e-07
4.25861e-06
-4.51422e-06
-5.89472e-06
5.81638e-06
-1.14569e-06
2.24299e-06
-1.1713e-06
5.49431e-06
1.83402e-06
-3.96108e-06
5.74999e-06
1.41939e-06
1.27471e-06
5.8027e-06
-3.84499e-07
-5.41816e-06
6.34491e-07
-7.64103e-06
7.00655e-06
-7.78145e-06
3.12543e-07
7.46903e-06
1.66231e-07
-1.5246e-08
-3.73819e-06
3.58724e-06
7.44315e-06
6.34876e-06
-7.98917e-06
8.07765e-06
5.24917e-06
1.26585e-06
5.54536e-06
5.42185e-06
-5.66836e-06
-6.56283e-07
-4.58693e-06
5.24324e-06
-4.2524e-06
4.52875e-06
-3.3035e-07
-2.62465e-06
3.15982e-06
5.36478e-06
3.69059e-06
-3.6335e-06
4.70851e-06
3.78641e-06
4.2425e-06
3.02795e-06
-4.73267e-07
-2.46879e-06
-9.23854e-10
4.86266e-08
-2.51451e-06
2.46682e-06
-2.40588e-06
-6.03728e-08
3.18659e-06
-3.7077e-07
-1.90802e-06
2.40398e-06
2.52263e-06
2.76905e-06
-2.26372e-06
2.3633e-06
1.58403e-07
2.88222e-06
2.83965e-06
4.07811e-06
6.34511e-06
-6.16456e-06
-2.23914e-06
4.44455e-06
3.61105e-06
1.69191e-06
3.2578e-06
-2.70669e-06
-3.47426e-06
2.67352e-06
3.44322e-06
-2.64242e-06
7.84217e-07
-3.70781e-08
3.33102e-06
-1.80213e-07
-1.48967e-07
-3.36236e-06
1.36275e-06
5.96062e-06
-6.36261e-07
3.29456e-06
-5.30068e-06
5.61327e-06
-1.24203e-06
5.68659e-06
2.84116e-06
6.4505e-06
3.47078e-06
5.20849e-06
3.37861e-06
6.92786e-07
4.04044e-06
2.80666e-06
-8.41858e-08
3.57608e-06
-2.51722e-06
2.94512e-06
-2.55798e-06
3.3488e-06
1.61144e-06
-1.68566e-06
2.51724e-06
4.05868e-06
-2.70853e-06
3.02897e-06
3.62129e-06
3.24939e-06
-3.42384e-06
4.45026e-06
5.65731e-07
-1.40528e-07
3.74455e-07
-1.85752e-07
3.81001e-06
1.75544e-06
-1.10812e-07
1.17942e-07
1.57974e-07
1.98425e-06
-2.36665e-07
-1.95735e-06
1.93766e-06
-2.68078e-07
2.88232e-07
5.09162e-08
1.82315e-06
-2.28993e-08
1.71984e-06
1.71921e-06
1.9958e-06
-1.17946e-07
1.79149e-06
-2.14703e-08
1.82993e-06
2.86781e-06
1.40577e-08
-9.45083e-07
-5.17598e-07
1.57943e-06
3.78359e-06
-2.13661e-06
-5.39016e-07
-1.67122e-07
2.84306e-06
-1.33268e-06
1.49667e-06
4.17785e-06
2.42205e-06
4.27461e-06
2.56342e-06
-6.58458e-07
2.85627e-06
8.60407e-08
3.28311e-06
2.52263e-06
-2.6296e-06
-4.57714e-07
5.64931e-07
9.45334e-07
-2.57801e-06
-1.38679e-06
3.01959e-06
-3.08647e-06
-8.03146e-07
9.97888e-07
2.89216e-06
1.29439e-07
-2.98434e-06
3.60134e-07
2.49526e-06
2.083e-06
2.36848e-06
-1.92835e-06
3.10977e-06
-8.09975e-08
2.46154e-06
3.68112e-08
2.48482e-06
3.39269e-06
3.98143e-07
-4.7638e-07
3.53648e-06
-2.08981e-06
5.68664e-06
-5.99098e-06
-4.70371e-07
2.18594e-06
4.27535e-06
-7.22685e-07
2.15891e-06
6.08488e-06
3.78486e-06
6.77258e-06
6.89729e-06
4.23581e-07
3.94197e-06
2.10729e-06
4.84828e-06
2.18452e-06
2.11016e-06
-1.89469e-06
1.82345e-06
2.00891e-06
2.62214e-06
1.89963e-06
-3.18554e-06
3.10751e-06
6.18353e-06
1.19146e-07
-4.67789e-07
2.53282e-06
5.42122e-08
-2.64732e-07
2.41137e-06
2.23462e-06
-1.10353e-07
-5.01789e-07
5.10623e-06
-2.15183e-06
2.29642e-06
-6.84037e-07
-2.03461e-07
2.52309e-06
-4.9566e-07
2.48947e-06
2.27803e-06
2.07368e-06
2.48742e-06
-4.12622e-07
2.40913e-06
-4.91195e-08
2.15543e-06
-9.76257e-08
2.58052e-06
-2.83089e-07
-8.93525e-08
4.18275e-06
-2.10736e-06
2.5852e-06
-9.48065e-07
-2.51358e-06
2.45026e-06
1.40898e-08
2.47826e-06
-2.81249e-06
3.15535e-06
2.04888e-06
-3.14418e-06
2.74513e-06
4.97791e-06
4.31108e-06
-3.1336e-06
2.85197e-06
-4.31248e-07
5.5163e-07
-4.20101e-07
-1.72866e-07
4.38495e-06
-4.62574e-06
7.89503e-06
-3.26911e-06
3.97709e-07
-1.10459e-06
9.4058e-07
-2.34333e-07
5.02783e-07
8.19454e-07
-1.32221e-06
-9.65876e-08
7.72252e-06
-7.62571e-06
4.51828e-06
-1.71724e-06
-7.42662e-06
4.3447e-06
5.71322e-07
-1.81377e-06
3.03375e-06
-1.56712e-07
4.60791e-07
7.8625e-07
-1.09012e-06
3.56401e-07
1.04192e-06
3.02805e-07
-1.70119e-06
-1.35657e-06
1.01586e-07
1.07639e-06
1.78835e-07
8.47741e-08
-7.1603e-08
2.26592e-06
-2.27885e-06
6.87819e-07
1.3432e-06
-2.18725e-06
1.06069e-06
-1.62832e-08
1.49795e-06
-6.97242e-08
1.20212e-06
4.35299e-07
-1.37348e-06
9.37313e-07
2.91761e-07
-9.871e-07
5.9177e-07
1.02994e-07
8.80904e-07
-7.13509e-07
-1.67686e-07
-3.71655e-07
-4.04307e-06
4.41458e-06
1.72926e-07
-1.0425e-06
1.30444e-06
8.20336e-07
-3.56027e-07
-1.41426e-06
2.86939e-07
8.61139e-06
-1.01275e-06
-7.59845e-06
-1.91218e-07
2.26162e-07
3.48585e-06
-3.52098e-06
-5.07428e-06
-3.32029e-07
5.40621e-06
-1.84616e-07
2.82987e-06
-2.64528e-06
5.13012e-06
5.88066e-06
-2.39937e-06
4.9107e-06
2.81967e-08
5.69601e-06
5.53242e-06
2.37321e-06
-8.30562e-07
-2.6477e-06
-4.85526e-06
3.8936e-06
1.78088e-06
6.88453e-06
5.62096e-06
-4.78281e-06
-2.84285e-06
3.27372e-06
2.97192e-06
-3.40321e-06
-1.71695e-07
-1.11291e-06
3.65746e-06
-1.99315e-06
-6.97375e-07
-3.25856e-06
4.19404e-06
8.20411e-07
-1.19038e-06
5.77801e-07
2.624e-06
-2.50256e-06
1.12086e-06
1.48277e-06
1.20458e-07
1.17405e-06
2.59883e-06
1.15146e-06
3.32583e-06
1.65925e-06
1.24634e-06
2.19969e-06
4.02889e-07
1.98139e-06
-2.00697e-07
4.60834e-06
-1.22166e-06
4.41964e-06
-5.30704e-06
4.97492e-06
-3.52096e-06
5.50242e-06
5.28144e-06
-4.08797e-06
4.28332e-06
-4.0031e-07
-4.35374e-06
5.28554e-06
3.34582e-06
3.69771e-06
-8.57733e-07
9.91047e-07
6.64963e-07
2.39069e-07
5.94536e-07
-2.15916e-07
3.72438e-06
1.83868e-06
8.6035e-07
-7.42283e-06
1.00908e-06
8.88418e-07
-6.69027e-06
2.1621e-06
4.49875e-07
4.31454e-07
-3.0435e-06
-3.04564e-06
1.20262e-06
-1.09606e-06
-3.41171e-06
5.83554e-07
-9.69192e-07
-1.43345e-06
-1.72674e-06
-7.35435e-07
-5.33887e-07
-1.10245e-07
1.32327e-06
-4.9968e-06
1.84168e-06
-1.18479e-06
-3.83078e-06
2.44521e-06
1.17085e-06
-4.02159e-07
-3.21391e-06
-3.94315e-06
1.47558e-06
-3.95361e-07
-4.982e-06
1.36575e-06
1.08573e-06
-4.22603e-06
-4.16889e-06
1.59148e-06
-6.37905e-07
-4.2339e-07
1.58576e-06
5.62909e-07
-1.72531e-06
7.57659e-07
1.97706e-06
-3.69069e-07
-2.36567e-06
1.68215e-06
1.0777e-07
-9.09314e-08
-1.699e-06
-1.91305e-06
1.68756e-06
4.52021e-07
-2.26519e-07
-2.27657e-06
2.52303e-07
1.60089e-06
1.79358e-07
-1.69828e-06
-2.09127e-06
4.30438e-07
-2.2977e-07
-6.00356e-07
-3.8595e-06
1.82492e-06
1.34169e-06
-3.46491e-06
-6.30062e-07
1.82211e-06
-2.11645e-06
5.30633e-07
-2.36279e-07
-2.49067e-06
7.50412e-07
-2.92064e-07
-3.51722e-06
4.85739e-07
6.02561e-07
-2.7781e-06
-2.70596e-06
7.00994e-07
-2.81308e-07
2.14086e-06
-5.84926e-06
2.61955e-06
-3.20177e-06
1.03211e-06
-4.62641e-06
1.43915e-06
7.22486e-08
-4.498e-06
9.78678e-07
2.26916e-06
6.12064e-06
-6.24898e-06
4.35481e-06
1.49544e-06
1.22384e-06
1.69209e-06
-6.21807e-06
-3.93113e-06
9.08711e-07
4.03082e-06
5.72045e-07
-3.4321e-06
-1.83982e-06
9.40085e-07
-2.3021e-06
-6.9031e-07
-3.86662e-06
-3.02997e-06
-2.97109e-07
-5.4094e-06
7.03734e-07
2.52921e-06
-2.72207e-06
1.22502e-06
-3.97197e-06
1.55164e-06
1.31574e-06
-3.80202e-06
-3.42558e-07
-2.34917e-06
5.75258e-07
2.04631e-06
-1.10696e-07
5.93601e-07
-7.01846e-07
2.1642e-06
-2.6175e-06
-1.9623e-07
-3.76074e-07
-2.85537e-07
-2.44324e-06
-4.50062e-07
2.86719e-06
-3.18121e-07
2.11421e-06
-7.09567e-07
-8.7937e-07
2.86136e-06
-4.61254e-07
4.3629e-07
-3.27323e-06
2.837e-06
-3.38396e-06
3.26205e-07
3.05778e-06
-7.96998e-08
8.41e-07
-3.6133e-06
2.85197e-06
3.00247e-06
-1.29652e-07
-2.87266e-06
2.80106e-06
-2.36471e-06
-3.60758e-06
3.02468e-06
3.93977e-06
-3.302e-06
2.52508e-07
6.76877e-07
-3.4862e-06
2.80938e-06
-2.33892e-06
2.28657e-07
2.1103e-06
-3.90885e-07
-3.46245e-06
3.51615e-07
3.5017e-06
1.75405e-06
-2.24873e-06
4.94736e-07
2.64589e-06
-1.96894e-06
-1.77097e-06
2.07797e-06
2.05487e-06
-2.26973e-06
-1.06981e-07
1.63783e-06
-5.22143e-07
-3.00141e-06
1.88577e-06
-3.06516e-06
-3.67163e-07
1.29269e-06
2.13963e-06
-4.87007e-07
-2.76163e-06
1.68904e-06
1.55963e-06
2.03572e-06
-6.29504e-07
-2.66106e-06
1.25489e-06
3.62803e-06
-1.66874e-06
-3.21434e-07
-1.39329e-06
1.95615e-06
3.31526e-06
-2.94828e-06
1.43496e-06
-2.96636e-07
3.78935e-06
-3.49263e-06
-2.79903e-06
2.66267e-06
1.36447e-07
-7.92025e-07
4.20814e-06
-4.4599e-06
1.04381e-06
2.83908e-06
-3.32553e-06
4.86503e-07
7.74669e-07
-1.07114e-06
-4.19601e-06
2.17173e-06
5.30893e-06
-3.54098e-06
3.20905e-07
-3.59657e-06
3.92278e-06
-2.11655e-08
4.2677e-06
-3.40551e-06
4.27638e-06
-4.406e-06
-5.14707e-07
3.34836e-06
-2.83358e-06
-3.33754e-06
-3.47726e-06
3.21827e-06
-3.10619e-06
-3.99196e-06
-2.82175e-06
-2.79136e-06
3.22795e-06
2.42133e-06
-1.32166e-06
-3.39481e-06
-3.05205e-06
2.9844e-06
3.62889e-06
-2.66227e-06
3.30103e-06
1.74187e-07
2.52731e-07
3.25788e-07
2.60893e-07
3.62072e-06
-2.80812e-06
-3.67917e-06
3.92033e-06
-3.64668e-06
3.01608e-06
-3.63272e-06
-1.78695e-06
1.61607e-06
3.31184e-06
4.69153e-06
-3.79519e-06
-4.4579e-07
4.93911e-07
-3.72727e-06
-2.51427e-07
-1.33353e-07
3.93912e-06
7.35957e-07
3.03106e-06
1.03099e-06
5.60208e-07
-2.65794e-07
-4.56619e-06
1.14697e-06
-3.81808e-06
4.23263e-06
3.15211e-06
-3.14167e-06
5.70642e-07
2.37566e-07
6.39259e-07
3.1369e-06
2.98296e-06
-3.29573e-07
2.99553e-07
9.20021e-08
2.44869e-07
3.30638e-06
-3.27949e-06
-5.22122e-07
3.17103e-07
3.4845e-06
-3.41081e-06
3.106e-06
5.4236e-07
2.95171e-06
-3.38258e-06
3.2091e-06
-3.38879e-07
-5.86376e-07
3.13776e-06
-6.54681e-08
2.60869e-06
5.45937e-08
-9.24472e-08
8.15347e-07
1.09983e-06
-6.45678e-07
-2.78802e-06
2.68919e-06
5.79395e-07
-4.80602e-07
-2.73123e-06
2.81261e-06
-6.67784e-07
2.23517e-06
-3.13454e-06
3.15912e-06
-8.40272e-08
-2.89768e-08
-1.8252e-07
4.61914e-06
5.48644e-06
1.93067e-06
-2.65971e-06
1.63969e-06
-2.52905e-06
1.21593e-05
-5.62723e-06
2.72565e-06
-1.35803e-06
4.25964e-06
-4.78538e-06
5.32255e-06
-5.6615e-07
5.66916e-06
-9.32643e-06
9.02173e-06
-2.01759e-06
-7.06873e-07
-2.93688e-06
4.85856e-07
3.15789e-06
3.27464e-06
-2.96838e-06
2.84096e-09
-3.09137e-07
5.58268e-07
-3.24952e-06
-8.42048e-07
3.53339e-06
-3.34197e-06
-2.6163e-07
-6.27744e-07
4.23136e-06
-3.14659e-06
2.67336e-06
-2.33651e-07
2.66408e-06
-2.53601e-06
-4.2227e-06
3.5541e-06
-1.00035e-06
2.64668e-06
-3.42531e-06
4.49021e-07
-2.91217e-08
-3.10796e-06
3.38191e-06
-2.84551e-06
2.45651e-06
-1.33158e-07
7.11435e-07
-2.45664e-06
2.31926e-06
-5.74121e-07
3.03924e-06
2.4413e-06
-2.83389e-06
2.67124e-06
2.90736e-06
2.45343e-07
2.73308e-06
2.82151e-06
-1.88904e-06
2.12155e-06
6.94693e-07
2.44063e-06
-2.86387e-06
2.77833e-06
-2.76611e-07
2.64209e-07
9.93458e-07
1.21806e-07
1.80994e-06
2.62927e-06
-3.05155e-06
3.80416e-06
-3.64054e-06
3.16016e-06
3.04701e-06
-3.69613e-06
-3.12235e-06
-4.61611e-06
4.48897e-06
3.13808e-07
-1.12409e-06
3.43952e-06
-5.93647e-07
8.2648e-08
-4.32908e-06
-4.55722e-07
-1.87807e-06
-1.23545e-08
-9.37456e-07
-6.37137e-07
5.28252e-06
-9.11221e-07
2.09688e-06
-3.11875e-06
-4.11027e-06
3.97371e-06
-1.07402e-06
-5.89009e-07
-2.92837e-06
9.93189e-07
2.52422e-06
-3.5525e-06
-9.28133e-08
4.18155e-07
3.22715e-06
7.08689e-07
-6.21601e-07
-2.11547e-06
2.02842e-06
3.46688e-06
-2.61505e-07
-3.56561e-06
3.60255e-07
2.93843e-06
-4.11788e-06
5.90482e-07
-3.49438e-06
2.88032e-06
2.5176e-06
-3.16857e-06
-2.68084e-07
1.19507e-07
-1.69083e-06
-9.73772e-07
2.54504e-06
2.51303e-07
-3.6361e-07
1.11946e-07
-1.42157e-06
-1.3898e-06
2.81129e-06
1.74911e-06
-8.74544e-07
-8.75175e-07
2.57509e-07
-2.79166e-08
-1.11396e-07
-1.12161e-06
1.63032e-06
2.54318e-06
-8.22127e-07
-3.49613e-07
-3.39563e-07
-2.33175e-06
3.02091e-06
-2.37955e-06
-1.23953e-06
3.61899e-06
-1.23117e-06
-2.93295e-06
4.1641e-06
4.0129e-06
-1.55775e-06
-2.45507e-06
3.08251e-06
-1.99108e-06
-1.44108e-06
-3.40235e-06
4.10532e-06
4.63353e-06
-2.6117e-06
2.09446e-07
2.53989e-06
-2.17661e-06
-5.72757e-07
-1.34837e-06
1.79768e-06
-4.49247e-07
-1.68059e-06
3.44941e-06
-1.76877e-06
2.71116e-06
-2.05956e-06
-6.51389e-07
2.23531e-06
-2.05744e-06
3.17277e-08
-1.40832e-06
2.29529e-06
3.08891e-06
-2.4352e-06
-1.61052e-06
2.88936e-06
-1.37162e-06
-6.03904e-07
2.00918e-06
-2.02688e-06
2.38024e-06
-2.03436e-06
-6.07451e-07
-5.5559e-08
1.98187e-06
-1.1847e-06
-7.41784e-07
-1.59629e-06
-2.49038e-06
2.47612e-06
-2.4683e-06
-1.62012e-06
-9.25747e-07
-1.7082e-06
-1.29599e-06
2.49447e-06
1.96535e-06
-8.58136e-07
-2.66066e-06
-1.83081e-06
3.10153e-06
1.17573e-06
-2.00582e-06
2.83924e-06
9.30723e-08
1.08704e-06
1.23625e-06
1.36334e-07
2.1264e-06
-1.28811e-06
-2.72214e-06
2.3271e-06
-1.63187e-06
2.63977e-06
-2.13427e-06
-1.20607e-06
1.81895e-06
1.46044e-06
3.87753e-06
-1.88847e-06
-8.4505e-07
-9.87474e-08
-1.77837e-06
8.65251e-08
-1.17575e-06
2.53745e-06
-1.82866e-08
2.31978e-06
9.60772e-07
-3.07039e-06
-3.28788e-06
1.82848e-06
1.5693e-06
-2.53007e-06
4.55517e-08
3.00103e-06
-1.38192e-06
-1.28779e-06
2.50248e-06
9.5719e-07
2.25708e-07
3.66953e-06
2.04939e-06
-8.32558e-07
4.06522e-07
-1.019e-06
-3.76054e-06
2.78511e-06
1.80155e-06
-1.00177e-06
-4.32981e-07
-3.85669e-06
2.90308e-06
-2.72198e-06
-3.69733e-07
2.28877e-06
1.30913e-06
-4.06484e-06
-1.41689e-07
2.89754e-06
2.47009e-06
-2.59985e-06
-3.28186e-07
1.46101e-06
-1.97507e-06
-3.51876e-06
2.25776e-06
1.13654e-06
-6.41457e-07
-1.07306e-06
-3.13879e-07
1.16725e-06
3.22675e-06
-5.15685e-06
1.64026e-06
-1.60857e-07
3.67756e-06
1.60508e-07
5.02342e-07
3.47594e-06
3.12344e-06
8.92532e-07
-2.45699e-07
3.78938e-06
-4.67851e-06
5.75349e-07
-4.88509e-06
3.51757e-06
3.82342e-06
-9.01209e-07
-2.34618e-07
1.77761e-06
-1.94462e-06
1.844e-06
-1.67428e-07
2.98221e-07
2.00574e-06
-3.71285e-07
1.66538e-06
-3.38883e-08
1.49157e-06
-1.84385e-06
-2.09888e-06
1.64583e-06
1.51473e-06
-2.85816e-07
-3.85003e-06
1.87887e-06
1.50361e-06
4.82153e-06
-6.09973e-06
1.78715e-06
-2.72986e-06
6.23747e-07
9.38363e-07
-2.05771e-06
-3.55346e-06
-2.51438e-06
2.21795e-06
-3.05161e-06
-2.30324e-06
-3.56763e-06
-5.25309e-06
3.27531e-06
1.34786e-06
-3.00928e-06
-2.1963e-06
-4.99757e-06
3.12954e-06
5.94142e-06
-5.47452e-06
4.35467e-06
-6.92603e-07
-2.34159e-06
1.45874e-08
-2.60605e-07
3.86073e-06
-2.44217e-06
-3.86256e-06
3.92225e-06
1.21821e-06
-1.60652e-06
1.39275e-06
3.11683e-06
1.79191e-06
1.77724e-06
-8.75139e-07
-5.72118e-07
5.32813e-07
1.70895e-06
-3.85043e-07
3.29131e-06
-6.06844e-07
-9.47665e-07
-6.69078e-07
-2.33982e-06
-1.01723e-06
-2.46077e-06
2.6511e-06
2.53948e-06
-2.1309e-06
-5.39192e-07
1.37566e-06
-4.67276e-07
6.22622e-07
-1.53066e-06
1.68426e-06
1.62963e-06
-1.40619e-06
-1.9075e-06
-1.98913e-06
1.58076e-06
-1.49822e-06
1.90667e-06
-7.9603e-07
1.42248e-06
1.0028e-06
-1.62888e-06
5.96476e-07
2.35649e-06
-1.57695e-06
3.38586e-06
-1.10487e-06
4.04814e-07
1.15578e-06
1.80156e-06
2.21447e-06
2.85143e-06
-1.58816e-06
-3.47776e-06
3.71177e-06
-2.42316e-06
-4.56176e-06
-4.59145e-06
3.65365e-06
-2.67544e-06
-8.84952e-07
2.28733e-06
-4.27494e-06
9.03583e-07
6.56845e-06
-5.25745e-06
6.28221e-06
-1.66678e-06
1.61124e-06
4.07237e-06
2.01136e-06
-2.82041e-06
-2.33983e-06
3.14909e-06
5.66653e-06
-4.25182e-06
-4.4162e-06
-4.48227e-06
-4.58813e-06
6.30896e-06
-3.23053e-06
-3.35215e-06
3.92164e-06
-1.25134e-06
6.76081e-06
-3.49815e-06
8.54804e-06
-4.13293e-06
-1.11749e-06
4.64775e-06
1.48947e-06
-9.33812e-07
8.61249e-07
-1.4165e-06
1.22054e-06
6.93695e-07
-5.4069e-06
-4.50588e-06
-2.02709e-06
2.07316e-06
6.97703e-07
3.11765e-06
-7.14077e-06
2.49405e-06
5.92178e-06
-6.92632e-06
5.45145e-06
-1.73683e-06
2.5954e-06
4.02415e-06
4.34145e-06
4.10659e-07
-3.12257e-06
-2.69205e-06
-3.24953e-07
4.59773e-06
5.28465e-07
3.17413e-06
-2.2799e-06
-1.83918e-06
5.9293e-07
7.78834e-06
-6.5421e-06
2.60172e-06
1.2869e-06
4.52923e-07
1.71126e-06
2.75565e-06
-3.30789e-06
4.99546e-06
5.17895e-06
-1.91692e-06
-2.22113e-06
5.10145e-06
-4.05751e-09
7.11786e-06
-3.46007e-06
-3.47331e-06
5.31445e-06
-2.16618e-06
2.45571e-06
3.17617e-06
4.30695e-06
2.328e-06
-2.62518e-06
6.6309e-06
2.11593e-06
-2.71369e-07
2.7532e-06
-6.27239e-08
2.30318e-06
5.03607e-06
3.44596e-06
-7.21126e-06
1.13811e-06
4.04616e-06
-2.85677e-06
2.08295e-06
2.88976e-06
2.07597e-06
-5.3752e-06
2.46901e-07
2.22267e-06
-6.00919e-06
4.91469e-06
-7.80629e-07
3.55176e-06
-4.8272e-06
-2.21051e-06
1.02309e-06
2.72291e-06
-2.72288e-06
1.18148e-07
-2.78112e-06
2.82585e-06
2.43806e-07
8.17632e-08
2.8093e-06
-2.98625e-06
9.58778e-08
1.17328e-08
2.4667e-06
-2.5013e-06
2.78783e-06
-8.60222e-08
-9.83006e-08
1.05222e-07
2.75508e-06
-2.82901e-06
2.73855e-06
3.14992e-06
-2.9891e-06
4.04397e-07
-3.28627e-06
6.16693e-07
3.66793e-06
-8.01702e-09
-3.58185e-06
5.35868e-07
3.05473e-06
5.80454e-07
-3.21983e-06
2.99971e-06
3.40493e-06
-2.17965e-07
-2.81335e-07
4.00206e-07
3.23178e-06
-2.8691e-06
2.94241e-06
2.84528e-06
3.39009e-07
-3.50503e-06
3.21493e-07
-3.73069e-06
-4.40024e-08
5.3755e-07
3.23806e-06
5.45725e-07
-4.53348e-06
4.23005e-07
3.56527e-06
1.27792e-06
-1.47104e-06
-3.24825e-06
3.44204e-06
3.76232e-06
-5.3486e-07
-3.81675e-07
-5.31139e-07
5.62884e-07
4.10454e-06
-3.36132e-06
4.1191e-06
3.49786e-06
1.19143e-07
-4.0937e-06
-4.69844e-06
2.10785e-06
4.77708e-06
-3.12926e-06
2.95681e-06
-5.58395e-06
5.75703e-06
3.83742e-06
-9.85738e-06
8.1789e-06
6.02352e-06
-4.18058e-07
-4.03593e-07
1.72901e-06
9.89676e-06
-6.47703e-06
6.36391e-06
-1.74178e-07
2.90243e-06
2.70168e-07
3.00044e-06
-4.61061e-07
2.47379e-06
-2.90131e-07
-3.06607e-06
2.86321e-06
-7.44945e-07
-3.01057e-06
5.34598e-08
2.78295e-06
-1.93087e-09
-2.99863e-06
-5.26659e-07
-2.30737e-07
1.44196e-07
1.09105e-07
-4.65681e-07
-3.57841e-06
-4.52255e-07
4.49032e-07
3.43844e-06
-6.52498e-07
2.14896e-07
2.76587e-06
-2.13501e-07
6.09083e-09
2.96608e-06
2.58904e-07
-6.0624e-07
-2.48271e-07
3.27222e-06
-3.48478e-06
3.10264e-06
-3.27337e-06
-3.32645e-06
4.68982e-06
4.0548e-07
6.19737e-06
-3.64557e-06
2.23058e-07
3.08809e-06
-3.55866e-06
2.79929e-06
-1.20184e-06
4.69598e-06
2.95885e-06
-1.81833e-07
4.9082e-06
4.02059e-07
3.82208e-06
-3.8073e-06
3.3111e-06
-1.05216e-06
3.62933e-06
3.46199e-06
-7.84214e-07
3.07986e-06
-3.20445e-06
1.6475e-07
2.67017e-06
1.40103e-06
-4.99275e-06
1.10417e-07
3.48151e-06
1.29214e-07
-3.58487e-06
3.31404e-06
2.73815e-06
-3.26814e-06
2.01735e-07
-8.53396e-07
-2.23815e-06
-1.12779e-07
-2.89855e-06
3.44627e-06
-5.73036e-07
-3.34234e-06
-7.0468e-06
2.33266e-06
1.90549e-07
4.52356e-06
3.29152e-06
-8.85489e-06
6.60831e-07
4.90259e-06
-2.68028e-07
1.2089e-06
-5.71975e-06
4.77883e-06
3.08362e-06
8.2046e-07
-4.27381e-06
3.69834e-07
-3.1833e-06
-3.95679e-06
9.32698e-08
-4.60286e-06
4.7111e-06
-1.92993e-06
1.05672e-06
-6.80078e-06
-5.89428e-06
8.73689e-07
4.85979e-06
2.14616e-07
7.74476e-07
-6.60064e-06
5.61133e-06
1.55306e-06
-6.45056e-06
5.39985e-06
4.03673e-06
7.18647e-07
-5.00111e-06
-1.34843e-06
-4.48739e-06
-5.85027e-08
-6.50574e-06
5.3718e-06
-1.35193e-06
-6.30466e-06
-3.13051e-06
2.83672e-06
1.2642e-07
4.45823e-07
2.68067e-06
-3.06205e-06
-6.41123e-08
-4.29138e-08
2.58767e-06
-2.91603e-06
2.76507e-06
-2.84791e-06
4.91461e-08
-3.81971e-07
-2.78619e-06
3.76533e-08
-2.58524e-06
2.6491e-06
-3.06931e-07
-2.93502e-06
-3.17025e-06
-1.91287e-06
9.04286e-08
-1.8086e-07
-1.18588e-06
-2.21808e-06
-6.02569e-07
-2.72092e-06
5.50415e-08
3.58578e-06
-9.04385e-07
-2.75513e-06
7.37082e-08
7.15287e-07
-2.84792e-06
-1.03762e-06
-2.80795e-06
5.77751e-07
1.59992e-07
-2.83276e-06
-3.71285e-06
4.13267e-06
2.87859e-06
-2.9625e-06
1.42194e-06
-4.57098e-06
4.35793e-06
-5.54793e-07
-4.44017e-06
3.80913e-06
-4.24481e-06
-5.05673e-07
-3.09501e-07
-5.04957e-06
3.98911e-06
-3.93712e-06
-2.54693e-06
-6.88409e-07
-5.5327e-07
4.85624e-07
-5.60033e-07
2.59277e-06
-6.1198e-07
2.2005e-07
-3.30617e-06
-3.16595e-06
3.12263e-08
-7.44546e-07
-4.25492e-06
3.77791e-06
-3.6712e-06
-1.2635e-07
-3.39613e-06
1.37828e-06
-5.17477e-06
-3.39089e-06
-9.22453e-07
-3.57461e-07
-3.48128e-06
-3.96507e-06
1.16204e-06
4.65184e-07
-5.85932e-07
-8.27209e-07
1.35875e-06
-7.22743e-07
1.90848e-07
-1.27079e-06
1.87568e-06
4.71857e-07
1.07119e-06
1.79327e-06
-5.97914e-07
1.56139e-06
1.56148e-07
-5.55517e-07
3.93757e-07
3.40195e-07
2.42965e-06
1.55257e-06
1.6109e-06
-1.45133e-06
-1.30439e-06
1.14444e-06
-2.16692e-06
-6.7652e-07
1.07081e-06
1.77257e-06
-1.09473e-06
-2.21227e-06
1.32999e-06
1.97701e-06
1.35095e-06
-2.84829e-06
-8.57112e-07
2.35441e-06
3.03954e-06
-4.23011e-07
-1.00574e-06
-4.15244e-07
1.28778e-06
3.81967e-06
-2.89176e-06
2.30969e-06
1.9038e-06
-1.7585e-06
4.45246e-07
-5.97046e-07
-1.17315e-06
6.46976e-07
1.1218e-06
2.54083e-07
-1.07466e-06
1.05968e-07
-1.89025e-06
2.88254e-06
3.42174e-06
1.5573e-06
1.54737e-06
-1.20175e-06
6.09232e-07
3.50433e-07
-5.62245e-08
8.07074e-07
2.33523e-06
1.29153e-06
-1.41741e-07
-2.98983e-06
9.15518e-07
-1.05759e-06
3.1315e-06
2.54018e-06
-2.276e-06
5.1418e-06
-2.28733e-07
9.3138e-07
2.127e-06
5.3168e-06
-8.1973e-07
-2.16211e-06
4.43574e-07
1.88307e-06
4.48389e-06
7.46764e-06
-1.39034e-07
2.34897e-06
-8.51693e-07
-8.99417e-07
2.52732e-06
2.47625e-07
3.22757e-06
-1.29867e-06
-1.3584e-07
-2.22131e-06
4.08429e-06
-6.77421e-07
-1.18555e-06
-2.23602e-06
-1.8603e-06
3.95716e-06
-1.58307e-06
-3.50848e-06
-5.73275e-07
-1.86406e-06
-2.71218e-07
1.16878e-06
1.74055e-06
-5.04641e-07
-3.06006e-06
-1.40705e-07
9.88343e-07
1.48383e-06
3.39729e-07
7.03581e-07
2.01827e-06
1.6677e-06
8.67019e-07
1.94937e-06
1.20216e-06
-2.43732e-07
-1.68697e-06
2.92476e-06
3.69022e-06
-3.17618e-06
3.41397e-06
1.28086e-06
1.72841e-06
8.31199e-08
1.95377e-06
1.90919e-06
-6.16082e-07
3.85025e-06
1.50594e-06
1.26604e-06
3.34479e-06
5.47725e-07
2.36131e-06
-3.21094e-06
1.89669e-06
-1.69782e-06
2.00159e-06
3.41842e-06
-1.45341e-06
2.51271e-06
-4.27715e-06
-1.15792e-06
2.50675e-06
3.38671e-06
-4.85753e-06
-6.44515e-07
2.0518e-06
-2.76345e-06
-1.02032e-06
1.73201e-06
-5.06745e-07
-4.67174e-06
1.61295e-06
-5.40347e-06
-2.0421e-06
-8.57971e-07
-1.15873e-06
-5.41724e-06
2.86852e-06
-4.22343e-06
-4.65395e-06
7.44528e-07
1.57744e-06
-1.0983e-06
2.29098e-06
-4.12561e-06
1.3038e-06
1.80411e-06
6.79475e-08
-3.17573e-06
4.79622e-06
-3.25293e-06
-3.99791e-06
-1.15226e-06
-6.1131e-06
-4.68332e-06
2.4329e-06
-1.39332e-06
7.69521e-08
-4.77282e-06
-1.8201e-06
1.55338e-06
-8.14171e-07
1.08094e-06
9.91811e-07
1.41457e-06
-5.83066e-07
-1.82328e-06
1.46299e-06
-2.59778e-07
3.40914e-07
-1.544e-06
-5.4094e-07
1.46616e-06
7.70469e-07
-1.69561e-06
-2.53647e-06
-9.86027e-07
1.70242e-06
-1.00934e-06
-5.35302e-07
-2.08475e-06
5.57807e-07
-1.6311e-06
-3.59327e-06
1.97356e-06
-5.56874e-07
-5.19662e-06
7.00203e-06
-3.57408e-06
6.57306e-09
-9.10356e-07
3.8078e-06
-2.90375e-06
7.45053e-06
-5.98536e-06
-3.5242e-06
7.9693e-07
-6.82518e-06
-5.8049e-06
1.40542e-06
1.7131e-06