/*--------------------------------*- C++ -*----------------------------------*\
| =========                 |                                                 |
| \\      /  F ield         | OpenFOAM: The Open Source CFD Toolbox           |
|  \\    /   O peration     | Version:  2506                                  |
|   \\  /    A nd           | Website:  www.openfoam.com                      |
|    \\/     M anipulation  |                                                 |
\*---------------------------------------------------------------------------*/
FoamFile
{
    version     2.0;
    format      ascii;
    arch        "LSB;label=32;scalar=64";
    class       volVectorField;
    location    "300";
    object      U;
}
// * * * * * * * * * * * * * * * * * * * * * * * * * * * * * * * * * * * * * //

dimensions      [0 1 -1 0 0 0 0];

internalField   nonuniform List<vector> 
42368
(
(0.00371944 -0.000693706 1.00243)
(-0.0183447 0.0390984 0.97651)
(-0.0804256 0.0204881 1.03195)
(-0.0589378 -0.00713999 1.02649)
(0.0284109 0.0114508 0.991571)
(-0.0379369 0.0214699 1.00282)
(0.0133001 0.0309034 0.995667)
(-0.0283257 0.0455314 1.00939)
(-0.340451 0.264261 0.608171)
(-0.335297 -1.55538 4.07959)
(-0.170749 -0.878768 2.9432)
(-0.941432 -0.889692 2.51925)
(-0.267922 -0.356534 2.15642)
(0.246426 -1.18996 3.13725)
(-0.22858 -0.900197 2.74668)
(0.132878 -0.973613 3.21573)
(-0.138551 0.0172747 1.09873)
(-0.306668 -0.456247 2.67541)
(-0.240935 -0.0649041 2.58919)
(0.155086 -0.46014 2.48586)
(0.5835 -0.25197 2.23094)
(-0.239481 -0.202538 2.73094)
(0.438795 -0.326226 2.50466)
(-0.241443 -0.163228 2.70115)
(-0.417643 -0.0358861 1.70386)
(-0.829504 -0.633543 3.64007)
(-0.341622 -0.694107 3.61488)
(-0.759832 -0.223646 3.71657)
(-0.845978 -0.695816 2.95604)
(-0.714986 -0.458792 3.54345)
(-0.651873 -0.405728 3.61346)
(-0.442112 -0.593993 3.68273)
(-0.249338 0.124314 1.36328)
(0.02818 0.0313691 1.24161)
(-0.283266 -0.0128631 1.36477)
(-1.02228 -0.544849 2.51939)
(-0.142295 0.116608 1.28468)
(-0.0765655 0.140346 1.3983)
(-0.449244 0.0331392 1.44394)
(-0.367097 -5.66909e-06 1.53391)
(-0.443068 0.154565 1.04927)
(-0.448498 -0.503179 2.93197)
(-0.159073 -0.715291 2.71564)
(-0.156167 0.0411692 1.08767)
(-0.368146 0.18158 1.05482)
(0.337762 -0.722912 2.65709)
(-0.233699 0.0678697 0.943118)
(0.201618 -0.302693 2.83194)
(0.101677 0.00893442 1.45677)
(-0.207984 0.14434 1.53145)
(-0.844642 -0.773891 2.79686)
(-0.535421 -0.49434 2.99104)
(-0.32724 -0.019818 1.83524)
(-0.3648 0.0337763 1.43069)
(-0.635238 -0.32539 3.06485)
(-0.396153 -0.647761 2.77744)
(-0.0650773 -0.0335327 1.21498)
(-0.0663735 -0.802982 2.38078)
(-0.295402 -0.775712 2.9023)
(-0.286403 -0.360888 2.72394)
(0.11966 -0.357372 2.69194)
(-0.0293047 -0.761668 2.51912)
(0.191046 -0.399057 2.65371)
(-0.167255 -0.769973 2.57128)
(0.223378 0.346429 1.88201)
(0.35078 0.24887 2.24734)
(0.359556 0.319439 1.79322)
(0.650538 0.383142 2.00125)
(0.436166 0.388321 2.25448)
(0.314673 0.338115 2.11682)
(0.797659 0.48332 2.23543)
(0.469772 0.361078 2.0666)
(0.875332 0.0560974 3.38185)
(0.591858 -0.278611 3.15364)
(0.573863 0.418094 2.77829)
(-0.0238967 -0.196549 1.75291)
(-0.701084 -0.315134 2.39837)
(0.595152 -0.304141 3.09953)
(-0.91195 0.168266 2.4417)
(0.400292 0.34874 2.94624)
(0.351214 0.0146821 2.97246)
(0.336395 0.405587 3.02861)
(-0.326265 -0.195256 2.86481)
(-0.707104 0.0285626 1.49229)
(-0.22021 0.221702 2.38435)
(0.295721 -0.0930555 3.13692)
(-1.61886 0.215464 2.11712)
(-0.13432 -0.146218 3.20924)
(0.779783 0.399323 2.08664)
(0.695069 0.181284 2.01218)
(0.584842 0.526898 2.30664)
(0.248422 0.0422604 1.36947)
(0.362059 0.290667 1.53699)
(0.634504 0.390896 2.22139)
(0.0281827 0.447054 1.54277)
(0.487122 0.166496 2.00754)
(0.881729 0.568601 3.1672)
(0.656105 0.280479 2.87762)
(0.443134 0.190528 2.27124)
(0.216532 0.643083 2.71064)
(0.66894 0.562073 3.04012)
(0.916941 0.632961 3.61736)
(0.66027 0.48542 3.08834)
(1.11908 0.680488 3.09829)
(0.81304 -0.0400031 3.29043)
(0.0264091 -0.00221182 1.54983)
(0.374265 0.145899 3.32819)
(0.70184 0.271658 2.73501)
(0.807151 0.248042 3.20214)
(-0.617796 0.278196 2.46399)
(0.55225 -0.108777 3.33228)
(-0.611009 0.210845 2.28655)
(0.958248 0.757438 3.41929)
(0.602725 0.14899 2.38363)
(0.483978 0.742746 2.7295)
(0.329983 0.94534 2.69909)
(1.61907 0.437842 3.51771)
(0.819822 0.686371 2.81309)
(0.6165 0.748634 2.61875)
(0.0558505 0.56312 2.59609)
(0.496709 0.132818 3.15179)
(-0.173173 0.344036 2.24454)
(-0.0697543 0.286413 1.96664)
(0.252476 0.340412 2.64366)
(-1.28511 0.115007 2.01125)
(-0.559519 -0.187954 1.6611)
(-0.428605 0.39957 2.43474)
(-0.227758 -0.148257 1.99285)
(-0.879911 -0.498222 0.50771)
(-2.28397 -0.509335 -1.59527)
(-0.702708 0.295923 3.24687)
(-0.123132 0.0108497 1.17967)
(-1.02355 0.469215 -0.0146432)
(-0.268997 -1.02454 1.33561)
(-0.0402407 -0.374225 2.00658)
(0.0421626 0.315021 1.75108)
(-0.465652 -0.486301 -1.02892)
(0.292708 -0.16193 1.01298)
(-0.145562 -0.0106728 2.79821)
(0.131974 0.0712526 1.38271)
(0.318231 0.290041 0.86113)
(0.0100452 -0.426712 0.62872)
(0.6954 -0.471754 0.940158)
(0.617064 -0.242058 1.19671)
(-0.319015 0.217914 2.73984)
(-0.0140454 0.00261078 2.44321)
(-0.179215 0.107746 2.33717)
(-0.403111 -0.0788598 2.01836)
(-0.0861811 0.247411 2.41468)
(-0.130703 0.230672 2.42881)
(-0.897255 -0.272182 2.74798)
(-0.814517 -0.204903 2.69125)
(0.0483825 0.043112 1.04742)
(0.0424827 -0.0380546 1.05295)
(-0.0133732 -0.00911761 1.12594)
(-0.0293277 -0.0125916 0.975404)
(0.0474762 0.017735 1.03234)
(0.0477508 0.00684005 1.02052)
(0.00113843 0.0327902 0.953783)
(0.00841961 -0.00986983 0.975379)
(-0.0372542 0.251927 -0.312092)
(-0.56284 0.239023 2.99669)
(-0.225365 -0.157093 1.3229)
(-0.0441467 -0.105125 1.27065)
(0.380595 -0.364424 1.59217)
(0.290288 -0.0625736 1.19078)
(-0.0613298 -0.0168012 1.24521)
(-0.188041 -0.0316098 1.36922)
(0.0474266 -0.74404 1.24351)
(-0.0342589 0.0563679 1.42208)
(-0.160011 0.0430771 2.9371)
(-0.474367 0.294496 3.11395)
(0.492084 0.0751393 1.13943)
(0.446037 -0.225378 1.06688)
(-0.327594 0.20224 3.03975)
(-0.181918 -0.0318315 2.97456)
(-1.19549 -0.241649 3.47042)
(-0.101672 -0.125085 0.827391)
(-0.0627083 -0.179331 0.942563)
(-0.247305 -0.186788 1.55521)
(-0.715465 -0.110047 2.37034)
(-0.0514179 -0.0934346 0.883305)
(-0.523631 -0.129156 2.19391)
(-0.0465338 -0.391114 1.17595)
(-0.989041 -0.191624 3.27252)
(-0.203885 -0.200198 1.63515)
(-0.0742033 -0.25052 1.4081)
(-0.65939 -0.122915 3.23665)
(-0.960537 -0.213552 3.26448)
(-0.595078 -0.0856179 2.22157)
(-0.710312 -0.222668 3.03953)
(-0.596229 -0.176928 2.56105)
(0.0119221 0.0333845 0.995728)
(-0.00241679 0.01191 0.999502)
(-0.0878093 0.105722 0.92115)
(0.031595 0.0786289 1.01827)
(0.023744 0.0422815 0.998216)
(0.00244059 0.0180576 1.02325)
(0.0155184 0.0493672 1.00844)
(0.00490549 0.0244217 1.02129)
(-0.0305743 -0.0248157 0.985119)
(0.0238493 -0.0449288 0.987318)
(-0.237875 0.0123988 0.322363)
(0.0658112 -0.0347051 1.00654)
(-0.00066504 -0.0350292 0.999307)
(-0.0153225 -0.0413081 0.979013)
(0.0295181 -0.0826752 0.994178)
(0.0815366 -0.0655758 0.97089)
(-0.111774 0.0144518 1.32104)
(0.362332 -0.291984 1.88719)
(0.300768 -0.502761 4.38193)
(0.102484 -0.0721522 1.59218)
(-0.117409 -0.128952 1.26585)
(-0.127837 -0.195956 1.44557)
(0.000493081 -0.0594851 1.36721)
(0.0948549 0.0396825 1.81722)
(0.0746666 0.0979566 1.09793)
(0.0537129 -0.00500749 1.07196)
(-0.0404375 0.0571702 1.16163)
(0.141449 0.116382 1.23682)
(0.0897859 0.118409 1.12879)
(0.0427317 0.0107377 1.11065)
(0.085782 0.0979627 1.18909)
(0.0278225 0.0868642 1.17131)
(-0.000301947 -0.000476187 1.01344)
(-0.0638447 0.100774 0.913533)
(0.0604449 0.0866796 1.0403)
(0.034955 0.00166946 1.02344)
(-0.00727454 0.00235736 1.01618)
(0.0136331 0.0286184 0.997067)
(0.00590602 0.00680898 1.00627)
(0.0200289 0.0266342 1.02449)
(0.0028728 0.0107644 1.05316)
(0.0552149 -0.0642238 1.04178)
(-0.191378 -0.0531936 0.449942)
(-0.132898 0.032617 0.922462)
(-0.0333597 0.0383027 1.06643)
(0.0603942 -0.0556607 1.03653)
(-0.119578 0.0640113 0.905115)
(-0.130533 -0.0634766 0.864382)
(-0.04918 0.0507457 0.916643)
(0.0611219 0.0775194 1.07447)
(0.0441609 -0.00751397 1.06318)
(-0.0320272 0.0109052 1.02368)
(-0.0239275 0.0847178 0.971049)
(0.0377296 0.050108 1.046)
(-0.0113345 0.0922347 0.994813)
(0.0284826 0.0258924 1.05496)
(-0.147665 0.0203063 0.87548)
(0.00240827 0.0497349 1.02141)
(0.0864396 0.00631552 1.10046)
(0.254952 -0.123406 1.10514)
(-0.0586807 -0.0394758 0.919764)
(0.00680644 0.0353449 0.966223)
(0.197837 -0.192044 0.977299)
(0.19628 -0.110346 1.08512)
(0.163803 -0.166598 2.35232)
(-0.734495 0.222025 2.19851)
(-0.387255 -0.513677 4.3139)
(1.66486 0.204263 1.65942)
(-0.444306 -0.141915 1.6172)
(-1.41362 -0.606047 3.92442)
(2.29723 0.403469 1.15225)
(-0.107395 -0.0739706 2.04168)
(-0.415867 0.339685 2.92478)
(0.0294758 -0.502588 4.2723)
(-0.0696604 -0.784952 4.63386)
(0.134182 0.0900438 2.36387)
(-0.429755 -0.86694 3.80904)
(-0.105268 -0.298574 5.24424)
(-0.559562 -0.360673 2.71324)
(0.0895716 -0.839693 3.78924)
(-0.710076 -0.709441 3.37317)
(-0.217328 0.687867 2.641)
(-0.0884673 0.495736 2.73607)
(0.340382 0.213646 2.05353)
(0.104574 0.0986927 3.03281)
(-0.168368 0.102934 3.20939)
(0.599484 0.652037 2.09547)
(0.0984611 0.163796 2.51053)
(0.56636 -0.0250249 1.93805)
(-0.0360383 0.0507509 1.5373)
(0.499935 0.376187 2.06461)
(0.438919 0.134906 1.55565)
(0.573322 0.375021 1.91567)
(0.153707 -0.0316687 1.42482)
(0.718014 0.459888 2.24426)
(0.501866 0.241141 1.7737)
(-1.07656 -0.731437 2.25094)
(0.0546573 -0.129994 2.68583)
(0.283088 -0.0099841 1.65948)
(0.291673 0.124904 1.95549)
(-0.510882 -0.48619 1.47187)
(-0.160083 -0.49784 -0.385916)
(0.454808 0.0916497 2.39994)
(-0.159254 0.0949832 0.395736)
(-1.4283 0.0325489 3.83378)
(0.731174 -0.0622668 1.95039)
(-0.354005 0.395844 3.69867)
(-1.02945 -1.83205 2.94305)
(-0.617719 -0.758363 2.16494)
(1.61791 -1.11606 2.37341)
(-2.09863 0.219545 3.24445)
(-0.279456 -0.339243 2.08321)
(1.32386 1.0856 2.62817)
(0.848522 -0.258108 2.49747)
(-0.161513 -0.00823186 2.18113)
(-0.355932 0.155567 1.35994)
(0.954226 0.320481 2.59877)
(-0.132757 0.324107 1.33367)
(0.199842 -0.0712407 1.61604)
(-0.74788 0.0819639 -0.0360883)
(-0.0905611 0.0399037 2.51227)
(0.229579 0.342381 1.75019)
(0.187521 -0.142169 2.14787)
(-0.375335 -0.364025 2.60032)
(1.09392 0.400791 2.39608)
(0.999263 0.342581 2.15057)
(-0.497285 -0.554448 1.19687)
(0.0083014 0.13142 2.21687)
(-0.0173441 -0.0197295 1.01257)
(-0.0862287 -0.0386736 1.06297)
(-0.0357045 -0.0464307 1.15982)
(-0.0670029 0.0254234 0.965789)
(0.0131182 -0.00414228 0.985872)
(0.00649044 -0.0190911 1.05235)
(-0.0238548 0.0206196 1.02291)
(-0.00704182 -0.023907 1.04267)
(0.110419 -0.219102 0.987599)
(-0.281534 0.129184 2.5294)
(0.580225 0.000357821 1.44682)
(0.211877 -0.436532 2.20189)
(0.323328 -0.28057 1.97841)
(0.720593 -0.175263 1.25224)
(0.146965 -0.0903741 2.05795)
(0.50733 -0.2136 1.6473)
(-0.156878 -0.0672027 1.66892)
(0.00772522 -0.15875 1.79167)
(0.0571232 -0.253623 2.01603)
(-0.115985 -0.0236173 1.72942)
(0.108838 -0.0335227 1.19648)
(-0.0869288 -0.0877056 1.58122)
(-0.0437901 0.0229682 1.43973)
(-0.0539607 0.000365297 1.41599)
(-0.33657 0.120442 1.34094)
(-0.374388 -0.879994 3.18016)
(-0.664893 -0.216696 2.7603)
(-0.653488 -0.22697 3.54636)
(-0.617742 -0.176399 2.84216)
(-0.1777 -0.264233 2.9245)
(-0.853259 -0.0871964 2.86652)
(-0.556112 -0.182443 2.89777)
(0.0305534 -0.0682744 1.23108)
(-0.0142497 -0.0216015 1.05033)
(-0.152185 0.0910004 1.30358)
(-0.479819 -0.294101 2.4332)
(-0.149287 0.095104 1.25994)
(-0.01535 -0.0600098 1.04853)
(-0.22604 0.1308 1.39745)
(-0.112064 0.0566388 1.42998)
(0.349786 -0.0283925 1.36336)
(0.0455045 -0.207979 2.50041)
(0.183459 -0.107725 1.41655)
(-0.0317027 -0.086902 1.23912)
(0.170329 0.00438547 1.37981)
(0.0486317 0.0286767 1.36344)
(0.135358 -0.0325973 1.4235)
(0.249519 -0.0456698 1.2651)
(-0.0219049 0.0339611 1.25207)
(-0.0401807 0.0831707 1.30867)
(-0.671612 -0.0544324 2.51838)
(-0.10554 0.0968844 1.36156)
(-0.0266911 -0.0446348 1.38889)
(-0.11798 0.0300705 1.41246)
(-0.126511 0.1197 1.4689)
(-0.192644 0.428575 1.76508)
(0.0151679 -0.0506877 1.23048)
(-0.0871774 0.000722801 1.56803)
(-0.302831 0.0739885 2.61323)
(0.301237 0.0671087 1.42839)
(0.0742668 0.141496 1.15923)
(-0.210589 0.0447172 1.91239)
(-0.0822304 0.0761504 1.7192)
(-0.302622 -0.0138218 2.71498)
(-6.67976 1.07454 -6.8517)
(-2.02338 -0.822908 -1.78517)
(1.98878 0.658955 -2.94295)
(0.393931 2.41584 4.70822)
(-0.66762 0.256643 3.212)
(-0.437262 -0.736846 2.89859)
(-0.72098 -3.2375 -3.57378)
(-1.06437 0.0832393 3.53649)
(-1.34582 -0.0229498 -0.768276)
(-0.250256 0.335294 0.724742)
(-0.301436 -0.294814 1.05054)
(0.0566494 0.296566 1.40183)
(-0.479035 -0.237038 1.32516)
(-0.959752 -1.69583 1.29564)
(0.236464 0.668285 0.628928)
(-0.229923 -0.343719 1.02817)
(-0.869669 -0.615298 0.963616)
(-0.213405 -0.552156 0.815665)
(0.57174 0.374139 -1.00793)
(0.675092 0.718388 2.43562)
(0.524855 0.167238 0.0599941)
(0.129435 -0.194899 0.389967)
(0.143969 -0.148049 -1.85231)
(0.696336 0.161486 0.298997)
(0.0254802 1.92913 6.64278)
(0.278648 1.30514 1.45516)
(-0.00423344 -0.144657 3.68277)
(-0.101173 -0.198213 1.98135)
(-0.307605 0.702932 4.30774)
(-0.596313 -1.17071 3.13532)
(0.369484 0.697454 3.63272)
(0.0375446 -0.206775 3.59322)
(0.243138 -0.800228 1.5949)
(-0.75873 -0.258814 2.70426)
(0.108058 2.22368 3.1792)
(0.1642 1.12778 1.39784)
(-0.235615 0.813714 1.48834)
(-1.40438 -0.757172 2.87954)
(-0.238197 1.26149 0.726871)
(-1.40743 0.713105 2.44259)
(0.406799 -1.42207 -0.116908)
(-0.739886 -0.213421 1.83883)
(-1.13111 -0.0276381 1.34415)
(-2.12082 -0.64833 2.33442)
(-0.615686 0.674608 1.38427)
(-0.488449 -0.603621 0.795417)
(-1.18264 0.896899 1.35245)
(-1.16661 -0.0334965 0.973444)
(0.281792 -0.951259 0.500845)
(3.09652 1.74945 2.48954)
(1.10519 2.13356 1.39632)
(0.695927 0.586999 3.16972)
(1.8514 0.0559572 3.19925)
(1.54949 1.45366 2.62271)
(0.846786 0.429373 3.14785)
(0.717607 1.38768 1.80003)
(-0.74276 -0.691532 0.94476)
(0.714276 0.748751 2.78747)
(0.308517 1.17876 1.69551)
(-0.354862 -0.33573 0.925364)
(0.690001 0.577676 -1.57198)
(0.988008 0.949835 2.00242)
(-0.120715 0.212879 0.114154)
(0.385733 0.965002 1.79012)
(0.812417 -0.0110406 3.51152)
(1.14882 0.237797 3.60903)
(0.690817 0.186945 1.58573)
(0.438546 -0.334474 1.927)
(-0.70732 -0.180733 2.23631)
(-2.00966 -0.110037 2.20478)
(1.05052 -0.311584 1.58797)
(0.652917 0.411379 1.51301)
(0.685977 0.199202 2.68615)
(0.373426 0.437922 1.90715)
(0.543194 0.390836 1.68369)
(0.608658 0.290463 1.96522)
(0.689849 0.469523 2.26111)
(0.528935 0.334481 2.10742)
(0.717196 0.359366 1.93265)
(0.596081 0.341061 1.7299)
(0.0988124 0.0901701 0.973049)
(0.209035 0.158014 1.22751)
(0.0336029 0.0217351 1.01811)
(0.112723 0.0977719 1.05404)
(0.165864 0.164848 0.980022)
(0.146424 0.119422 0.947457)
(0.0924573 0.118635 1.03794)
(0.0473177 0.0356981 1.01659)
(0.776195 0.409482 1.81947)
(0.451899 0.309585 1.67333)
(0.162175 0.112978 1.12388)
(0.261558 0.181038 1.3061)
(0.226403 0.234158 1.47401)
(0.387766 0.278204 1.45219)
(0.254873 0.164062 1.28868)
(0.241521 0.165281 1.20686)
(1.15952 0.408924 3.31507)
(0.613551 0.174546 1.59303)
(0.502789 0.182755 1.96567)
(0.411745 0.256257 2.1921)
(1.06343 0.546569 3.02361)
(0.710432 0.376713 2.03346)
(0.913823 0.348093 3.10638)
(0.665785 0.36341 2.56512)
(0.934021 0.302318 3.2083)
(0.602037 0.34524 1.95424)
(0.411576 0.096734 1.86525)
(0.777459 0.335872 1.62213)
(0.798002 0.443152 2.5875)
(0.493661 0.336658 1.98769)
(1.03946 0.462382 2.87803)
(0.560982 0.363864 2.17985)
(0.44531 0.267372 1.2757)
(0.916 0.324368 1.80692)
(0.516412 0.33444 1.77138)
(0.178371 0.139908 1.13429)
(0.461156 0.142515 1.17265)
(0.483444 0.385697 1.65198)
(0.164877 0.149648 1.27011)
(0.309861 0.211329 1.39636)
(0.222025 0.166637 1.0411)
(0.152735 0.122806 1.02541)
(0.321811 0.225287 1.54434)
(0.169616 0.153154 1.13477)
(0.207271 0.0899809 1.07395)
(0.239689 0.144311 1.14793)
(0.269828 0.203931 1.4481)
(0.233663 0.225796 1.53189)
(-0.430407 0.523542 2.31746)
(-0.244478 0.138266 2.36529)
(-0.448474 0.580593 2.70056)
(0.249189 -0.323572 1.97654)
(0.447796 0.600165 1.80831)
(-0.2012 0.0938826 2.36221)
(-0.188956 0.148138 2.28238)
(-0.601017 -0.307818 2.86919)
(-0.352251 -0.0100478 2.12495)
(-0.0877481 0.147782 1.63469)
(0.355321 0.467602 2.92263)
(-0.265858 0.548615 1.58484)
(-0.661622 -0.051195 1.71494)
(-0.0547421 0.209882 1.72134)
(-0.0428957 0.340871 1.74211)
(0.602754 0.693662 1.60376)
(-0.795026 0.738853 2.17689)
(-0.54576 0.624696 2.31982)
(-0.712863 0.796535 2.04205)
(-0.363902 0.813118 2.30989)
(-0.738098 0.641937 2.43993)
(-0.676002 0.696419 2.20591)
(-0.638474 0.659659 2.15209)
(-0.619561 0.752131 2.1363)
(0.839366 -1.57427 1.75423)
(0.417686 0.879369 2.63069)
(-0.250681 1.03515 4.01949)
(0.0393241 1.24216 3.00009)
(-4.57733 -4.92992 -4.50742)
(-0.0542976 -0.00872225 2.43128)
(-0.327215 0.695475 2.71837)
(0.340754 1.522 5.06517)
(-0.363688 -0.35832 2.70417)
(-0.257204 0.244052 2.99939)
(-0.928521 -1.02607 2.98355)
(-0.52602 -0.215189 2.4433)
(-0.489814 -0.0796907 2.31297)
(-0.0657793 -0.17981 1.9675)
(-0.38742 -0.104323 2.93517)
(-0.209082 -0.209506 2.32454)
(-0.356632 -0.0291073 2.4416)
(-0.0713423 0.331877 2.00859)
(-0.0539975 0.706606 2.80856)
(-0.296341 0.601273 2.89818)
(-0.0653247 0.240141 1.98138)
(0.105933 0.254207 1.86253)
(-0.124662 0.572351 2.71698)
(0.563144 0.839127 2.42493)
(-0.132882 0.532442 2.93707)
(-0.233993 -0.157586 2.40452)
(0.442568 0.423355 1.83015)
(-0.0759943 0.538713 3.28018)
(0.198895 0.662877 3.09615)
(0.885487 0.861686 2.16016)
(-0.35978 0.229359 2.51571)
(-0.017532 0.0155528 1.05614)
(0.111208 0.942182 2.81043)
(-0.126173 1.15874 3.51883)
(1.01779 1.2298 1.315)
(-0.567957 0.527803 3.28084)
(-0.327349 0.445939 3.3586)
(-0.277993 0.472159 2.92384)
(-0.0912564 0.598831 3.07656)
(0.239885 0.825641 2.29269)
(0.0826148 0.186348 1.23029)
(0.0872393 -0.0323889 1.13014)
(-0.00669499 0.120367 1.19329)
(0.0453336 -0.0853024 1.29996)
(0.0969239 0.126536 1.18994)
(0.0666136 0.0277476 1.12125)
(0.0703523 0.0210136 1.18525)
(0.0495188 -0.0760846 1.20612)
(0.0124136 -0.158485 1.07731)
(0.0119116 -0.0244783 0.992685)
(-0.0303132 0.08606 0.39659)
(0.186046 0.0320661 0.9763)
(-0.098647 -0.329433 1.16445)
(0.0832801 -0.0537067 0.928494)
(0.0548081 -0.0202055 1.0573)
(0.222991 0.244733 0.982745)
(-0.130901 0.130204 1.4576)
(0.577952 -0.275287 2.47102)
(0.445278 -0.168707 4.71979)
(0.453814 0.198794 1.04908)
(-0.456025 -0.529879 1.90142)
(0.393692 -0.0987482 1.86651)
(0.674874 0.538858 2.19022)
(0.497305 0.0592565 3.5498)
(0.20279 -0.0863012 1.14851)
(0.13103 -0.120894 1.33331)
(0.160588 -0.197675 1.35159)
(0.128384 -0.340501 1.68668)
(0.0766265 -0.19353 1.0611)
(0.190872 -0.158845 1.16374)
(0.12381 -0.0680362 1.33938)
(0.224757 -0.0815664 1.52954)
(0.188805 0.0066635 1.19201)
(-0.0399044 0.0487195 1.19144)
(0.0319008 -0.262011 1.06874)
(-0.0836018 -0.41222 1.02592)
(0.0280697 -0.055808 1.06721)
(0.0401874 -0.0621865 1.14136)
(0.0726497 -0.149687 1.0178)
(0.0382538 -0.112037 1.04445)
(0.0448333 -0.00682139 1.14197)
(0.0521116 -0.373984 1.01883)
(0.0239544 0.113875 0.405209)
(0.0139851 0.0335539 1.03795)
(-0.0402523 -0.116434 1.01178)
(0.0179156 -0.173799 1.17658)
(0.00466024 -0.0280573 1.09372)
(-0.304305 -0.200045 0.153084)
(-0.0397219 -0.0291499 1.1205)
(0.17038 -0.0255525 1.18889)
(0.17992 -0.124538 1.17606)
(0.287456 -0.0231154 1.37728)
(0.093958 -0.198386 1.13688)
(0.135713 0.0486774 1.22664)
(0.108584 -0.438807 1.77655)
(0.264061 -0.187086 1.20767)
(0.0255172 0.0519114 1.00869)
(0.557043 0.40041 1.24433)
(0.248274 -0.0604936 1.25561)
(0.425764 0.149041 1.78453)
(0.494269 -0.171171 1.17506)
(0.294403 -0.51971 1.42757)
(0.363875 -0.0801316 1.51185)
(0.27014 -0.068549 1.67323)
(0.289584 1.07853 2.77322)
(0.185145 0.529166 2.82782)
(0.0112586 1.36242 2.25536)
(-0.120068 0.624881 3.00561)
(0.102706 0.74852 2.90947)
(0.0469288 0.637286 2.66449)
(0.190776 0.762282 2.80685)
(0.0512259 0.715835 2.31737)
(-0.499054 -0.37103 1.48673)
(-0.472462 -0.0428959 -0.81477)
(-0.799303 -0.0414764 1.56792)
(-0.648934 0.060823 0.973076)
(0.0541139 -0.0168474 -0.117454)
(-0.139847 0.146181 0.489605)
(-0.719667 -0.125714 0.595698)
(-1.03251 -0.266808 1.60008)
(-0.703393 0.897592 2.35143)
(-1.04155 0.185743 2.05302)
(-0.743711 0.35936 2.69585)
(-1.22681 0.140288 2.42131)
(-0.998703 0.241694 1.28465)
(-1.10036 0.253313 2.46446)
(-0.874207 0.345941 2.38081)
(-1.17112 0.059794 3.34548)
(-0.208176 -0.809736 0.905127)
(-0.239565 -0.112936 0.962634)
(-1.67687 -0.259786 1.74931)
(0.0883879 0.3655 1.59636)
(-0.304889 -0.0326754 1.30888)
(-0.634155 -0.268929 1.03645)
(-0.60645 -0.10505 1.92684)
(-0.273327 -0.355705 1.32641)
(-1.01762 -0.202283 1.6723)
(-0.599205 0.588526 1.74919)
(-0.705957 0.084338 1.58473)
(-0.376285 -0.156317 1.00621)
(-0.72182 -0.0720744 1.32019)
(-0.547222 0.143029 1.51258)
(-0.586089 0.0135462 1.37983)
(-0.521449 0.144014 1.38387)
(-0.865008 -0.0216589 1.21818)
(-0.575426 -0.149487 0.925734)
(-0.939943 -0.0592731 1.33974)
(-0.59836 0.431547 1.59482)
(-0.599642 0.130068 1.39166)
(-0.627136 -0.536975 0.812892)
(-0.821647 -0.304263 0.642676)
(-0.758647 -0.171584 1.12583)
(-0.617242 0.525821 1.80415)
(-0.553721 0.151614 1.8401)
(-0.563697 -0.128988 0.916977)
(-0.975038 0.149353 1.80996)
(-1.00908 0.189106 1.62804)
(-0.293769 0.0490375 1.51203)
(-1.04146 0.14651 1.12568)
(-0.513577 -0.330703 0.984608)
(-0.338743 0.355045 1.79828)
(-0.754496 -0.554962 2.16217)
(-0.438629 -0.262961 0.61805)
(-0.656194 -0.276941 1.85301)
(-0.961076 -0.31253 1.78721)
(-0.779668 0.0143796 1.64207)
(-0.762216 0.0195469 1.33962)
(-0.739887 -0.0994165 1.24642)
(0.234665 0.484995 1.44681)
(0.302712 -0.0923002 1.04547)
(-0.150781 -0.0495247 2.45595)
(0.316172 -0.151457 1.28396)
(1.13163 -0.014478 0.713835)
(0.15829 -0.367688 1.09353)
(0.811486 0.0960101 0.59944)
(-0.037971 -0.136621 2.06344)
(-0.461212 -0.378026 2.05301)
(0.0743646 -0.0592339 2.08102)
(-0.401179 -0.172245 2.61585)
(-0.215038 -0.113755 1.84729)
(0.0873388 0.0564694 0.918827)
(-0.0855557 -0.198196 1.18125)
(0.276869 -0.145756 1.07444)
(-0.168866 -0.283325 1.77473)
(0.0635777 -0.311557 2.333)
(-0.646387 -0.267375 2.95372)
(-0.103624 0.150129 2.02099)
(-0.342467 -0.0787151 1.63747)
(-0.842492 -0.133748 2.59472)
(-0.452646 -0.403899 2.62201)
(-0.647522 -0.206476 2.40877)
(-0.225099 -0.0495087 2.20996)
(-0.00771094 -0.0497703 1.05665)
(-0.099606 -0.0576403 1.19121)
(0.00870643 -0.0793208 1.05597)
(-0.0490817 -0.022468 0.990004)
(-0.0514905 -0.0314578 1.02583)
(-0.0113145 -0.0730633 1.02581)
(-0.0306778 -0.0183361 0.963106)
(-0.0293128 -0.0689317 1.03219)
(0.164165 -0.177397 1.74708)
(-0.76733 -0.243737 3.16871)
(0.180376 -0.0429703 1.2943)
(-0.0120108 -0.0916245 1.0499)
(-0.114839 -0.199822 1.71539)
(-0.364966 -0.309601 2.29203)
(0.109242 -0.133431 1.31468)
(-0.0112505 -0.146274 1.51868)
(-0.382648 -0.383191 2.17414)
(0.0732721 -0.241385 1.19181)
(-0.261835 -0.433425 1.99252)
(-0.578049 -0.221446 3.12685)
(-0.493566 -0.358125 2.32813)
(0.142438 -0.0890197 0.248956)
(-0.660721 -0.490958 3.16666)
(-0.117641 0.112456 1.36686)
(-0.662678 -0.225506 3.04693)
(0.0402623 -0.19549 1.14947)
(0.0149458 -0.0376098 1.0033)
(-0.14687 -0.153768 1.43938)
(-0.476257 -0.38971 2.09812)
(-0.205296 -0.250725 1.6547)
(-0.0673588 -0.147372 1.44402)
(0.0184856 -0.0569773 0.915207)
(0.0594842 -0.156107 2.37591)
(-0.210656 -0.17692 1.4925)
(-0.110037 -0.177492 1.24844)
(-0.381294 -0.259649 2.26998)
(-0.34783 -0.0890526 1.64322)
(-0.13275 -0.182062 1.50805)
(0.0606396 -0.110148 1.32956)
(-0.18256 -0.187438 1.35779)
(-0.0983101 0.109729 0.991139)
(-0.305934 0.227551 0.974661)
(-0.320248 0.265024 1.06657)
(-0.15538 0.161142 0.975078)
(-0.0967763 0.0558453 0.986565)
(-0.27167 0.222325 1.0518)
(-0.184477 0.152261 1.1331)
(-0.348822 0.209672 1.08778)
(-0.298916 0.70348 1.50032)
(-0.556244 0.339673 2.282)
(-0.435997 0.546896 2.67143)
(0.244828 0.63134 2.00809)
(-0.35373 0.704163 2.31975)
(-0.437859 0.565056 2.19665)
(-0.457697 0.685037 2.62731)
(-0.379814 0.421369 2.68321)
(-0.503143 0.45271 1.4031)
(-0.9519 0.743513 2.11474)
(-0.985694 0.910051 2.13048)
(-0.654635 0.451863 1.48289)
(-0.689002 0.597171 1.50947)
(-0.879585 0.781314 1.99265)
(-0.722708 0.673769 1.75078)
(-0.937927 0.697455 2.10173)
(-0.0412289 0.126984 0.336334)
(1.05579 0.929248 3.09484)
(-0.267407 0.275463 2.13057)
(0.204135 1.77658 2.84517)
(0.040869 1.13414 2.73194)
(0.125417 1.10039 2.72632)
(-0.154177 1.26433 2.77033)
(-0.114123 0.637693 3.03742)
(-0.270362 0.368783 1.4667)
(-0.347299 0.473821 1.3055)
(-0.150712 0.0261107 1.04881)
(-0.503829 1.26122 2.47747)
(-0.273582 0.507625 1.74739)
(-0.369419 0.44705 1.50528)
(-0.164565 0.812283 1.22321)
(-0.310991 0.561447 1.44407)
(-0.378416 0.493693 1.60451)
(-0.253759 0.702348 2.12859)
(-0.63477 0.611122 2.38575)
(-0.505777 0.526598 1.37325)
(-0.373591 0.716082 1.66778)
(-0.551313 0.782011 2.36864)
(-0.546949 0.532117 1.5285)
(-0.565774 0.744891 1.97362)
(-0.474806 0.34376 1.42404)
(-0.353173 0.264199 1.46164)
(-0.233652 1.0953 3.29998)
(-0.381487 1.08278 2.32637)
(-0.387869 0.650914 1.26922)
(-0.403564 0.957809 1.32091)
(-0.453213 1.27028 2.37799)
(-0.66926 1.24817 2.64378)
(-0.547589 0.386321 1.43606)
(-0.105749 0.590474 2.10461)
(0.120195 0.45596 3.22274)
(-0.596896 0.433351 2.25734)
(-0.883083 0.827039 1.68264)
(-0.626021 0.571253 2.562)
(-0.388928 0.782101 2.42652)
(0.193326 0.468387 3.16038)
(-0.0231485 -0.00823414 1.01036)
(-0.0382682 -0.024483 1.05677)
(-0.039949 0.0404454 1.04561)
(0.00466205 -0.00563543 0.903548)
(-0.0286503 0.00845077 1.02682)
(-0.0260834 0.0171914 1.02209)
(-0.0147111 0.0244675 1.0188)
(-0.0221885 0.0188582 1.01854)
(-0.0524374 -0.0419068 1.1871)
(-0.122994 -0.0648772 1.36086)
(-0.145594 0.0572793 1.22819)
(-0.142486 -0.014301 1.12851)
(-0.098929 -0.00619076 1.24252)
(-0.076545 0.0150505 1.17592)
(-0.158596 -0.00850924 1.07017)
(-0.132511 0.0431587 1.13821)
(-0.168661 0.127747 1.12569)
(-0.26707 0.061142 1.29242)
(-0.338488 0.216199 1.48657)
(-0.261238 -0.0237069 1.31437)
(-0.268531 0.0433602 1.20683)
(-0.201702 0.0566382 1.30929)
(-0.393827 -0.0830359 1.31641)
(0.0186909 0.152564 1.50099)
(-0.12154 0.291732 1.25799)
(-0.771506 -0.028168 1.97867)
(-0.747728 -0.120132 2.34031)
(-0.876925 0.00518514 3.63878)
(-0.459043 -0.220318 1.74291)
(-0.429444 -0.263178 1.96)
(-0.932537 -0.197419 3.17085)
(-1.27613 -0.330684 2.47724)
(-0.0169301 0.0079087 1.07971)
(-0.0568792 0.0917556 1.0689)
(0.00981867 0.0379399 0.911893)
(-0.0486121 0.285189 1.12845)
(-0.0343056 0.0770654 1.02556)
(-0.0391018 0.0485766 1.02345)
(-0.0207731 0.0879244 1.0168)
(-0.0452463 0.100938 0.93344)
(-0.0306677 0.0432331 1.05637)
(-0.0567982 0.104757 1.11214)
(-0.167842 0.0830748 1.24932)
(-0.108807 0.118101 1.11378)
(-0.0594813 0.044478 1.03125)
(-0.0472741 0.020128 1.0582)
(-0.0971326 0.101017 1.1218)
(-0.199027 0.0753704 1.21018)
(-0.123473 0.1021 1.15394)
(-0.12152 0.101642 1.14879)
(-0.411986 -0.121749 1.63525)
(-0.671544 -0.323602 2.12589)
(-0.14527 0.121909 1.19938)
(-0.168541 0.0961929 1.05327)
(-0.369007 -0.0606286 1.39339)
(-0.274517 -0.14191 1.32458)
(-0.194874 0.137346 1.13363)
(-0.516494 -0.285664 1.37913)
(-0.535648 -0.0111871 1.05728)
(-0.0770513 0.0653132 1.32782)
(-0.171129 -0.00868618 1.30501)
(-0.29039 -0.214441 1.56496)
(-0.237173 0.0575662 1.32006)
(-0.325781 0.138286 1.15468)
(-0.155981 -0.141632 0.860532)
(-0.225918 -0.364582 1.30127)
(-0.183823 -0.0955719 0.991744)
(-0.0174144 -0.0905958 1.04787)
(-0.0131789 -0.22287 0.921009)
(-0.0154135 -0.275619 1.18957)
(-0.013873 -0.180533 0.826812)
(-0.0744663 -0.106773 0.985609)
(-0.323889 -0.584327 1.65746)
(-0.758558 -0.831088 2.02238)
(-0.117336 -0.32404 1.46711)
(-0.291736 -0.326416 1.15156)
(-0.351108 -0.648568 1.58837)
(-0.520374 -0.850376 1.88043)
(-0.274314 -0.367763 1.22055)
(-0.145299 -0.572839 1.46585)
(-0.27179 -0.107924 1.75416)
(-0.277427 -0.16056 2.11951)
(-0.441158 -0.207708 2.1102)
(-0.308379 -0.307942 1.40056)
(-0.122374 -0.400719 1.70072)
(-0.393419 -0.146844 2.15802)
(-0.134047 -0.42906 1.61531)
(-0.470483 -0.11003 2.07275)
(-0.0462541 -0.0607469 1.03133)
(-0.0367472 -0.105095 0.958582)
(-0.0387736 -0.0594927 0.967306)
(-0.032233 -0.0191158 1.00977)
(-0.0435739 -0.0921342 1.0105)
(-0.0437984 -0.0955052 0.951063)
(-0.034368 -0.0628826 1.01165)
(-0.0225799 -0.0889801 0.940788)
(-0.19706 -0.372571 1.20731)
(-0.091244 -0.303764 0.960211)
(-0.0506829 -0.143832 0.98779)
(-0.097289 -0.18757 1.00637)
(-0.131265 -0.189443 1.06331)
(-0.0659075 -0.15693 1.05155)
(-0.109723 -0.189294 1.03325)
(-0.125138 -0.119594 1.00789)
(-0.258461 -0.531682 1.47467)
(-0.210373 -0.175418 1.05787)
(-0.335224 -0.300933 1.59617)
(-0.377475 -0.145356 1.50256)
(-0.261118 -0.24097 1.17611)
(-0.224924 -0.22286 1.17333)
(-0.275904 -0.293875 1.41886)
(-0.205383 -0.252519 1.4175)
(-0.0203236 -0.217826 0.733435)
(-0.0472364 -0.127571 1.01223)
(-0.0589371 -0.109462 0.978666)
(-0.00704264 -0.108876 0.910064)
(-0.116862 -0.115804 1.0962)
(-0.121527 -0.120658 0.982793)
(-0.0857323 -0.104759 0.961962)
(-0.0448994 -0.110255 0.952567)
(-0.317309 -0.0317287 1.32787)
(-0.274851 -0.141643 1.22517)
(-0.101277 -0.158665 1.02449)
(-0.373381 -0.270595 1.46765)
(-0.196189 -0.271604 1.28676)
(-0.261322 -0.134412 1.29136)
(-0.211416 -0.227945 1.33667)
(-0.128858 -0.151684 1.28061)
(0.00895067 -0.193707 0.546372)
(-0.175925 -0.196759 0.873887)
(-0.310142 -0.373852 1.13769)
(-0.177442 0.300373 1.3928)
(-0.249023 -0.244318 0.746145)
(-0.243954 -0.301897 0.737225)
(-0.137851 0.0584757 1.29165)
(-0.282663 -0.118647 1.04174)
(-0.290196 0.0373318 1.18024)
(-0.23053 0.0802178 1.52531)
(-0.219583 0.301119 1.49308)
(-0.136795 0.213879 1.78685)
(-0.177307 0.0929208 1.40518)
(-0.229452 0.102538 1.50464)
(-0.207354 0.354138 1.81427)
(-0.257248 0.34565 1.68402)
(-0.435593 -0.629145 1.05443)
(-0.352236 0.0164177 0.412167)
(0.233767 0.170343 -1.15316)
(0.851631 -0.0986058 1.97436)
(-0.311754 -0.301249 1.18557)
(-0.135673 -0.136856 0.57145)
(-0.928833 -1.60491 0.190518)
(0.0253787 -0.41886 -0.682779)
(-0.0796615 1.00043 1.85514)
(-0.240217 0.0515557 2.0408)
(0.205069 0.156304 3.60392)
(0.403309 -0.0368824 2.90642)