/*--------------------------------*- C++ -*----------------------------------*\
| =========                 |                                                 |
| \\      /  F ield         | OpenFOAM: The Open Source CFD Toolbox           |
|  \\    /   O peration     | Version:  2506                                  |
|   \\  /    A nd           | Website:  www.openfoam.com                      |
|    \\/     M anipulation  |                                                 |
\*---------------------------------------------------------------------------*/
FoamFile
{
    version     2.0;
    format      ascii;
    arch        "LSB;label=32;scalar=64";
    class       volScalarField;
    location    "1800";
    object      p;
}
// * * * * * * * * * * * * * * * * * * * * * * * * * * * * * * * * * * * * * //

dimensions      [0 2 -2 0 0 0 0];

internalField   nonuniform List<scalar> 
71680
(
-0.0488193
-0.0452605
-0.0626687
-0.0465073
-0.0472308
-0.0505177
-0.0525037
-0.0555608
-0.040894
-0.037977
-0.0566591
-0.0457467
-0.0349556
-0.0432735
-0.0479714
-0.0448655
-0.0841683
-0.085359
-0.1208
-0.0921475
-0.0836757
-0.0984606
-0.0991445
-0.0989987
-0.0499253
-0.0534846
-0.0737457
-0.0503526
-0.0525555
-0.0584909
-0.0585005
-0.0656734
-0.0416074
-0.0651687
-0.0476766
-0.047654
-0.0515168
-0.0547889
-0.0456751
-0.0537048
-0.0462222
-0.0547046
-0.0701702
-0.0682383
-0.0523328
-0.0537728
-0.0630534
-0.0582862
-0.076726
-0.0538849
-0.0567827
-0.0802228
-0.0686016
-0.0589776
-0.0641463
-0.0608171
-0.0770935
-0.0894515
-0.061723
-0.0733105
-0.0777261
-0.0758598
-0.0715369
-0.065309
0.00192502
-0.00306765
-0.00482992
-0.00387403
-0.00124276
-0.00234538
-0.00340703
-0.00461692
-0.00777717
-0.0113931
-0.0147469
-0.0130295
-0.0106272
-0.0114934
-0.0123969
-0.0141608
-0.0145458
-0.0181948
-0.0234086
-0.0193588
-0.0175354
-0.0183957
-0.0190452
-0.0217613
-0.00888903
-0.0132658
-0.0165012
-0.0138798
-0.0118525
-0.0128971
-0.012781
-0.0156276
-0.00624254
-0.00895626
-0.00686884
-0.0119015
-0.00824689
-0.00716688
-0.00883854
-0.00831343
-0.00750422
-0.012708
-0.0148075
-0.0101039
-0.00974005
-0.0119839
-0.0104376
-0.0141398
-0.0108742
-0.00821779
-0.012579
-0.015534
-0.0110918
-0.0105087
-0.0146279
-0.0120423
-0.0134205
-0.0181669
-0.0147456
-0.0175544
-0.0143377
-0.0153258
-0.0150134
-0.0153834
-0.113285
-0.118914
-0.0895897
-0.108569
-0.106993
-0.108722
-0.107292
-0.105103
-0.129504
-0.127017
-0.0881962
-0.106395
-0.132584
-0.124149
-0.105437
-0.111238
-0.0607598
-0.060714
-0.0398393
-0.0512245
-0.0551155
-0.0508932
-0.0476247
-0.0451307
-0.0748118
-0.0756834
-0.0574582
-0.0554359
-0.073427
-0.0753851
-0.0647557
-0.0659298
-0.114822
-0.0864513
-0.101395
-0.0966509
-0.108642
-0.100309
-0.108825
-0.0967634
-0.1162
-0.0969267
-0.0837326
-0.0836619
-0.103919
-0.101933
-0.0926364
-0.0912711
-0.0771366
-0.0829202
-0.0827491
-0.0598379
-0.0714052
-0.0844879
-0.0694693
-0.0774433
-0.0757833
-0.062025
-0.0838369
-0.0767481
-0.0700224
-0.0682708
-0.0779102
-0.0731492
-0.00488977
-0.0055113
-0.00348763
-0.00626007
-0.00520601
-0.00493401
-0.00525118
-0.00489542
-0.00769823
-0.0105927
-0.00673901
-0.0120149
-0.00883667
-0.00862075
-0.00907722
-0.00858541
-0.00140918
-0.00248241
0.00162941
-0.00310361
-0.00176952
-0.00129565
-0.00162109
-0.00100153
-0.00847722
-0.0122525
-0.00766169
-0.0126905
-0.00995708
-0.00975155
-0.0101149
-0.0099036
-0.00625153
-0.00382858
-0.00708071
-0.00973753
-0.00639247
-0.0055271
-0.00845159
-0.00689229
-0.00610942
-0.00960486
-0.00493657
-0.00342223
-0.00599706
-0.00767112
-0.00428352
-0.00515261
-0.00381275
-0.00716215
-0.00983498
-0.00588648
-0.00462362
-0.00688908
-0.00602973
-0.00849633
-0.00335447
-0.00564884
-0.00980118
-0.00478001
-0.0041709
-0.00572407
-0.00525484
-0.00739393
-0.00580787
-0.00773464
-0.00643619
-0.00725235
-0.00628847
-0.00676818
-0.00646425
-0.00711689
-0.0102339
-0.0129044
-0.0121556
-0.0133841
-0.0115295
-0.0118437
-0.01189
-0.0128381
-0.00826823
-0.0116776
-0.0110846
-0.0123915
-0.0102011
-0.0110201
-0.0110284
-0.012303
-0.00981871
-0.0138612
-0.0128645
-0.0139162
-0.0115021
-0.0119986
-0.011807
-0.0134281
-0.00882535
-0.00786829
-0.00838442
-0.0115747
-0.00917177
-0.00837372
-0.0103232
-0.00907368
-0.00918204
-0.0121856
-0.0114218
-0.00857394
-0.00998162
-0.0113044
-0.00937989
-0.0109533
-0.00854706
-0.00857527
-0.0120387
-0.0116003
-0.00897082
-0.00984095
-0.0109488
-0.0114583
-0.00913824
-0.0129199
-0.0133254
-0.0124255
-0.0110061
-0.0116535
-0.0116103
-0.0126877
-0.11285
-0.0883476
-0.0876964
-0.0834986
-0.102503
-0.0935672
-0.095247
-0.0867651
-0.0700021
-0.0473725
-0.049059
-0.0504569
-0.0634024
-0.0530288
-0.0591608
-0.0506142
-0.0732312
-0.0494452
-0.050565
-0.0523193
-0.0606593
-0.0556004
-0.0591653
-0.0498077
-0.0573455
-0.0392328
-0.0463611
-0.0337962
-0.0471831
-0.0464318
-0.04138
-0.0400577
-0.0817303
-0.0819262
-0.073739
-0.056296
-0.0729664
-0.0804804
-0.0587727
-0.0677446
-0.0741873
-0.053827
-0.0540634
-0.0761595
-0.0681125
-0.0624434
-0.0684005
-0.0599707
-0.0794312
-0.0657137
-0.051416
-0.0558455
-0.0649632
-0.0616121
-0.0571578
-0.0549187
-0.0661384
-0.048687
-0.049895
-0.0505359
-0.060879
-0.0547441
-0.0563634
-0.0507619
-0.12996
-0.142194
-0.0931229
-0.105231
-0.112683
-0.0986
-0.0994576
-0.0932373
-0.184011
-0.181548
-0.10346
-0.0974685
-0.171271
-0.162429
-0.126702
-0.118708
-0.0683963
-0.0694604
-0.0539022
-0.0514969
-0.0630306
-0.0632502
-0.0547683
-0.052691
-0.0758179
-0.0690239
-0.0551641
-0.0534491
-0.0687976
-0.0699439
-0.0576073
-0.0535274
-0.136454
-0.0883387
-0.0940295
-0.108042
-0.109312
-0.0985571
-0.109129
-0.0933488
-0.108652
-0.111646
-0.0876309
-0.0866043
-0.104171
-0.116864
-0.108853
-0.090612
-0.0774386
-0.0805222
-0.0869803
-0.0565975
-0.0781985
-0.0724426
-0.0636983
-0.0683759
-0.0738852
-0.0530675
-0.0744661
-0.0727676
-0.067735
-0.0637047
-0.079603
-0.069063
-0.00455736
-0.00293272
-0.00414346
-0.00536764
-0.00460259
-0.00400782
-0.00532276
-0.00442251
-0.000714743
0.00171752
-0.000678546
-0.00226258
-0.00062803
0.000197587
-0.00156569
-0.000311545
-0.00344078
-0.00200259
-0.00249412
-0.00379846
-0.00275747
-0.00248292
-0.00298201
-0.00229427
-0.0071182
-0.00601273
-0.00691966
-0.0104585
-0.00773404
-0.00647246
-0.00900904
-0.00754411
-0.00294954
-0.00405922
-0.00570985
-0.00440776
-0.00389719
-0.00418582
-0.00374875
-0.00471244
-0.00224913
-0.00316973
-0.00164182
-0.00362981
-0.00274107
-0.0022442
-0.00249597
-0.00206537
-0.00432093
-0.00654258
-0.00509571
-0.00484287
-0.0047842
-0.00530042
-0.00469616
-0.00529005
-0.00364443
-0.00405223
-0.00387268
-0.00167936
-0.00288231
-0.00407827
-0.00241863
-0.00357304
-0.109386
-0.0911507
-0.143146
-0.099158
-0.113743
-0.103089
-0.126098
-0.110026
-0.0682145
-0.0530244
-0.0767793
-0.0595795
-0.0568433
-0.0509876
-0.0650947
-0.0600986
-0.176725
-0.113443
-0.200301
-0.107568
-0.125851
-0.112471
-0.148954
-0.129031
-0.0706412
-0.0648758
-0.0797369
-0.0565488
-0.077036
-0.0739466
-0.0791886
-0.0738472
-0.0836634
-0.130601
-0.103156
-0.0646701
-0.0900015
-0.0992061
-0.0730052
-0.0975643
-0.0785607
-0.0578714
-0.0714006
-0.117492
-0.0855265
-0.0652224
-0.110512
-0.0833166
-0.139432
-0.104322
-0.0719177
-0.0945656
-0.11431
-0.0902117
-0.0926351
-0.082559
-0.121885
-0.0869633
-0.064529
-0.0855041
-0.092552
-0.0864174
-0.099151
-0.0821911
-0.0126508
-0.013062
-0.0154386
-0.0137087
-0.013674
-0.0137761
-0.0145274
-0.0146936
-0.0132366
-0.0140031
-0.0158479
-0.0143757
-0.0136946
-0.0141617
-0.0144451
-0.0150605
-0.0164573
-0.0169276
-0.0169557
-0.0177124
-0.0167931
-0.0167527
-0.0172962
-0.0170627
-0.0144632
-0.0151639
-0.0175554
-0.0155118
-0.0156784
-0.015768
-0.0162286
-0.0170762
-0.0132605
-0.0156577
-0.0143478
-0.014473
-0.0138796
-0.0146062
-0.0141468
-0.014279
-0.0136294
-0.0148919
-0.0156501
-0.0155547
-0.0145962
-0.0147179
-0.0152668
-0.0152809
-0.0164029
-0.0149307
-0.0151716
-0.0175919
-0.0159457
-0.0154002
-0.0166597
-0.0160164
-0.0161041
-0.0175546
-0.0158875
-0.0164219
-0.016445
-0.0165402
-0.0160278
-0.0166884
-0.129807
-0.0573688
-0.0777552
-0.0718032
-0.0888073
-0.0813759
-0.0858273
-0.0780232
-0.0266696
-0.00773489
-0.0240169
-0.0205584
-0.0226968
-0.022082
-0.0250081
-0.0213675
-0.0549101
-0.0354876
-0.0398259
-0.0383236
-0.0452816
-0.0419361
-0.0428711
-0.038395
-0.0547482
-0.0329606
-0.0398182
-0.041193
-0.0444153
-0.0455946
-0.0442278
-0.0362425
-0.0446957
-0.066342
-0.0608254
-0.0355846
-0.046346
-0.0550304
-0.0421241
-0.0571234
-0.0395071
-0.0361004
-0.0363018
-0.0588036
-0.0385103
-0.0312576
-0.0447372
-0.0364554
-0.0613485
-0.060133
-0.0370467
-0.0466759
-0.0536577
-0.0509214
-0.0478687
-0.0389858
-0.0559155
-0.0382882
-0.0316596
-0.0339618
-0.0391562
-0.0434825
-0.0376059
-0.0321964
-0.100166
-0.0857809
-0.0775108
-0.0746811
-0.10193
-0.0936853
-0.0874122
-0.0860969
-0.069495
-0.0511663
-0.0523427
-0.0510213
-0.063417
-0.0586305
-0.0596819
-0.0529758
-0.0530215
-0.0452014
-0.0321714
-0.0299566
-0.0443886
-0.0436861
-0.035775
-0.0370695
-0.0476317
-0.0424079
-0.0296912
-0.0276794
-0.0402139
-0.0429316
-0.0374292
-0.035228
-0.077847
-0.0699496
-0.0713259
-0.0559839
-0.071613
-0.0705044
-0.0611983
-0.0654832
-0.0756695
-0.0550014
-0.0554419
-0.067985
-0.0667071
-0.0583028
-0.0630588
-0.0571528
-0.0619939
-0.0627415
-0.052002
-0.0351603
-0.0515107
-0.0600191
-0.0440831
-0.0469988
-0.0588667
-0.0360324
-0.0472843
-0.0485826
-0.047753
-0.0432843
-0.0506107
-0.0445275
-0.0243067
-0.0200272
-0.0206401
-0.0218369
-0.0214891
-0.0207885
-0.021072
-0.0204756
-0.0168391
-0.0139724
-0.0161385
-0.0147367
-0.0148952
-0.015313
-0.0149915
-0.0151674
-0.0184383
-0.0168977
-0.0170136
-0.0182206
-0.0174039
-0.0173732
-0.0175582
-0.0170666
-0.0197436
-0.0155333
-0.0184746
-0.0172048
-0.0171408
-0.0168159
-0.0177232
-0.0171589
-0.0175418
-0.0190567
-0.0191374
-0.0156714
-0.0175927
-0.0195063
-0.0177352
-0.0185427
-0.0172564
-0.0154212
-0.0167363
-0.018919
-0.0171303
-0.0166751
-0.0181588
-0.0165878
-0.0191373
-0.0192259
-0.0160569
-0.0182662
-0.0194075
-0.0186454
-0.0178574
-0.0178837
-0.0186493
-0.0176915
-0.0156372
-0.0163995
-0.0181778
-0.0176081
-0.0169315
-0.0168834
-0.178289
-0.122381
-0.129631
-0.118192
-0.0857842
-0.141592
-0.0949549
-0.10937
-0.13555
-0.118272
-0.100823
-0.11885
-0.143305
-0.138576
-0.105618
-0.132142
-0.148645
-0.0859345
-0.129527
-0.131111
-0.169012
-0.136988
-0.147131
-0.167448
-0.0722561
-0.0858526
-0.0769213
-0.0575368
-0.081056
-0.0852107
-0.0721419
-0.0785683
-0.134837
-0.116191
-0.114631
-0.111574
-0.110582
-0.111866
-0.121199
-0.113628
-0.135418
-0.123722
-0.124023
-0.161798
-0.121979
-0.123768
-0.123175
-0.140186
-0.114211
-0.103173
-0.103703
-0.0824042
-0.133741
-0.122207
-0.12076
-0.113325
-0.141633
-0.103649
-0.102727
-0.168831
-0.141623
-0.144215
-0.129661
-0.14054
-0.098707
-0.0979309
-0.0886332
-0.075612
-0.0911078
-0.109396
-0.079642
-0.0813416
-0.100249
-0.126945
-0.113792
-0.0796219
-0.0977529
-0.131681
-0.084902
-0.0975681
-0.0943027
-0.0998574
-0.0991772
-0.0782796
-0.0955101
-0.109355
-0.0884942
-0.0832899
-0.0616736
-0.0535646
-0.0559858
-0.0394077
-0.0539909
-0.0543018
-0.037675
-0.0465115
-0.0923268
-0.086353
-0.0654053
-0.0531503
-0.081146
-0.0905348
-0.0808253
-0.0849365
-0.117235
-0.0720068
-0.122911
-0.113923
-0.0823191
-0.0914627
-0.0943133
-0.0897608
-0.0801525
-0.0496951
-0.0425903
-0.0511546
-0.0786518
-0.052958
-0.0549115
-0.0450961
-0.0822352
-0.0582706
-0.054034
-0.0790568
-0.0975051
-0.0764111
-0.0825052
-0.0780144
0.00903478
2.85673e-06
-0.0029246
0.00547644
0.00668595
0.00239322
0.00503969
-0.000896637
-0.00751061
-0.0144154
-0.017082
-0.0146996
-0.011274
-0.0131536
-0.0140762
-0.0157857
-0.0151512
-0.0198973
-0.0235848
-0.0239675
-0.0196094
-0.0207327
-0.0230279
-0.0229361
-0.00207057
-0.0149393
-0.0217508
-0.0163458
-0.00974383
-0.0135511
-0.0155982
-0.0191551
-0.00350708
-0.00740603
0.000965085
-0.0104857
-0.00623598
-0.00427604
-0.00607733
-0.00403166
-0.00613173
-0.0129717
-0.0163744
-0.0100798
-0.00938256
-0.0123617
-0.0112859
-0.0153452
-0.00989211
-0.00231827
-0.0138719
-0.0206747
-0.0105355
-0.00779851
-0.0158951
-0.0123961
-0.0136571
-0.0219713
-0.0165691
-0.0187106
-0.0166387
-0.0179967
-0.0176499
-0.018215
-0.0485307
-0.0454074
-0.0613958
-0.0517472
-0.053187
-0.0535366
-0.0534689
-0.0577074
-0.0451969
-0.0446821
-0.0544049
-0.0479389
-0.0521512
-0.058937
-0.0505617
-0.0522224
-0.0843485
-0.082817
-0.146994
-0.087209
-0.102272
-0.0960975
-0.107542
-0.116459
-0.0560287
-0.0515982
-0.064088
-0.0576589
-0.0562596
-0.0573567
-0.0562763
-0.0582512
-0.0518485
-0.0760219
-0.0548822
-0.0537711
-0.049343
-0.0532413
-0.0501377
-0.0519768
-0.056714
-0.0554784
-0.0826721
-0.0750132
-0.0610475
-0.0532296
-0.0600979
-0.0741297
-0.071456
-0.0550148
-0.0571426
-0.0788009
-0.0622812
-0.0642033
-0.0740395
-0.0572888
-0.0887026
-0.0947926
-0.0508562
-0.0812193
-0.0780273
-0.0759028
-0.0734392
-0.0641157
-0.121081
-0.0837963
-0.0858021
-0.0835291
-0.0932233
-0.0919796
-0.092843
-0.0908334
-0.0473308
-0.0257563
-0.0392087
-0.0236381
-0.0301948
-0.0336936
-0.0332062
-0.0305884
-0.0623366
-0.0449121
-0.0488942
-0.0486111
-0.0547039
-0.0464327
-0.0513205
-0.045506
-0.0534168
-0.0270977
-0.0431488
-0.0294718
-0.0324837
-0.0340221
-0.0349846
-0.0326547
-0.0575494
-0.0685013
-0.05899
-0.0378331
-0.0596761
-0.0767346
-0.0534138
-0.0581847
-0.0591779
-0.0343035
-0.039369
-0.0595096
-0.0560844
-0.0453828
-0.0575763
-0.0441211
-0.0650011
-0.0624674
-0.03655
-0.0460292
-0.0634482
-0.0584936
-0.0482408
-0.0503851
-0.0596353
-0.0413973
-0.0315152
-0.038646
-0.052406
-0.0412871
-0.0415062
-0.0383613
0.00340291
-0.00331545
0.00465644
-0.00252124
0.000893454
0.00118967
0.000801213
0.00123244
-0.0132111
-0.022729
-0.01333
-0.0188611
-0.016689
-0.0179584
-0.0166104
-0.0178576
0.0067741
-0.00156755
0.00882109
0.000704663
0.00393093
0.00446766
0.00446852
0.0048329
-0.00772826
-0.0158659
-0.00645299
-0.0130425
-0.010136
-0.010762
-0.0095747
-0.0101948
-0.00671999
0.00207488
-0.00483578
-0.0130526
-0.0064573
-0.00226159
-0.0103699
-0.00522762
-0.007367
-0.0137575
-0.00721749
0.00237418
-0.00708015
-0.0118355
-0.00252461
-0.00644968
0.00212987
-0.00426777
-0.0127277
-0.00331028
-0.00111423
-0.00459397
-0.00401907
-0.00812971
0.00255494
-0.00360837
-0.013541
-0.00697739
-0.00164928
-0.00437069
-0.00618053
-0.00975403
-0.0793401
-0.0361853
-0.0750704
-0.0615854
-0.0482318
-0.0706599
-0.026394
-0.0377389
-0.0263208
-0.031953
-0.0449261
-0.0353098
-0.0414058
-0.040064
-0.0487596
-0.0445494
-0.0874075
-0.0709838
-0.0977841
-0.0859203
-0.069184
-0.0666387
-0.0710939
-0.0674716
-0.0476723
-0.024735
-0.0507932
-0.0321227
-0.0355045
-0.037582
-0.0383414
-0.0382571
-0.0469159
-0.0655706
-0.0508518
-0.0307615
-0.0470422
-0.0666093
-0.03303
-0.0607985
-0.0437139
-0.0394102
-0.0328761
-0.0663319
-0.0407255
-0.0537699
-0.0438164
-0.0487715
-0.0593531
-0.0473297
-0.0304825
-0.0534095
-0.0791657
-0.0546843
-0.0532565
-0.0319773
-0.0619814
-0.0551476
-0.0398164
-0.0427565
-0.0714137
-0.0554543
-0.052569
-0.0516274
-0.0136787
-0.0155775
-0.0163723
-0.016437
-0.0149142
-0.0155642
-0.0158402
-0.016208
-0.0155901
-0.0229149
-0.0230385
-0.0218766
-0.0192999
-0.0226219
-0.0202909
-0.0247879
-0.0189357
-0.0236419
-0.0235716
-0.0218675
-0.0203568
-0.0214266
-0.0213592
-0.0224719
-0.0183711
-0.020661
-0.0215465
-0.0202871
-0.0196595
-0.0191507
-0.0197448
-0.0199442
-0.0148757
-0.0179675
-0.0178152
-0.0184907
-0.0161225
-0.0171079
-0.0169652
-0.0166822
-0.0175925
-0.0194316
-0.0212595
-0.01827
-0.0185394
-0.0197879
-0.0181275
-0.020184
-0.0183868
-0.0174926
-0.0193401
-0.0205953
-0.018837
-0.0172117
-0.0202782
-0.0197787
-0.0186874
-0.02095
-0.021039
-0.0229949
-0.0200123
-0.0199291
-0.021219
-0.0221955
-0.133143
-0.116099
-0.148531
-0.121058
-0.123463
-0.124685
-0.131972
-0.132478
-0.0877827
-0.0746866
-0.0974976
-0.0806631
-0.0923586
-0.0879663
-0.0897479
-0.0932592
-0.17566
-0.109412
-0.164571
-0.128233
-0.162675
-0.17202
-0.161907
-0.167609
-0.0791872
-0.0624267
-0.0793097
-0.0291305
-0.0618666
-0.0830514
-0.0473825
-0.0636352
-0.119303
-0.145191
-0.103817
-0.0848191
-0.111757
-0.125065
-0.0893524
-0.11166
-0.111604
-0.0851599
-0.0985388
-0.152179
-0.107257
-0.102735
-0.108833
-0.107274
-0.146637
-0.10451
-0.0828489
-0.0984845
-0.121931
-0.107541
-0.108437
-0.0936056
-0.155414
-0.114031
-0.0820307
-0.102303
-0.143639
-0.122399
-0.114591
-0.0896157
-0.0726941
-0.130035
-0.0380116
-0.0658073
-0.072662
-0.123921
-0.0970896
-0.0760272
-0.142489
-0.105073
-0.0657061
-0.0871296
-0.10852
-0.0876875
-0.0968942
-0.0804485
-0.0337474
-0.0454276
-0.034128
-0.0349262
-0.0304479
-0.0400038
-0.0361578
-0.0374843
-0.0347254
-0.0520071
-0.0297921
-0.0247751
-0.0355008
-0.0429342
-0.0278555
-0.0318776
-0.0894063
-0.0366951
-0.0519322
-0.0594786
-0.0946075
-0.0656356
-0.0725292
-0.0721691
-0.0806113
-0.0778184
-0.0595805
-0.052345
-0.0812539
-0.076688
-0.0537979
-0.0496969
-0.047294
-0.0447377
-0.0602845
-0.0389826
-0.0280839
-0.0458614
-0.0340079
-0.0415737
-0.0492558
-0.0403661
-0.056382
-0.0553704
-0.05041
-0.0419323
-0.0564449
-0.0455663
-0.0342459
-0.0543174
-0.0551746
-0.0581094
-0.0503815
-0.0551279
-0.0560605
-0.0585137
-0.0592124
-0.0564637
-0.0744796
-0.060604
-0.0609619
-0.0646326
-0.0652804
-0.0683173
-0.0903085
-0.10451
-0.130155
-0.114943
-0.104443
-0.110807
-0.116272
-0.117243
-0.0745266
-0.0656973
-0.0914019
-0.0739108
-0.0749471
-0.0757908
-0.0803269
-0.082542
-0.0623538
-0.0809974
-0.0720922
-0.065697
-0.0684734
-0.0681866
-0.066857
-0.0750486
-0.0658774
-0.0667225
-0.0851572
-0.0848036
-0.0701056
-0.0673935
-0.0744554
-0.0821189
-0.0875699
-0.0776742
-0.0687565
-0.0987393
-0.0797934
-0.0801597
-0.0902197
-0.0745085
-0.089233
-0.101669
-0.0699945
-0.0880305
-0.091684
-0.0932503
-0.089119
-0.0826442
-0.113219
-0.0993802
-0.0900465
-0.0909156
-0.113036
-0.106367
-0.0979421
-0.0934909
-0.0740902
-0.0551231
-0.0574568
-0.0533566
-0.0661857
-0.0622599
-0.061104
-0.0559049
-0.0523921
-0.0492966
-0.0281524
-0.0277932
-0.0509878
-0.0498319
-0.0332377
-0.033604
-0.0526336
-0.0441076
-0.026146
-0.0274292
-0.0475031
-0.0450681
-0.0349552
-0.0336678
-0.0875782
-0.0871841
-0.0865381
-0.0623074
-0.0784187
-0.0867848
-0.0683973
-0.0776943
-0.0812073
-0.0590028
-0.0621485
-0.0811749
-0.0707219
-0.0659089
-0.0718698
-0.0640652
-0.0650158
-0.0601329
-0.0531747
-0.0350266
-0.0490303
-0.0548682
-0.0493169
-0.0481403
-0.0618552
-0.0340116
-0.0498625
-0.0528404
-0.0519128
-0.0465384
-0.0552658
-0.045362
-0.0137497
-0.038596
-0.0372288
-0.0311406
-0.0287079
-0.0349967
-0.031778
-0.0383344
-0.0830316
-0.150082
-0.0846065
-0.0823404
-0.10829
-0.0937755
-0.0837473
-0.0836313
-0.0492469
-0.0608943
-0.0486013
-0.0490776
-0.0581662
-0.0571506
-0.0521231
-0.0525622
-0.042798
-0.0642076
-0.0488368
-0.0483586
-0.0516697
-0.0560116
-0.0498885
-0.0532227
-0.0522267
-0.0503705
-0.0418296
-0.0737718
-0.0514373
-0.0456704
-0.0553921
-0.0457554
-0.0634927
-0.0769731
-0.073762
-0.0474578
-0.069937
-0.0790721
-0.0645123
-0.079198
-0.0455014
-0.041512
-0.066535
-0.0506452
-0.0471617
-0.0511929
-0.0540273
-0.0561389
-0.0538568
-0.0526725
-0.0708255
-0.0702426
-0.0594197
-0.0572847
-0.06814
-0.064994
-0.0140814
-0.0406959
-0.0412123
-0.0299783
-0.021383
-0.0341537
-0.0275766
-0.0389762
-0.052177
-0.0530562
-0.0654531
-0.0547172
-0.0482757
-0.0517905
-0.0559281
-0.0526944
-0.0877998
-0.090478
-0.130723
-0.0982412
-0.0805098
-0.0924677
-0.0991386
-0.102906
-0.0474497
-0.0590026
-0.0763395
-0.0624663
-0.0507658
-0.0589709
-0.0602194
-0.063205
-0.0427316
-0.0482395
-0.0373808
-0.0525044
-0.0519693
-0.0501081
-0.0498448
-0.0503578
-0.0529846
-0.0563905
-0.0664554
-0.0636645
-0.0582715
-0.0592572
-0.0738623
-0.0646618
-0.0565379
-0.045295
-0.0599945
-0.0766927
-0.0615816
-0.0566532
-0.0621982
-0.0601006
-0.0715026
-0.0761405
-0.0582538
-0.0703639
-0.0690822
-0.0691267
-0.0720429
-0.069129
0.0113681
-0.000548839
0.00830997
0.00992692
0.00831917
0.00490639
0.0095618
0.00632932
-0.0134334
-0.0230822
-0.0127612
-0.0219528
-0.0181426
-0.0181469
-0.0170403
-0.0174015
0.00635506
-0.00268485
0.00414943
0.0051045
0.00407261
0.00175788
0.00510463
0.0028831
0.00185551
-0.0193342
0.000498661
-0.012319
-0.0074669
-0.0087693
-0.00532374
-0.00727604
-0.00530779
0.0058212
0.00329517
-0.0145724
-0.00369953
0.00326736
-0.00778422
0.000210529
-0.0070274
-0.0145963
-0.00717407
0.00297224
-0.00578034
-0.0102461
-0.00153448
-0.00552403
0.00681403
0.00532356
-0.0130342
0.0038763
0.00719893
0.00183053
0.00197643
-0.0037783
0.00435169
0.00066931
-0.0136062
-0.00608522
0.00173435
-0.000764677
-0.00417165
-0.00773185
-0.0877387
-0.0727466
-0.0649757
-0.0774782
-0.0799939
-0.0765371
-0.0792173
-0.0723256
-0.0585037
-0.0518316
-0.0412727
-0.0448259
-0.0607987
-0.057333
-0.0502642
-0.0475789
-0.0446045
-0.0341957
-0.0290298
-0.0341763
-0.0361385
-0.0338959
-0.0344042
-0.0317555
-0.0588206
-0.0449707
-0.0396382
-0.042802
-0.0600264
-0.0492228
-0.0489366
-0.0443759
-0.0791742
-0.0613592
-0.0783321
-0.0580735
-0.0618337
-0.068939
-0.0598971
-0.0640222
-0.0644089
-0.0482451
-0.0422433
-0.0554938
-0.0587329
-0.0497954
-0.0489927
-0.0441115
-0.0559967
-0.0608379
-0.0470004
-0.040827
-0.0497692
-0.059658
-0.0451745
-0.0498277
-0.0505368
-0.0377222
-0.0423868
-0.0384689
-0.0416079
-0.0419536
-0.0411213
-0.0393154
-0.0280691
-0.0294014
-0.0413806
-0.0334058
-0.0288553
-0.0330005
-0.0333708
-0.0354368
-0.0306382
-0.0374737
-0.0552765
-0.0406176
-0.030324
-0.036855
-0.0414625
-0.0424442
-0.064749
-0.0756434
-0.0941199
-0.0795478
-0.0670073
-0.0802655
-0.0821911
-0.0858589
-0.0387939
-0.0458712
-0.0594207
-0.043303
-0.0416163
-0.048489
-0.0487809
-0.0570404
-0.0305276
-0.0426129
-0.0352454
-0.0395793
-0.0367597
-0.0381252
-0.0379636
-0.0404317
-0.034974
-0.0448287
-0.0581804
-0.0504029
-0.0405859
-0.0429817
-0.0467723
-0.048904
-0.0531214
-0.0405509
-0.0469481
-0.0654206
-0.0478854
-0.0461106
-0.0522961
-0.0479685
-0.0598926
-0.07359
-0.0519176
-0.0621882
-0.0617763
-0.0595005
-0.0591464
-0.0549487
-0.125233
-0.120926
-0.109299
-0.0786156
-0.0970952
-0.0952963
-0.102159
-0.0867931
-0.131907
-0.151599
-0.12382
-0.08345
-0.107999
-0.118628
-0.100133
-0.1005
-0.111381
-0.111158
-0.111605
-0.0726937
-0.0898539
-0.0899234
-0.0866947
-0.083819
-0.0577126
-0.0632663
-0.0609469
-0.0428465
-0.0530531
-0.0672912
-0.0389527
-0.0510166
-0.104408
-0.0896502
-0.0599418
-0.058438
-0.0980858
-0.086316
-0.0821503
-0.0790605
-0.104778
-0.0807005
-0.0971963
-0.0903838
-0.0970103
-0.0877364
-0.114059
-0.0944956
-0.0927838
-0.0529834
-0.0583884
-0.0532542
-0.0799853
-0.0597376
-0.0564876
-0.0566752
-0.0864869
-0.0557577
-0.0557445
-0.0919456
-0.0833687
-0.07763
-0.0942625
-0.0806129
-0.104702
-0.0656566
-0.070801
-0.0644166
-0.0944165
-0.0677656
-0.0882313
-0.0862301
-0.0456112
-0.0342264
-0.0332228
-0.0354333
-0.0447436
-0.027305
-0.0428133
-0.0385337
-0.0528611
-0.0336791
-0.0322315
-0.0369533
-0.0428965
-0.0254068
-0.0367149
-0.0374869
-0.0464226
-0.0347662
-0.0416746
-0.0383043
-0.0492112
-0.0439077
-0.046004
-0.0449651
-0.0599415
-0.07112
-0.063088
-0.0453298
-0.0551106
-0.05956
-0.0453977
-0.0622014
-0.0385001
-0.0405097
-0.0261261
-0.0412705
-0.05488
-0.0367635
-0.0468827
-0.0432803
-0.055441
-0.055307
-0.0378678
-0.0424139
-0.0428157
-0.0580232
-0.0525002
-0.043883
-0.0706196
-0.0441732
-0.038962
-0.0389533
-0.0412808
-0.0429283
-0.04058
-0.0374247
-0.0464084
-0.0457384
-0.0388163
-0.0463721
-0.046766
-0.0440784
-0.0447719
-0.0424514
-0.0447865
-0.0468987
-0.0395269
-0.0475184
-0.0455975
-0.0431676
-0.0444228
-0.0421254
-0.0330976
-0.0333555
-0.0282615
-0.0293481
-0.0341127
-0.0318172
-0.0307389
-0.030924
-0.040676
-0.0391725
-0.0298188
-0.0287583
-0.0357639
-0.0354965
-0.0326694
-0.0303483
-0.0455209
-0.0397745
-0.046102
-0.0466931
-0.043829
-0.0418711
-0.0479722
-0.0444647
-0.0428857
-0.0437805
-0.0369077
-0.0372469
-0.0406038
-0.0425905
-0.0376267
-0.0391977
-0.038515
-0.0423885
-0.0424731
-0.0331995
-0.0383594
-0.0409028
-0.0373952
-0.0404856
-0.0369834
-0.0316553
-0.0385043
-0.0364084
-0.0355699
-0.0362395
-0.037406
-0.0371625
-0.134029
-0.0790456
-0.0725625
-0.08528
-0.0917222
-0.0853952
-0.0887021
-0.0749312
-0.0566785
-0.0432788
-0.0376533
-0.0412386
-0.0484026
-0.0477446
-0.0445365
-0.0393932
-0.0376009
-0.0265007
-0.0136523
-0.0274382
-0.028519
-0.0264824
-0.0252457
-0.0192462
-0.0532681
-0.0383414
-0.0372743
-0.035497
-0.0424867
-0.0418515
-0.0383582
-0.0344855
-0.0679724
-0.0573428
-0.0641463
-0.044478
-0.0633468
-0.0705872
-0.0603105
-0.0600629
-0.063029
-0.0429334
-0.0414855
-0.0551497
-0.0505629
-0.0491853
-0.0551069
-0.0397994
-0.0516982
-0.0576716
-0.0432792
-0.0369539
-0.0494677
-0.048626
-0.0376049
-0.0484696
-0.0397168
-0.030843
-0.0382083
-0.0319768
-0.0428501
-0.0366472
-0.0388593
-0.0355522
-0.0946447
-0.0725998
-0.0599702
-0.0695549
-0.0833147
-0.0795013
-0.0791852
-0.0687709
-0.0478409
-0.0286375
-0.0254622
-0.0289412
-0.0194837
-0.0261033
-0.0287448
-0.0218362
-0.0357136
-0.026002
-0.0255438
-0.0257903
-0.0323596
-0.0288742
-0.0300871
-0.0255019
-0.0421991
-0.0318765
-0.024986
-0.0241756
-0.0191133
-0.0259314
-0.0276731
-0.021211
-0.0456689
-0.0478945
-0.0417031
-0.0213944
-0.0476546
-0.0608724
-0.0441054
-0.0493586
-0.0491373
-0.0272435
-0.0287973
-0.0421192
-0.0359657
-0.0412982
-0.03746
-0.0333975
-0.0439857
-0.0461205
-0.0326264
-0.0302631
-0.0400987
-0.0391599
-0.0322381
-0.0408234
-0.0328105
-0.023824
-0.022683
-0.0242023
-0.0388583
-0.0280846
-0.0297323
-0.0247927
-0.0270379
-0.0329932
-0.0421579
-0.0288938
-0.027516
-0.0332814
-0.0327741
-0.0361942
-0.0406672
-0.0485329
-0.0599323
-0.0464482
-0.0424376
-0.0528262
-0.0483162
-0.0552987
-0.0659556
-0.0781358
-0.0941169
-0.0749154
-0.068561
-0.0803859
-0.080696
-0.0878344
-0.0309255
-0.0394429
-0.0503239
-0.036404
-0.0290754
-0.0388129
-0.0345865
-0.0343389
-0.0357693
-0.0412386
-0.0278847
-0.0367767
-0.0397136
-0.0392059
-0.0360003
-0.0363373
-0.0413196
-0.0465862
-0.0661522
-0.0528624
-0.0431947
-0.0487577
-0.0492841
-0.0496688
-0.0486496
-0.0359069
-0.0434761
-0.052156
-0.0516101
-0.0397713
-0.0510683
-0.0442926
-0.0584677
-0.0575026
-0.0478411
-0.0807894
-0.0641795
-0.0578366
-0.0594161
-0.0545045
-0.134358
-0.151997
-0.121818
-0.120104
-0.147455
-0.141032
-0.132355
-0.135195
-0.149063
-0.147837
-0.114298
-0.119413
-0.13674
-0.157531
-0.127404
-0.130159
-0.0810697
-0.0836299
-0.0424386
-0.0751763
-0.0800544
-0.0717031
-0.065126
-0.061124
-0.102161
-0.107136
-0.0830789
-0.0770088
-0.0937185
-0.0959235
-0.0826795
-0.0867609
-0.140096
-0.118565
-0.113497
-0.11179
-0.123419
-0.125239
-0.115713
-0.110843
-0.141238
-0.109717
-0.10674
-0.112295
-0.125473
-0.121076
-0.12324
-0.115512
-0.0990003
-0.0998998
-0.0985168
-0.0829272
-0.0980131
-0.0999907
-0.0961283
-0.0991705
-0.0952176
-0.083538
-0.102763
-0.0939609
-0.0909084
-0.0895952
-0.0953555
-0.106127
-0.105126
-0.100384
-0.0903971
-0.0977138
-0.114863
-0.103837
-0.0970941
-0.0967131
-0.109561
-0.120093
-0.0888335
-0.104242
-0.121243
-0.115381
-0.103245
-0.105621
-0.0627519
-0.0584269
-0.0381408
-0.0511623
-0.0589407
-0.0523243
-0.0482811
-0.0467526
-0.0778107
-0.0773848
-0.0585832
-0.0562759
-0.0675123
-0.0707704
-0.062762
-0.0648485
-0.109884
-0.0807132
-0.0912724
-0.0964236
-0.0972811
-0.0920677
-0.101787
-0.0920894
-0.10158
-0.0914813
-0.0844558
-0.0788893
-0.0969406
-0.0972093
-0.0894172
-0.0889707
-0.075616
-0.081011
-0.0823927
-0.058391
-0.0702648
-0.0801803
-0.0659
-0.0752278
-0.0739788
-0.0601666
-0.0840139
-0.0778371
-0.069143
-0.0645556
-0.0771146
-0.0709574
-0.0131753
-0.0245717
-0.0371078
-0.0254499
-0.0183929
-0.0225608
-0.0302118
-0.0290093
-0.0340557
-0.0424732
-0.0626038
-0.061264
-0.0446405
-0.0489013
-0.0648864
-0.0484475
-0.0726797
-0.0922732
-0.12714
-0.0905665
-0.0921865
-0.0978566
-0.102239
-0.073905
-0.0373768
-0.0443989
-0.0542025
-0.0358999
-0.0384141
-0.0427411
-0.0426668
-0.0469133
-0.0298494
-0.0437475
-0.0315906
-0.050588
-0.0451567
-0.0421706
-0.0359707
-0.036479
-0.0337445
-0.0580726
-0.0735042
-0.0512978
-0.0407919
-0.0616461
-0.0523878
-0.0671131
-0.0559713
-0.0421884
-0.0598189
-0.0631487
-0.0498405
-0.0434931
-0.0585727
-0.0514949
-0.0585394
-0.0770018
-0.065072
-0.0579402
-0.0802493
-0.06347
-0.0862151
-0.0662144
0.092501
0.0643201
0.0801109
0.0430508
0.0728915
0.0766092
0.0649348
0.0620885
0.0343809
-0.0025906
-0.0241515
0.00533104
0.00849903
-0.0011984
0.000406058
-0.0113909
0.0268712
-0.0387173
-0.0765178
-0.00318029
-0.0292299
-0.0294899
-0.0422197
-0.0355449
0.0186312
0.00241746
-0.000138129
0.00141637
0.0058987
0.00565598
0.00153576
0.00248786
0.0355284
0.0352519
0.0276097
0.0062697
0.0281627
0.0258725
0.0203724
0.0296232
0.0363953
0.00783779
-0.024424
0.024033
0.0233138
0.00776543
0.0331553
-0.00302627
0.0191905
0.0227027
0.00287916
-0.00209444
0.0247999
0.0250154
0.00281709
0.000296461
0.00879893
-0.00108787
0.0053179
-0.0371196
-0.0122531
0.00224006
-0.0148267
-0.00335163
-0.00400364
-0.00878956
-0.00910011
-0.00875521
-0.00630541
-0.00811108
-0.00784012
-0.00906167
-0.0141977
-0.0192311
-0.0173105
-0.017635
-0.0163654
-0.0176482
-0.0167959
-0.0177924
-0.0131391
-0.0162807
-0.0158731
-0.015638
-0.0146735
-0.0155465
-0.0149517
-0.0157299
-0.0140607
-0.0177013
-0.0164861
-0.0186871
-0.0162588
-0.016237
-0.0165615
-0.0171268
-0.0113675
-0.0114437
-0.0114661
-0.0158095
-0.0125805
-0.0111985
-0.0135123
-0.0121956
-0.0129487
-0.0161278
-0.0164393
-0.0123689
-0.0137511
-0.015296
-0.0132867
-0.0152754
-0.0123218
-0.0126174
-0.0162393
-0.0154584
-0.0129066
-0.0134719
-0.0151469
-0.015078
-0.0131896
-0.015995
-0.0167799
-0.0162833
-0.0148759
-0.0155649
-0.015594
-0.0162256
-0.0358602
-0.0304411
-0.0329761
-0.0363345
-0.0377723
-0.0347884
-0.0400316
-0.0355076
-0.0256126
-0.0206842
-0.0223894
-0.0231358
-0.0242356
-0.0234929
-0.0235727
-0.0231438
-0.0297725
-0.0239123
-0.0246003
-0.0290918
-0.0291401
-0.0252806
-0.0291205
-0.0261862
-0.0343455
-0.027989
-0.0331637
-0.0343794
-0.0348659
-0.0320674
-0.0349167
-0.0336379
-0.0303167
-0.0331507
-0.0380152
-0.0282177
-0.0300148
-0.0321172
-0.0291657
-0.0330213
-0.0288732
-0.0261742
-0.0247058
-0.030113
-0.0286677
-0.0251151
-0.0268348
-0.0262482
-0.0348373
-0.0391506
-0.0288121
-0.0331535
-0.0323814