/*--------------------------------*- C++ -*----------------------------------*\
| =========                 |                                                 |
| \\      /  F ield         | OpenFOAM: The Open Source CFD Toolbox           |
|  \\    /   O peration     | Version:  2506                                  |
|   \\  /    A nd           | Website:  www.openfoam.com                      |
|    \\/     M anipulation  |                                                 |
\*---------------------------------------------------------------------------*/
FoamFile
{
    version     2.0;
    format      ascii;
    arch        "LSB;label=32;scalar=64";
    class       surfaceScalarField;
    location    "1800";
    object      phi;
}
// * * * * * * * * * * * * * * * * * * * * * * * * * * * * * * * * * * * * * //

dimensions      [0 3 -1 0 0 0 0];

oriented        oriented;

internalField   nonuniform List<scalar> 
138592
(
-1.28139e-07
1.48536e-06
-1.30719e-06
-5.0028e-08
1.47887e-06
-1.34704e-07
-1.29939e-06
-4.47726e-08
-4.85978e-08
-1.23813e-07
1.53407e-06
-1.36166e-06
-1.30875e-06
-1.25289e-07
1.49136e-06
-5.73251e-08
-1.43787e-06
1.36062e-06
-5.08947e-08
1.36151e-06
-1.32051e-06
-1.43993e-06
1.4918e-06
-1.27013e-07
-1.42071e-07
1.47412e-06
-1.29404e-06
-3.80111e-08
1.47409e-06
-1.51277e-07
-1.2906e-06
-3.22116e-08
-2.00533e-08
1.53232e-06
-1.64179e-07
-1.34809e-06
-1.32182e-06
1.49845e-06
-1.3507e-07
-4.15616e-08
-1.45921e-06
1.3497e-06
-3.25658e-08
1.33825e-06
-1.32337e-06
-1.46383e-06
1.49172e-06
-1.45641e-07
-1.30383e-07
-3.432e-08
1.61095e-06
-1.44625e-06
1.61814e-06
-1.36816e-08
-1.5786e-07
-1.4466e-06
-2.32749e-08
-1.29348e-07
1.71327e-06
-1.56065e-06
-1.4856e-06
-4.4125e-08
-1.20412e-07
1.65014e-06
-1.61769e-06
1.51487e-06
-2.75656e-08
1.50369e-06
-1.50324e-06
-1.61789e-06
1.64716e-06
-1.37474e-07
-1.20534e-07
-1.3154e-06
1.49954e-06
-6.36007e-08
1.50835e-06
-1.32924e-06
-1.22744e-07
-5.63658e-08
-6.85743e-08
-1.38704e-06
-1.04897e-07
1.56051e-06
-1.32871e-06
-1.06482e-07
1.50601e-06
-7.08153e-08
-1.45097e-06
1.39518e-06
-6.47412e-08
1.39687e-06
-1.33949e-06
-1.44428e-06
1.51075e-06
-1.15982e-07
1.35615e-06
-1.4462e-06
-4.46577e-08
-4.58014e-08
-1.50339e-06
1.42538e-06
-1.43589e-06
1.36708e-06
-5.6473e-08
1.28655e-07
-1.45787e-06
1.37391e-06
-4.46976e-08
1.49163e-06
1.31514e-06
-1.45061e-06
1.31882e-06
1.49302e-06
-4.92265e-08
1.37594e-06
1.34658e-06
-1.31866e-06
-1.33405e-06
1.37463e-06
1.53236e-06
1.39791e-06
-1.39794e-06
-1.52945e-06
1.41518e-06
-1.38912e-06
-1.34274e-07
3.02439e-08
2.33962e-08
-1.4775e-07
-1.35145e-06
1.408e-06
1.38337e-06
-1.51716e-06
1.55917e-06
-1.44901e-06
1.50068e-06
1.50607e-06
-1.4614e-06
-1.43858e-06
-1.53476e-06
1.5863e-06
-5.05464e-08
-1.22067e-07
1.55598e-06
-1.23617e-07
-4.296e-08
-1.51769e-06
-1.36305e-07
-1.44052e-06
-1.38362e-07
4.39987e-08
-1.3077e-07
1.53658e-06
-1.52348e-07
1.39293e-06
-1.5568e-06
-1.56528e-06
1.38778e-06
-1.33508e-07
9.63293e-07
-9.39047e-07
-2.5506e-07
2.30814e-07
-2.59614e-07
9.68358e-07
-9.37124e-07
2.2838e-07
-9.36049e-07
9.73561e-07
-2.61778e-07
2.24266e-07
2.31458e-07
9.66707e-07
-9.38355e-07
-2.5981e-07
1.19538e-06
7.06337e-07
-9.38421e-07
7.07279e-07
2.28484e-07
1.19807e-06
-2.60274e-07
9.69299e-07
9.71976e-07
-2.59404e-07
-9.40315e-07
2.27743e-07
-2.57214e-07
-9.45692e-07
9.74034e-07
2.28872e-07
-9.47617e-07
-2.58681e-07
9.76426e-07
2.29872e-07
2.32213e-07
-2.57445e-07
-9.46042e-07
9.71274e-07
1.20241e-06
7.1391e-07
-9.44345e-07
7.16808e-07
2.28389e-07
1.20504e-06
-2.58914e-07
9.74228e-07
9.80106e-07
-9.42617e-07
-2.64247e-07
2.26758e-07
-2.60029e-07
-9.50904e-07
9.79535e-07
2.31398e-07
-9.56223e-07
9.82858e-07
-2.60624e-07
2.33989e-07
2.34331e-07
-9.50733e-07
9.81182e-07
-2.6478e-07
1.21177e-06
7.17592e-07
-9.49255e-07
7.21687e-07
2.30053e-07
1.2155e-06
-2.63574e-07
9.80961e-07
9.69689e-07
2.33934e-07
-9.40524e-07
-2.63099e-07
-2.60614e-07
2.34548e-07
-9.46002e-07
9.72068e-07
-9.47722e-07
2.3526e-07
9.78509e-07
-2.66047e-07
2.37574e-07
-9.45678e-07
9.74722e-07
-2.66618e-07
1.2059e-06
7.08523e-07
-9.44735e-07
7.09907e-07
2.35379e-07
1.21125e-06
-2.65151e-07
9.73433e-07
7.09215e-07
1.19889e-06
-9.39745e-07
-9.39461e-07
1.20205e-06
7.10974e-07
1.19994e-06
7.07448e-07
-9.40682e-07
-9.69956e-07
1.20344e-06
7.12295e-07
-9.45777e-07
-2.61379e-07
-2.30517e-07
1.20111e-06
-2.31541e-07
-2.59877e-07
-9.40596e-07
7.08523e-07
7.11436e-07
2.28048e-07
2.32172e-07
7.13821e-07
-1.20548e-06
7.17672e-07
2.29127e-07
2.62458e-07
7.13444e-07
2.26146e-07
9.71817e-07
9.4073e-07
9.45076e-07
9.75954e-07
2.27234e-07
7.1555e-07
-2.30615e-07
1.20624e-06
-2.64647e-07
1.20411e-06
-2.62724e-07
-2.60538e-07
1.20738e-06
-7.12252e-07
1.21289e-06
-2.65374e-07
-9.41312e-07
9.75033e-07
-2.64336e-07
9.71317e-07
-9.46158e-07
1.20894e-06
9.77063e-07
-7.14757e-07
9.76909e-07
9.48598e-07
9.72605e-07
-1.21041e-06
9.77174e-07
-2.33692e-07
2.615e-07
2.60491e-07
-2.33356e-07
9.75732e-07
1.30016e-07
1.04705e-06
-9.99241e-08
-1.07714e-06
-1.05369e-07
1.30432e-07
1.00596e-06
-1.03102e-06
1.03878e-06
1.58475e-07
-1.28546e-07
-1.06871e-06
-1.06143e-06
1.34316e-07
1.05849e-06
-1.31381e-07
-9.60851e-07
1.71839e-08
1.07368e-06
2.72102e-08
-1.09343e-06
-9.17778e-07
-1.26468e-07
1.4821e-07
1.49124e-07
-1.0871e-07
9.73815e-07
-1.01423e-06
-1.17277e-07
1.04784e-06
-1.05991e-06
1.03703e-06
-1.14999e-07
-1.07989e-06
-1.06518e-06
-1.19237e-07
1.06401e-06
-9.56719e-07
2.43747e-08
1.08147e-06
2.38437e-08
-1.09784e-06
-9.23397e-07
-1.17413e-07
1.60724e-07
9.71242e-07
-1.24011e-07
-1.00796e-06
-1.23032e-07
9.86914e-07
-1.02806e-06
9.34069e-07
-1.17853e-07
-9.67493e-07
-9.71484e-07
9.53874e-07
-1.1746e-07
-8.44669e-07
3.08244e-08
9.74568e-07
3.48816e-08
-1.00258e-06
-8.2331e-07
-1.1735e-07
1.08639e-07
-9.95606e-07
1.01536e-06
-1.28391e-07
-1.15168e-07
-1.01261e-06
1.02288e-06
9.65702e-07
-9.66712e-07
-1.21734e-07
-9.55306e-07
9.71962e-07
-1.23138e-07
-8.82125e-07
-1.47199e-08
1.00548e-06
-3.72379e-09
-9.93569e-07
-8.45996e-07
-1.2403e-07
1.6597e-08
-9.43376e-07
1.05721e-06
1.04664e-06
-9.14884e-07
2.67206e-08
-9.29348e-07
-6.55181e-09
1.07022e-06
-1.2388e-07
-9.43828e-07
-4.03133e-09
1.07174e-06
-1.29504e-07
1.07265e-06
-9.26555e-07
1.06535e-06
-1.28994e-07
1.07777e-06
7.00296e-09
2.19113e-08
-1.074e-06
-1.08312e-06
2.00594e-08
9.32338e-07
4.02993e-08
-1.08764e-06
1.26981e-07
3.26318e-08
-1.0745e-06
1.43696e-07
-1.04834e-06
-1.05684e-06
1.55532e-07
-1.07689e-06
3.10276e-08
1.00679e-06
-8.59141e-07
-1.20924e-07
-8.75897e-07
-1.26261e-07
-1.24727e-07
-8.91912e-07
-9.5745e-09
-8.3668e-07
-1.20458e-07
9.94512e-07
1.34359e-07
-1.22086e-07
1.25617e-07
9.92679e-07
-8.67895e-07
1.44733e-07
-1.35759e-08
-1.01021e-06
8.74865e-07
9.98565e-07
1.20736e-07
1.17094e-07
1.02663e-06
9.43421e-07
4.8624e-07
-9.60079e-07
-4.69583e-07
-9.60729e-07
9.42291e-07
4.89716e-07
-4.71278e-07
4.87247e-07
9.42309e-07
-9.60081e-07
-4.69475e-07
-4.70028e-07
9.42987e-07
4.89091e-07
-9.6205e-07
4.72645e-07
-1.73133e-08
4.8809e-07
-1.75066e-08
-4.70577e-07
4.72941e-07
-9.60283e-07
9.42681e-07
9.43334e-07
-9.62799e-07
4.93673e-07
-4.74208e-07
-9.66199e-07
4.98532e-07
-4.78025e-07
4.98258e-07
-9.63905e-07
-4.74668e-07
-4.75843e-07
-9.66302e-07
4.96103e-07
4.67805e-07
-2.06015e-08
4.96131e-07
-2.11703e-08
-4.77224e-07
4.67257e-07
-9.63702e-07
9.40924e-07
4.88677e-07
-9.60073e-07
-4.69529e-07
-9.61603e-07
4.95894e-07
-4.71415e-07
4.90423e-07
-9.59874e-07
-4.69596e-07
-4.69929e-07
4.93346e-07
-9.61772e-07
4.68801e-07
-2.04878e-08
4.92611e-07
-2.1942e-08
-4.7086e-07
4.6994e-07
-9.60357e-07
9.42924e-07
-4.69725e-07
4.92894e-07
-9.66092e-07
-9.68924e-07
-4.7317e-07
4.96092e-07
4.95167e-07
-4.69535e-07
-9.66156e-07
-4.69553e-07
4.97668e-07
-9.73793e-07
4.72988e-07
-2.49793e-08
4.94915e-07
-2.35466e-08
-4.72389e-07
4.73114e-07
-9.67646e-07
-1.93998e-08
4.69621e-07
4.9207e-07
4.90102e-07
4.70826e-07
-1.86191e-08
4.7233e-07
-2.05528e-08
4.9121e-07
-9.43929e-07
4.71074e-07
-2.14798e-08
4.94335e-07
-9.61614e-07
4.72377e-07
4.69838e-07
4.71169e-07
-9.63665e-07
4.92113e-07
-2.01662e-08
-1.96999e-08
-4.73479e-07
-4.74204e-07
-2.10235e-08
-4.66783e-07
-2.31386e-08
-4.73984e-07
9.60868e-07
-1.92888e-08
-4.70754e-07
9.42495e-07
-4.92357e-07
-4.95412e-07
9.3986e-07
-4.71349e-07
-2.23341e-08
4.70004e-07
4.71721e-07
-9.60344e-07
4.72179e-07
-9.62457e-07
-9.65399e-07
4.70749e-07
2.3223e-08
4.70167e-07
-9.62925e-07
4.91189e-07
9.40782e-07
-9.61968e-07
9.43202e-07
4.94586e-07
4.69419e-07
9.4111e-07
2.28314e-08
-4.96052e-07
-4.6699e-07
4.7166e-07
9.62061e-07
9.63911e-07
4.72737e-07
1.7928e-06
-3.65427e-07
-9.4113e-07
-4.87296e-07
1.79582e-06
-3.66434e-07
-9.42091e-07
-9.40902e-07
1.79689e-06
-3.66269e-07
-3.6471e-07
1.79609e-06
-9.42289e-07
1.42816e-06
1.30617e-06
-9.41535e-07
1.30697e-06
-3.66109e-07
1.42955e-06
1.79562e-06
1.79983e-06
-4.87281e-07
-3.68021e-07
-9.44531e-07
-4.86631e-07
1.80403e-06
-3.69915e-07
-9.47483e-07
-9.46007e-07
-4.88935e-07
1.80477e-06
-3.69828e-07
-3.67814e-07
-4.89364e-07
1.80584e-06
-9.48661e-07
1.43301e-06
1.31401e-06
-9.47188e-07
1.31548e-06
-3.69106e-07
1.43504e-06
-4.88845e-07
1.80452e-06
1.8025e-06
-9.40821e-07
-3.68006e-07
-4.91746e-07
-9.43775e-07
1.80557e-06
-3.70045e-07
-9.41603e-07
1.80986e-06
-3.69723e-07
-3.67853e-07
-9.44225e-07
1.80818e-06
1.43424e-06
1.30961e-06
-9.41349e-07
1.31213e-06
-3.69633e-07
1.43788e-06
1.80841e-06
1.80245e-06
-3.63205e-07
-9.4635e-07
-4.92914e-07
-3.65537e-07
1.8093e-06
-9.50847e-07
-9.4888e-07
-3.64665e-07
1.80964e-06
-3.6147e-07
1.81363e-06
-9.54495e-07
1.44177e-06
1.31156e-06
-9.50884e-07
1.31365e-06
-3.64797e-07
1.44501e-06
1.80978e-06
1.30937e-06
1.43038e-06
-9.43924e-07
-9.41287e-07
1.43108e-06
1.30709e-06
1.43305e-06
1.30759e-06
-9.4455e-07
-1.80072e-06
1.43639e-06
1.31246e-06
-9.48129e-07
-4.89e-07
3.66073e-07
1.43229e-06
3.65335e-07
-4.89454e-07
-9.45193e-07
1.30893e-06
1.31058e-06
-3.67481e-07
-3.67389e-07
1.31442e-06
-1.433e-06
1.31323e-06
-3.69161e-07
4.89944e-07
1.30872e-06
-3.67589e-07
1.80009e-06
9.42789e-07
9.43851e-07
1.80062e-06
-3.67884e-07
1.31147e-06
3.66283e-07
1.43288e-06
1.43559e-06
-4.92077e-07
1.439e-06
-1.30977e-06
1.43944e-06
-9.43338e-07
1.80173e-06
1.80119e-06
-9.44314e-07
1.43628e-06
1.80078e-06
-1.31211e-06
1.80732e-06
9.47276e-07
1.80614e-06
-1.43537e-06
1.80482e-06
3.67613e-07
4.91823e-07
4.91782e-07
3.67922e-07
1.80698e-06
-3.71825e-08
-1.15297e-06
-1.22291e-07
1.31245e-06
-1.0798e-06
-6.69176e-08
-1.31902e-07
1.27862e-06
-1.31269e-07
-6.75275e-08
-1.05654e-06
1.25534e-06
1.25534e-06
-2.54155e-08
-1.08392e-06
-1.45997e-07
1.22397e-06
-1.13156e-06
-1.29599e-07
-1.11914e-06
1.26331e-06
1.20087e-06
-1.07708e-06
-4.95414e-08
-7.94135e-08
-9.96904e-07
-1.32184e-07
1.2085e-06
-9.43455e-07
-7.88e-08
-1.26093e-07
1.14835e-06
-1.27625e-07
-9.35468e-07
-7.65672e-08
1.13966e-06
1.14296e-06
-9.52345e-07
-6.00707e-08
-1.30539e-07
1.07961e-06
-1.02847e-06
-1.30556e-07
-1.0177e-06
1.15386e-06
1.07736e-06
-9.62879e-07
-6.79599e-08
-9.00892e-08
-1.26465e-07
-9.8038e-07
1.19693e-06
-9.37503e-07
-1.24529e-07
-8.23405e-08
1.14437e-06
-1.14002e-07
-9.46555e-07
-8.95874e-08
1.15014e-06
1.14251e-06
-1.24284e-07
-9.50621e-07
-6.76099e-08
1.06022e-06
-1.02755e-06
-1.22757e-07
-1.03475e-06
1.15746e-06
1.07073e-06
-9.55762e-07
-7.80212e-08
-1.8986e-08
1.15743e-06
-9.95341e-07
-1.43103e-07
-9.56728e-07
1.13033e-06
-3.4492e-08
-1.39112e-07
-1.29983e-07
1.12373e-06
-9.50219e-07
-4.35289e-08
1.09979e-06
-9.40831e-07
-2.16377e-08
-1.3732e-07
1.09958e-06
-9.79793e-07
-1.38777e-07
-9.81981e-07
1.12484e-06
1.08444e-06
-9.64443e-07
-2.75264e-08
-1.05907e-06
1.14042e-06
-1.4826e-07
-1.3407e-07
1.12032e-06
-1.05378e-06
1.15905e-06
-1.04083e-06
-1.43633e-07
4.13319e-08
1.09918e-06
-1.00605e-06
-1.34468e-07
-9.97336e-07
-1.18717e-06
1.12544e-06
-1.18095e-06
-1.00599e-06
-1.39853e-07
-1.02789e-06
-1.06022e-06
1.20374e-06
1.1483e-06
-1.00146e-06
-1.06823e-06
-1.01663e-06
1.14939e-06
9.81535e-07
-1.06557e-06
1.20435e-06
-5.70747e-08
1.22288e-07
1.28346e-07
-7.81265e-08
1.18195e-06
-1.01801e-06
-1.17832e-06
1.12289e-06
-9.98353e-07
1.12379e-06
-1.00719e-06
-9.56525e-07
1.08081e-06
1.00244e-06
1.08349e-06
-9.62198e-07
-1.34775e-07
-5.24475e-08
-9.91095e-07
-3.88764e-08
-1.29437e-07
1.07943e-06
-6.91399e-08
1.01016e-06
-5.0952e-08
1.29812e-07
-5.04639e-08
-1.06875e-06
-7.24168e-08
-1.14205e-06
9.50158e-07
9.47532e-07
-1.1366e-06
-5.92544e-08
1.42521e-06
8.09814e-07
-5.21755e-07
-1.68831e-06
1.38388e-06
7.91052e-07
-4.86616e-07
-5.12339e-07
1.35804e-06
7.65248e-07
7.82365e-07
1.38608e-06
-5.18308e-07
2.22785e-06
-2.68336e-07
-5.34303e-07
-2.66329e-07
8.05864e-07
2.16119e-06
1.38252e-06
1.36808e-06
-1.64836e-06
7.54961e-07
-4.74688e-07
-1.66123e-06
7.82586e-07
-5.18555e-07
1.39719e-06
-5.14422e-07
-1.63248e-06
7.75037e-07
1.37187e-06
7.85651e-07
-1.63667e-06
-5.08973e-07
1.36e-06
2.15996e-06
-2.75735e-07
-5.16148e-07
-2.76515e-07
7.75254e-07
2.16505e-06
-1.65514e-06
1.37412e-06
1.29099e-06
-4.88156e-07
7.31244e-07
-1.54307e-06
-4.89147e-07
7.35897e-07
1.29632e-06
-4.71385e-07
7.11802e-07
1.24494e-06
7.16116e-07
-4.71219e-07
1.24646e-06
2.02926e-06
-2.46075e-07
-4.92198e-07
-2.45653e-07
7.31841e-07
1.96185e-06
1.24481e-06
1.3068e-06
7.55228e-07
-5.01516e-07
-1.55215e-06
7.4795e-07
-4.86445e-07
1.29064e-06
-4.71534e-07
7.19663e-07
1.25141e-06
7.24142e-07
-4.7294e-07
1.25481e-06
2.04975e-06
-2.54435e-07
-4.88513e-07
-2.53275e-07
7.50871e-07
1.98045e-06
1.25565e-06
-2.69738e-07
2.17204e-06
-5.18422e-07
-5.14722e-07
2.12713e-06
-2.5437e-07
2.16912e-06
-2.63526e-07
-5.19517e-07
-1.37981e-06
2.15815e-06
-2.68035e-07
-5.10313e-07
-1.65221e-06
-7.85367e-07
2.16784e-06
-7.84411e-07
-1.64752e-06
-5.17655e-07
-2.62807e-07
-2.70163e-07
7.93845e-07
7.85103e-07
-2.63622e-07
-2.13812e-06
-2.57497e-07
7.63135e-07
1.61576e-06
-2.54133e-07
7.65501e-07
1.3865e-06
5.11179e-07
5.16461e-07
1.36255e-06
7.64397e-07
-2.59115e-07
-7.45771e-07
2.05057e-06
2.07801e-06
-1.57604e-06
2.05596e-06
2.50084e-07
1.97026e-06
-4.95499e-07
1.30571e-06
1.3197e-06
-4.9453e-07
2.05033e-06
1.30828e-06
2.49597e-07
1.24945e-06
4.8677e-07
1.30556e-06
-2.04911e-06
1.30247e-06
-7.48154e-07
1.56424e-06
1.55177e-06
-7.43987e-07
1.29455e-06
-4.05855e-08
-2.46715e-07
-2.46461e-07
-4.08418e-08
9.6029e-07
-4.07521e-08
-2.4676e-07
-6.73532e-07
-4.22352e-08
-2.46283e-07
-7.13548e-07
-2.8732e-07
-2.87231e-07
-7.14248e-07
-2.46603e-07
-4.11882e-08
-4.11448e-08
-2.46149e-07
-2.46074e-07
-4.10211e-08
9.60344e-07
-2.46615e-07
-4.09505e-08
-6.73283e-07
-2.44819e-07
-4.36696e-08
-7.14065e-07
-2.87436e-07
-2.87361e-07
-7.1514e-07
-2.45579e-07
-4.21568e-08
-4.08583e-08
9.60476e-07
-2.46839e-07
-2.46884e-07
9.60452e-07
-4.07895e-08
9.60635e-07
-4.07764e-08
-2.4708e-07
-6.7308e-07
9.62919e-07
-4.3242e-08
-2.46597e-07
-7.13688e-07
-2.87826e-07
9.60657e-07
-2.87794e-07
-7.14535e-07
-2.46372e-07
-4.1694e-08
-4.44538e-08
-6.74896e-07
-2.46742e-07
-2.45632e-07
-6.74824e-07
-4.56994e-08
9.67474e-07
-6.74718e-07
-4.58532e-08
-2.46903e-07
-6.78045e-07
-4.72486e-08
-2.485e-07
-7.20121e-07
-2.9198e-07
-2.91103e-07
-6.7465e-07
-7.22711e-07
-2.47313e-07
-4.63399e-08
-2.87391e-07
-7.13795e-07
9.60583e-07
-7.13731e-07
-2.87604e-07
-7.16032e-07
-2.8866e-07
4.29765e-08
-7.16827e-07
-2.89074e-07
-2.46183e-07
6.73539e-07
-7.14747e-07
6.73211e-07
-2.45452e-07
-2.88273e-07
-2.87166e-07
-6.73257e-07
-2.88389e-07
7.13758e-07
-2.87595e-07
2.46629e-07
-2.87581e-07
-4.16199e-08
-9.60293e-07
-9.60456e-07
-4.08856e-08
-2.87584e-07
6.7321e-07
-7.14416e-07
-2.46399e-07
-7.17154e-07
-2.46402e-07
-2.45528e-07
-7.1837e-07
2.89589e-07
-7.18031e-07
-2.46276e-07
9.62187e-07
-4.26234e-08
-2.46353e-07
-4.32406e-08
9.63419e-07
-7.16454e-07
-4.15204e-08
2.89216e-07
-4.43279e-08
-9.62352e-07
-4.4407e-08
7.14749e-07
-4.18912e-08
6.73174e-07
2.45962e-07
2.45936e-07
6.73127e-07
-4.32894e-08
1.12131e-06
-7.84099e-07
4.72603e-07
4.61808e-07
1.04636e-06
-7.42922e-07
-7.71314e-07
1.08589e-06
4.76473e-07
-8.08117e-07
1.06811e-06
-7.46063e-07
4.86074e-07
3.08955e-07
1.58917e-06
-7.76818e-07
1.57663e-06
2.90527e-07
4.90529e-07
1.09584e-06
9.85832e-07
4.4009e-07
-6.94677e-07
4.25628e-07
9.44335e-07
-6.58161e-07
-6.76031e-07
4.41974e-07
9.69954e-07
-7.30902e-07
4.36386e-07
9.61216e-07
-6.667e-07
2.45713e-07
1.4131e-06
-6.72982e-07
1.40318e-06
2.39717e-07
4.42481e-07
9.66869e-07
1.0388e-06
-7.53283e-07
4.69441e-07
4.69591e-07
-7.08029e-07
1.01347e-06
-7.35507e-07
1.02383e-06
4.94259e-07
-7.82912e-07
-7.35276e-07
1.02144e-06
4.96746e-07
2.58724e-07
1.53392e-06
-7.53841e-07
1.50357e-06
2.47246e-07
5.03758e-07
1.01531e-06
1.01162e-06
-7.73846e-07
-7.08065e-07
4.70294e-07
4.46761e-07
-7.42542e-07
9.76772e-07
-6.80991e-07
-7.09695e-07
-7.88808e-07
1.02152e-06
4.76981e-07
-7.53477e-07
9.86332e-07
-6.87253e-07
4.54399e-07
2.52139e-07
1.46561e-06
-7.06135e-07
1.45543e-06
-7.5653e-07
2.45561e-07
4.66574e-07
9.91295e-07
1.48572e-06
2.75507e-07
-7.14864e-07
-7.74717e-07
2.89506e-07
1.5711e-06
2.86679e-07
1.53082e-06
-7.49391e-07
-1.00613e-06
2.54652e-07
1.44093e-06
-6.8945e-07
4.65323e-07
7.48345e-07
2.72051e-07
7.86446e-07
4.53392e-07
-7.11178e-07
1.52652e-06
1.4811e-06
-7.46505e-07
1.43754e-06
-2.6101e-07
1.46612e-06
-4.63029e-07
1.54638e-06
1.02506e-06
7.28092e-07
7.21034e-07
1.02946e-06
1.48948e-06
8.02435e-07
2.67346e-07
5.01321e-07
2.67358e-07
4.89614e-07
4.51974e-07
2.46414e-07
-1.54057e-06
2.53946e-07
4.97817e-07
-7.48996e-07
1.06018e-06
4.91248e-07
1.04488e-06
-7.40323e-07
2.59936e-07
1.06044e-06
-1.50896e-06
1.02763e-06
6.96617e-07
9.87339e-07
-2.50271e-07
1.00836e-06
7.82259e-07
-4.75657e-07
-4.66764e-07
7.63555e-07
9.93408e-07
7.27232e-07
9.71831e-07
1.10795e-07
9.72679e-07
7.22249e-07
1.10638e-07
-1.81183e-06
7.26244e-07
9.74794e-07
1.10795e-07
1.12096e-07
7.2383e-07
9.72255e-07
8.37403e-07
1.69824e-06
1.69869e-06
1.11395e-07
8.37939e-07
9.72397e-07
7.24793e-07
7.19881e-07
9.74121e-07
1.10767e-07
9.7552e-07
1.10659e-07
7.1785e-07
-1.80771e-06
9.76387e-07
1.10268e-07
7.21055e-07
1.12829e-07
9.74643e-07
7.18368e-07
8.3092e-07
1.69348e-06
1.69637e-06
1.10066e-07
8.32108e-07
9.74202e-07
7.20772e-07
7.25024e-07
-1.81196e-06
9.76632e-07
1.10308e-07
9.77294e-07
-1.81096e-06
1.09811e-07
7.23859e-07
-1.81225e-06
9.77529e-07
1.09784e-07
7.24941e-07
1.106e-07
-1.81305e-06
9.77784e-07
7.24664e-07
8.34864e-07
1.70219e-06
-1.81203e-06
1.70198e-06
1.10178e-07
8.35249e-07
9.77542e-07
7.24976e-07
7.2199e-07
1.15046e-07
9.72601e-07
9.74627e-07
1.15651e-07
7.19021e-07
-1.81463e-06
1.13689e-07
9.77043e-07
7.23903e-07
1.18393e-07
9.74606e-07
7.20633e-07
8.37927e-07
1.69384e-06
1.69764e-06
1.14912e-07
8.39103e-07
9.73134e-07
7.2211e-07
1.69373e-06
8.33335e-07
-1.80984e-06
8.35923e-07
1.70016e-06
8.36478e-07
1.69468e-06
-7.20591e-07
8.33733e-07
1.693e-06
9.72438e-07
-1.13016e-07
8.34312e-07
-1.12608e-07
9.73374e-07
1.69724e-06
1.6966e-06
1.10853e-07
1.1219e-07
1.69619e-06
-8.33461e-07
1.69986e-06
1.09984e-07
-9.75163e-07
1.70025e-06
1.10834e-07
7.22084e-07
1.80883e-06
1.80848e-06
7.2286e-07
1.10807e-07
1.69787e-06
-1.11464e-07
8.36206e-07
9.75417e-07
8.37127e-07
9.72595e-07
9.73606e-07
8.3504e-07
-1.69988e-06
8.36876e-07
9.76691e-07
-1.81154e-06
7.24684e-07
9.75395e-07
7.22828e-07
-1.81135e-06
8.36152e-07
7.24495e-07
-1.70017e-06
7.23997e-07
1.8098e-06
7.21422e-07
-8.3442e-07
7.23319e-07
-1.11525e-07
-9.76011e-07
-9.75542e-07
-1.12556e-07
7.21706e-07
1.134e-06
-2.05984e-06
1.0764e-07
8.18199e-07
-1.97238e-06
1.10989e-06
7.81494e-08
7.84333e-07
7.85108e-07
1.16421e-06
-1.98602e-06
3.66994e-08
5.69014e-08
1.19747e-06
-2.0609e-06
8.06525e-07
1.19937e-06
-8.66758e-07
8.01382e-07
-8.58637e-07
8.56337e-08
1.23098e-06
-2.04084e-06
1.15745e-06
1.09931e-06
-1.93874e-06
6.80811e-08
7.71343e-07
-1.8979e-06
6.34041e-08
1.0853e-06
7.49192e-07
7.40399e-07
-1.88002e-06
5.67492e-08
1.08287e-06
5.48856e-08
-1.92356e-06
1.1149e-06
7.53777e-07
1.15304e-06
-8.20506e-07
7.66778e-07
-8.04928e-07
6.00705e-08
1.15601e-06
-1.92163e-06
1.09148e-06
1.13262e-06
7.45455e-07
-1.90415e-06
2.60805e-08
-1.86128e-06
7.32834e-07
3.40433e-08
1.09441e-06
7.13585e-07
-1.81819e-06
1.22769e-08
1.09232e-06
1.1282e-08
7.16404e-07
-1.8481e-06
1.12041e-06
1.14933e-06
-7.52208e-07
7.35497e-07
-7.46593e-07
3.46358e-08
1.13006e-06
-1.87098e-06
1.09705e-06
1.17992e-06
3.79879e-08
-1.97245e-06
7.54538e-07
-1.92057e-06
3.87986e-08
1.13944e-06
7.42332e-07
7.17558e-07
1.34696e-08
-1.86317e-06
1.13214e-06
1.03998e-08
-1.89589e-06
1.17558e-06
7.0991e-07
1.19823e-06
-7.55265e-07
7.36956e-07
-7.54865e-07
3.25187e-08
1.1676e-06
-1.91246e-06
1.13029e-06
-8.49116e-07
1.17372e-06
7.85294e-07
7.70547e-07
1.19141e-06
-7.97743e-07
1.23498e-06
-8.18583e-07
7.81076e-07
-1.15178e-06
1.18581e-06
-7.95561e-07
7.61528e-07
-1.98348e-06
-5.744e-08
1.19181e-06
-5.54857e-08
-1.99199e-06
7.82771e-07
-8.12495e-07
-8.36304e-07
7.12846e-08
4.81715e-08
-7.85926e-07
-1.1536e-06
-7.83065e-07
5.66431e-08
1.93342e-06
-7.92351e-07
5.03386e-08
1.12044e-06
-7.64936e-07
-7.53016e-07
1.11543e-06
5.30602e-08
-7.91186e-07
-2.64044e-08
1.17813e-06
-1.94946e-06
1.21203e-06
-1.99262e-06
-1.91766e-06
1.16089e-06
7.49657e-07
1.14278e-06
-1.87896e-06
7.50239e-07
1.14867e-06
-1.92531e-06
1.14977e-06
7.35366e-07
1.16296e-06
1.13123e-06
7.44776e-07
1.1144e-06
-7.31343e-07
1.10631e-06
-1.14085e-06
1.09061e-06
-3.10345e-08
1.89776e-06
1.8767e-06
-3.42707e-08
1.11108e-06
2.90665e-08
7.66137e-08
-1.25865e-06
-1.18875e-06
1.16987e-09
1.31034e-07
1.0594e-06
3.30229e-08
1.08146e-07
-1.20057e-06
9.67114e-08
4.37e-08
-1.22434e-06
1.26048e-07
-1.17407e-06
-1.17049e-06
1.07785e-07
1.33518e-07
-1.21087e-06
2.24376e-08
-2.62099e-08
-1.10594e-06
1.5177e-07
-1.05753e-06
1.40968e-07
-2.99964e-08
9.56986e-07
-1.07049e-06
1.22357e-07
-8.85112e-09
1.24422e-07
-1.0693e-06
-5.74165e-09
1.10867e-07
-1.09284e-06
-1.08356e-06
1.36903e-07
1.1214e-07
-1.08056e-06
-1.44373e-08
3.21534e-08
9.92089e-07
9.78702e-08
-1.12211e-06
-1.07242e-06
9.59653e-07
1.00536e-07
1.22268e-08
9.55509e-07
8.39897e-08
2.64254e-08
-1.06592e-06
8.56468e-08
9.51552e-07
2.85746e-08
-1.06577e-06
1.16867e-07
-1.04993e-06
9.65219e-07
-1.05027e-06
9.47201e-08
1.14599e-07
-1.07888e-06
1.98386e-08
4.81009e-08
8.85298e-08
-1.13197e-06
-1.07564e-06
1.06979e-07
1.84417e-08
9.48103e-07
8.90525e-08
3.17029e-08
-1.06886e-06
8.91028e-08
4.01931e-08
-1.07013e-06
1.26252e-07
-1.04259e-06
-1.04568e-06
9.62944e-08
1.23109e-07
-1.0766e-06
2.55293e-08
-1.12475e-06
1.27563e-07
1.00137e-06
1.30462e-07
-1.09881e-06
1.29648e-07
-1.09314e-06
-7.78633e-09
1.18477e-07
-1.07289e-06
-1.12841e-06
-1.24016e-07
1.27684e-07
-1.04606e-07
-1.1229e-06
-1.09786e-06
-1.11905e-06
1.40671e-07
1.17923e-07
-1.06875e-06
-1.13772e-07
-1.07082e-06
1.14103e-07
1.1156e-06
-1.09896e-06
1.13817e-07
-2.9782e-09
-9.88386e-07
-9.65612e-07
4.7057e-09
1.22512e-07
-1.07468e-06
-9.70445e-08
1.29071e-07
-1.13083e-06
1.31094e-07
-1.1357e-06
-1.08483e-06
1.18917e-07
1.04752e-06
1.19692e-07
-1.07816e-06
9.92337e-07
3.63301e-08
-1.12571e-06
2.55752e-08
9.62956e-07
1.20897e-07
2.2201e-08
1.04979e-06
2.14492e-08
-9.56547e-07
6.71531e-09
-1.14219e-07
3.04897e-09
-9.6591e-08
1.08401e-06
1.0741e-06
-1.04887e-07
1.26669e-08
-9.84653e-07
1.08829e-06
8.79226e-07
1.08314e-06
-9.78122e-07
8.74513e-07
-9.76423e-07
-9.82698e-07
1.08323e-06
8.75889e-07
8.78105e-07
-9.78237e-07
1.08131e-06
-1.05248e-07
1.01556e-07
1.02197e-07
8.75699e-07
-1.05317e-07
1.08498e-06
-9.79543e-07
-9.74192e-07
1.07974e-06
8.70877e-07
1.07715e-06
8.68717e-07
-9.71708e-07
1.0777e-06
8.68801e-07
8.69294e-07
1.07424e-06
-1.03665e-07
1.03702e-07
1.03892e-07
8.6959e-07
-1.04581e-07
1.07758e-06
-9.79177e-07
-9.71254e-07
1.07907e-06
8.71357e-07
1.07697e-06
-9.69991e-07
8.69648e-07
-9.68953e-07
1.07639e-06
8.70089e-07
8.71607e-07
-9.71149e-07
1.07733e-06
-1.07431e-07
9.91822e-08
-9.70928e-07
9.88418e-08
8.70701e-07
-1.07431e-07
1.07822e-06
-9.74691e-07
8.76635e-07
1.07656e-06
1.07249e-06
8.72174e-07
-9.73014e-07
8.7401e-07
1.07605e-06
8.77031e-07
1.0723e-06
-9.99519e-08
9.8694e-08
9.99019e-08
8.72641e-07
-1.00021e-07
1.07575e-06
1.03036e-07
-1.03984e-07
-9.75603e-07
-1.07332e-07
1.00237e-07
-1.02106e-07
1.00779e-07
9.74896e-07
-1.03268e-07
1.00976e-07
1.08122e-06
-8.73205e-07
-1.04973e-07
-8.73931e-07
1.07742e-06
1.01386e-07
1.03917e-07
8.71839e-07
8.69717e-07
1.0125e-07
1.06389e-07
1.00798e-07
8.70514e-07
-1.08041e-06
1.00013e-07
8.73064e-07
-9.74927e-07
9.73871e-07
9.72367e-07
-9.77763e-07
8.71226e-07
1.00993e-07
-8.74475e-07
-1.06822e-07
1.08153e-06
-1.02375e-07
1.07979e-06
1.07631e-06
-1.03157e-07
-9.9376e-08
-1.04788e-07
1.07817e-06
-9.7467e-07
-9.78975e-07
1.07917e-06
-9.7566e-07
-9.73288e-07
-1.05063e-07
-9.78063e-07
-9.92463e-08
9.70688e-07
1.06224e-07
-8.71466e-07
-1.07753e-06
-1.07577e-06
-8.70308e-07
5.26086e-07
4.66504e-07
5.07311e-07
-9.88645e-07
5.02029e-07
3.35478e-09
5.42346e-07
4.9713e-07
1.11042e-06
9.63633e-07
5.79474e-07
5.54462e-07
5.24511e-07
4.81445e-07
5.13189e-07
5.33862e-07
-1.043e-06
5.21226e-07
5.21777e-07
3.67056e-09
5.25908e-07
5.28915e-07
5.16937e-07
1.08126e-06
1.03013e-06
5.51294e-07
5.33633e-07
5.38418e-07
4.982e-07
-9.72889e-07
5.31164e-07
-1.07077e-06
5.39609e-07
-1.11038e-06
5.91823e-07
3.75375e-08
-1.10013e-06
5.53621e-07
5.71013e-07
1.0666e-06
-1.13941e-06
1.10218e-06
5.87987e-07
5.79786e-07
5.12379e-07
8.98135e-09
4.93801e-07
1.38512e-08
5.07706e-07
-1.0152e-06
1.43042e-08
5.14451e-07
1.1133e-08
4.87888e-07
5.20369e-07
9.97494e-07
1.00207e-06
1.21008e-08
5.20114e-07
5.06982e-07
1.07069e-06
4.93832e-07
-1.09049e-06
4.97295e-07
1.09522e-06
5.45517e-07
1.06857e-06
-5.46689e-07
5.50192e-07
1.06671e-06
5.38318e-07
-5.70138e-09
5.38072e-07
2.2958e-09
5.25379e-07
1.07319e-06
9.75277e-07
1.35855e-08
1.06251e-06
-5.3115e-07
1.05238e-06
-4.65118e-07
9.62413e-07
5.42638e-07
9.70711e-07
1.08986e-06
5.05593e-07
1.0643e-06
-1.63764e-08
5.93173e-07
5.58031e-07
5.23567e-07
5.56995e-07
-1.05869e-06
5.62679e-07
-1.09769e-06
5.63656e-07
5.33535e-07
-1.0692e-06
5.74171e-07
5.82697e-07
-1.07681e-06
5.3936e-07
1.0829e-06
5.36608e-07
-5.55041e-07
5.36644e-07
-3.0197e-08
-5.26516e-07
-5.32839e-07
-1.72583e-08
5.32804e-07
-7.56805e-07
-7.46532e-07
1.50334e-06
1.49944e-06
-7.5482e-07
-7.44623e-07
-7.2981e-07
-7.56899e-07
1.48671e-06
-1.1652e-08
-7.30774e-07
-7.14653e-07
1.45708e-06
-7.60791e-07
7.5477e-07
-7.50784e-07
7.38652e-07
-7.78426e-07
1.52154e-06
-7.69584e-07
-7.4831e-07
1.48433e-06
-7.36016e-07
1.48015e-06
-7.07431e-07
-7.72719e-07
-7.17324e-07
1.48786e-06
-7.70536e-07
-2.09676e-08
1.46801e-06
-6.97644e-07
-7.49395e-07
-7.62563e-07
7.28796e-07
-7.14543e-07
7.17587e-07
-8.05246e-07
1.51307e-06
-8.04983e-07
-7.74523e-07
-7.22971e-07
1.49749e-06
1.49686e-06
-7.21296e-07
-7.75567e-07
-7.18737e-07
-8.0427e-07
1.52301e-06
-9.62717e-09
-7.0684e-07
-7.77193e-07
1.49366e-06
-7.77409e-07
7.30892e-07
-7.28005e-07
7.19453e-07
-8.06934e-07
1.5282e-06
-8.06218e-07
-6.93456e-07
-1.21002e-08
-6.68911e-07
1.37447e-06
1.37787e-06
-1.80338e-08
-6.7078e-07
-6.89053e-07
-6.72664e-07
-1.23711e-08
-7.09918e-07
1.39495e-06
-1.22313e-08
-6.49777e-07
-6.7992e-07
1.34193e-06
-7.09941e-07
6.75613e-07
-6.59127e-07
6.88576e-07
-2.06508e-08
-7.1091e-07
1.37429e-06
-6.94998e-07
7.48431e-07
-7.58087e-07
-7.45164e-07
-7.32429e-07
-7.58174e-07
7.33704e-07
-7.48539e-07
7.14802e-07
-6.97036e-07
7.26056e-07
-7.61563e-07
7.11018e-07
-6.75511e-07
1.51387e-06
1.52191e-08
-7.8066e-07
1.18597e-08
1.46142e-06
-7.20147e-07
7.24742e-07
7.26239e-07
-1.80137e-08
7.24457e-07
7.66471e-07
7.21388e-07
-1.4788e-06
7.20625e-07
-7.74304e-07
7.19883e-07
7.20756e-07
-7.58916e-07
7.28312e-07
9.40543e-09
-7.8817e-07
1.51247e-06
-7.54445e-07
1.45715e-06
1.45895e-06
-7.65962e-07
-7.20284e-07
-7.74606e-07
1.48252e-06
-7.09341e-07
-7.57737e-07
1.47648e-06
-7.39044e-07
-6.99252e-07
-7.78768e-07
-7.90516e-07
-7.20739e-07
-7.60707e-07
7.05442e-07
-7.46947e-07
8.19805e-07
-8.19713e-07
1.38153e-08
-1.53234e-06
-1.48569e-06
1.57806e-08
-7.64469e-07
7.31838e-07
-3.61022e-07
-2.44325e-08
-3.46384e-07
-2.55018e-08
7.33753e-07
-3.57043e-07
-3.51208e-07
-3.52476e-07
7.38134e-07
-3.59228e-07
-2.64301e-08
-3.54388e-07
7.35963e-07
-2.89137e-08
-3.52661e-07
3.75522e-07
7.06329e-07
-3.50012e-07
7.08015e-07
-3.57995e-07
3.78737e-07
-2.67964e-08
7.34275e-07
7.35629e-07
-2.42307e-08
-3.56868e-07
-3.54531e-07
-2.198e-08
-3.59603e-07
7.38942e-07
-3.57359e-07
-3.55576e-07
-2.46229e-08
-3.63344e-07
7.43543e-07
-3.58952e-07
-2.45083e-08
7.42356e-07
-3.58896e-07
3.7921e-07
7.14588e-07
-3.5817e-07
7.16714e-07
-3.59483e-07
3.79328e-07
-2.36913e-08
7.40465e-07
7.47276e-07
-3.53819e-07
-3.65368e-07
-2.80887e-08
-2.62281e-08
-3.54297e-07
-3.66831e-07
7.47356e-07
-3.52311e-07
-3.73138e-07
-2.79007e-08
7.5335e-07
-3.68849e-07
-3.58848e-07
-2.77536e-08
7.55451e-07
3.81804e-07
7.21037e-07
-3.55566e-07
7.21655e-07
-3.66079e-07
3.80779e-07
-2.8591e-08
7.50123e-07
7.41997e-07
-3.50468e-07
-3.2318e-08
-3.59211e-07
-2.88643e-08
-3.56494e-07
7.46734e-07
-3.61376e-07
-3.65837e-07
-3.60948e-07
-2.91372e-08
7.55922e-07
-3.51151e-07
-3.38088e-08
7.54687e-07
-3.69727e-07
3.94234e-07
7.14658e-07
-3.66895e-07
7.18551e-07
-3.53181e-07
3.96243e-07
-3.27365e-08
7.48957e-07
7.10288e-07
3.78e-07
-3.54535e-07
-3.55152e-07
3.81162e-07
7.12124e-07
3.84184e-07
7.08986e-07
-3.57206e-07
-7.38378e-07
3.8482e-07
7.14732e-07
-3.61174e-07
-2.54043e-08
3.55199e-07
3.80493e-07
3.5372e-07
-2.74195e-08
-3.5576e-07
7.10484e-07
7.11788e-07
-3.58019e-07
-3.56704e-07
7.17015e-07
-3.80542e-07
7.18455e-07
-3.62536e-07
2.62127e-08
7.13475e-07
-3.58526e-07
7.37602e-07
3.54679e-07
3.57207e-07
7.40361e-07
-3.59469e-07
7.17026e-07
3.58421e-07
3.82535e-07
-2.88328e-08
3.88622e-07
-3.01042e-08
-2.71873e-08
3.85425e-07
-7.18987e-07
3.88035e-07
-2.9996e-08
-3.58067e-07
7.45687e-07
-2.9199e-08
7.41039e-07
-3.6067e-07
3.8737e-07
7.42191e-07
-7.21166e-07
7.50353e-07
3.5849e-07
7.43951e-07
-3.80534e-07
7.44693e-07
3.61101e-07
2.5524e-08
2.73051e-08
3.62016e-07
7.47811e-07
1.36386e-06
8.25419e-07
-9.37524e-07
1.36649e-06
8.17498e-07
8.45651e-07
1.42062e-06
-1.26853e-06
1.39168e-06
8.38068e-07
1.21507e-07
4.25116e-07
8.17234e-07
4.28791e-07
1.23454e-07
1.3979e-06
1.37608e-06
-9.40639e-07
8.15971e-07
-9.41979e-07
1.38066e-06
8.16125e-07
8.39223e-07
-9.78992e-07
1.43041e-06
-1.26852e-06
-9.55874e-07
1.39641e-06
8.2799e-07