/*--------------------------------*- C++ -*----------------------------------*\
| =========                 |                                                 |
| \\      /  F ield         | OpenFOAM: The Open Source CFD Toolbox           |
|  \\    /   O peration     | Version:  2506                                  |
|   \\  /    A nd           | Website:  www.openfoam.com                      |
|    \\/     M anipulation  |                                                 |
\*---------------------------------------------------------------------------*/
FoamFile
{
    version     2.0;
    format      ascii;
    arch        "LSB;label=32;scalar=64";
    class       surfaceScalarField;
    location    "1900";
    object      phi;
}
// * * * * * * * * * * * * * * * * * * * * * * * * * * * * * * * * * * * * * //

dimensions      [0 3 -1 0 0 0 0];

oriented        oriented;

internalField   nonuniform List<scalar> 
85408
(
-8.62631e+11
6.22315e+11
2.39312e+11
5.81109e+11
-6.00406e+11
1.86304e+10
1.95817e+10
-5.70024e+11
7.01348e+11
-1.50331e+11
1.81969e+11
-5.44012e+11
3.60786e+11
-7.20906e+11
-1.421e+11
-1.16438e+11
-2.39227e+10
-5.21204e+11
5.60984e+11
-6.18182e+11
-3.08897e+11
4.59336e+11
-1.515e+11
3.71534e+11
-1.72963e+11
-1.98636e+11
-1.26591e+10
3.46532e+11
-1.75088e+11
-1.58931e+11
-7.71747e+10
2.85808e+11
-2.09406e+11
-3.91411e+11
8.17406e+10
1.67597e+11
-1.87637e+11
-3.21706e+11
3.25859e+11
-1.66865e+11
-2.66512e+11
2.79386e+10
5.7021e+11
-3.3147e+11
4.43668e+11
1.44774e+10
-1.8329e+11
-2.74808e+11
-7.54909e+08
4.90825e+11
-1.92683e+10
-4.71079e+11
-1.28805e+11
4.91462e+10
3.32777e+11
-2.53263e+11
-4.63782e+11
1.36033e+11
6.12112e+10
3.36418e+11
-3.56593e+11
-4.47427e+11
4.5465e+11
-1.11785e+11
-3.70518e+11
1.85301e+11
1.84291e+11
2.29041e+11
5.47015e+10
-2.83996e+11
3.07631e+10
1.0683e+11
3.12982e+11
-4.50822e+11
9.93911e+10
1.64329e+11
-2.64431e+11
-2.57706e+11
-1.13229e+11
-1.79467e+11
1.50239e+11
-3.05013e+11
2.91054e+11
-4.53751e+11
-8.6205e+10
-5.14453e+11
6.54687e+10
-5.77864e+11
-5.73714e+10
-3.8282e+11
-1.61594e+11
4.06127e+11
-3.15132e+11
-9.12247e+10
4.01279e+11
-6.36851e+10
-4.24183e+11
-1.51489e+11
3.42342e+11
-1.92164e+11
3.68543e+10
-9.2818e+10
1.82306e+10
-4.83702e+10
4.464e+11
1.21954e+11
-2.21537e+11
-4.55139e+11
9.47773e+10
-2.17388e+11
-3.71028e+11
-1.65583e+10
-2.6911e+10
-3.50425e+11
-1.21248e+11
6.92802e+10
-8.25251e+10
-5.51385e+11
5.77037e+11
-3.48611e+11
3.72106e+11
3.00586e+11
-3.37285e+11
1.39584e+11
-4.42871e+11
4.09741e+11
4.58206e+10
-4.88093e+11
3.59752e+11
-4.95024e+11
4.41988e+10
-3.92758e+11
-4.28667e+11
6.63847e+10
-4.60152e+11
-9.46523e+09
-3.76225e+11
3.50839e+11
-2.14331e+11
-2.16999e+10
-3.45696e+11
-3.48029e+11
7.44574e+10
-2.83017e+11
-1.6477e+11
3.02953e+10
1.34469e+11
3.14612e+10
-1.36241e+11
1.04767e+11
2.43413e+10
-1.728e+11
2.44338e+10
1.24009e+11
1.08225e+11
-1.518e+11
4.35498e+10
-4.55136e+10
-1.19281e+11
-1.45015e+11
1.30941e+11
-4.10218e+10
2.99561e+10
-1.61691e+11
-1.29487e+11
3.61515e+10
9.33394e+10
3.32617e+10
-1.25617e+11
9.23689e+10
1.23769e+10
3.12183e+10
-1.55204e+11
1.11575e+11
7.27886e+10
4.40553e+10
-1.16838e+11
-5.06371e+10
-7.88494e+10
-1.24347e+11
1.06972e+11
-4.22798e+10
3.62087e+10
-1.54252e+11
-1.71069e+11
1.85923e+10
2.13919e+10
1.31083e+11
2.70681e+10
1.90014e+10
-1.75556e+11
1.29496e+11
2.08225e+10
-1.9193e+11
1.66331e+10
1.54452e+11
1.33369e+11
1.36318e+10
-1.63741e+11
1.67437e+10
-3.98337e+10
-1.50996e+11
1.97654e+10
-1.53624e+11
1.40867e+11
-3.65889e+10
1.89577e+10
-1.69394e+11
-1.41266e+11
9.23314e+10
4.89157e+10
4.61119e+10
7.56107e+10
-1.21759e+11
1.2905e+10
1.1645e+11
-1.42156e+11
1.27178e+10
8.35045e+10
-1.18018e+11
3.44807e+10
-5.06398e+10
-9.06231e+10
-1.00114e+11
9.55756e+10
-4.69003e+10
3.9768e+10
-1.34112e+11
-8.73966e+10
-4.88869e+10
1.49257e+10
-4.33414e+10
-1.44408e+11
-5.01341e+10
-1.01681e+11
1.26422e+11
-4.74321e+10
-7.90618e+10
3.65956e+10
-8.4849e+10
-3.91635e+10
-1.10178e+11
4.15646e+10
-1.18743e+11
-1.24113e+11
1.11363e+11
9.84833e+10
-1.019e+11
4.62853e+10
-1.40176e+11
1.25132e+11
-2.7863e+10
-1.37279e+11
1.21778e+11
-1.44466e+11
-1.88193e+10
-9.77092e+09
-1.64953e+11
1.18292e+11
-1.28416e+11
-1.24345e+11
-4.47734e+10
2.46944e+10
-4.62792e+10
3.69267e+10
3.90435e+10
-4.25147e+10
1.33885e+11
-4.282e+10
2.53785e+10
1.86928e+10
-1.64368e+11
2.13285e+10
-1.46335e+11
1.17154e+10
-4.21939e+10
-1.63434e+11
1.22268e+11
-1.51444e+11
-9.32547e+09
-1.35075e+11
5.01534e+10
-1.71324e+11
-1.14666e+11
-2.89797e+10
-3.45859e+10
-1.07234e+11
-1.51146e+11
-2.87621e+10
7.10283e+10
-4.22741e+10
6.8322e+10
-1.84425e+10
-4.98798e+10
1.64882e+08
-1.03841e+10
5.86865e+10
-4.84594e+10
-4.15279e+10
-2.38214e+10
6.53056e+10
-7.04291e+10
4.16557e+10
4.39282e+10
-4.60313e+10
-6.57424e+10
6.58713e+10
-2.16474e+10
-8.22142e+09
6.80573e+10
-5.98308e+10
7.09843e+10
-6.8174e+10
-2.81796e+09
2.4619e+09
4.46322e+10
-5.17423e+10
4.65077e+09
-6.1309e+10
6.53919e+10
-4.09112e+09
-7.15337e+10
6.3308e+10
6.35407e+10
-6.40908e+10
-6.76721e+10
6.96666e+10
-1.67166e+09
1.21392e+10
9.15835e+08
4.50626e+10
-5.81282e+10
3.7485e+10
3.62618e+09
-5.99853e+10
1.88518e+10
5.73659e+09
2.88352e+10
-7.51191e+10
4.054e+10
-5.95045e+10
1.67546e+09
3.85786e+10
1.92266e+10
-4.49744e+10
5.53418e+10
1.76209e+09
6.06598e+10
-6.81531e+10
-4.21737e+10
3.80071e+10
2.42179e+10
-1.82312e+10
-4.23806e+10
6.05854e+10
6.18914e+10
-5.26755e+10
-9.22206e+09
2.54819e+08
-4.56503e+10
4.81201e+10
-2.73203e+09
-4.75402e+10
6.19092e+10
-1.43875e+10
-6.32342e+10
4.49925e+10
4.87901e+10
-5.01414e+10
-6.05387e+10
5.79857e+10
-1.14982e+10
4.923e+10
-6.76606e+10
1.26823e+09
-5.9263e+10
4.75986e+10
-6.35915e+10
3.97582e+10
1.40648e+10
-6.65381e+10
5.2473e+10
6.49883e+10
4.91708e+10
-6.49308e+10
4.46058e+10
6.32319e+10
4.42407e+10
5.18405e+10
-5.14471e+10
-5.6445e+10
5.52952e+10
5.47537e+10
5.80671e+10
-6.81926e+10
-6.05691e+10
5.44673e+10
-5.31644e+10
-1.31832e+10
8.66656e+07
3.77886e+07
-1.91813e+09
-5.85685e+10
5.28743e+10
5.02866e+10
-5.61283e+10
5.34402e+10
-6.13419e+10
5.87104e+10
6.35677e+10
-6.3776e+10
-4.41056e+10
-4.71252e+10
4.55783e+10
1.24007e+09
-3.11465e+09
5.21527e+10
-1.58689e+10
2.44265e+09
-4.96624e+10
-7.50913e+08
-4.78092e+10
2.35749e+09
-1.32433e+09
-7.1557e+09
4.98496e+10
1.18447e+10
5.09536e+10
-4.99391e+10
-4.6521e+10
5.27819e+10
4.92818e+09
5.75247e+11
-8.77884e+11
4.4555e+11
-1.44697e+11
-1.12714e+12
8.88514e+10
1.36734e+12
-3.30707e+11
3.66115e+11
-2.84782e+11
2.09178e+12
-2.17331e+12
-6.79318e+10
3.74316e+11
2.99677e+11
-6.07964e+11
6.27991e+11
2.15558e+11
-2.69458e+11
-1.8221e+12
1.3228e+12
1.18563e+12
-1.03818e+12
-2.70373e+11
-2.43714e+10
-1.20652e+12
1.60706e+12
-3.77518e+11
-2.42949e+12
2.53442e+12
5.16934e+11
7.72141e+11
-2.29439e+12
2.22416e+12
1.7031e+12
-1.64451e+12
3.01683e+11
1.93391e+12
-2.25403e+12
2.95678e+11
-2.861e+12
2.36512e+12
1.52788e+12
-2.079e+12
-3.59479e+11
6.88209e+11
1.36002e+12
-1.68889e+12
-1.22345e+12
7.48927e+11
1.04486e+12
6.0318e+11
3.27442e+11
-4.39569e+11
1.04906e+12
6.18352e+11
-1.33525e+12
7.43496e+11
-1.74957e+12
6.4657e+11
-1.49338e+12
1.01343e+12
4.35546e+11
-1.13615e+12
1.4007e+11
-4.33125e+11
7.67914e+11
-4.7521e+11
-1.01338e+12
1.13183e+12
6.52587e+10
4.15191e+11
1.51957e+12
-1.62226e+12
5.53886e+11
-2.75261e+11
-1.15582e+11
7.1516e+11
-4.24472e+11
-1.50397e+11
-1.55488e+12
1.25675e+12
8.48639e+11
-7.1902e+11
3.43129e+10
7.6125e+11
-7.07663e+11
2.6405e+11
1.66053e+12
-2.20858e+12
-4.71408e+10
1.06435e+12
-6.42971e+11
-6.99274e+10
1.4063e+12
-1.39965e+12
6.22572e+10
-8.52039e+11
-4.12642e+11
1.29821e+12
-8.58426e+11
-1.22992e+11
-3.5976e+11
-1.02859e+12
-2.05618e+12
1.61014e+12
1.82181e+12
-2.06059e+12
-1.63561e+12
-2.41929e+12
1.76232e+12
2.20291e+12
-2.42373e+12
1.8832e+12
-2.38024e+11
-5.19811e+11
-4.95037e+11
-3.57672e+11
2.04197e+12
-2.48742e+12
-1.6778e+12
1.35194e+12
-1.88235e+12
5.46141e+11
8.5069e+10
-1.44502e+12
1.17691e+12
1.98384e+12
1.13101e+12
-1.59548e+12
2.70705e+11
-2.75475e+11
-1.67286e+12
-2.11752e+11
4.00023e+11
1.30842e+12
-3.83474e+11
2.15926e+12
-5.11534e+11
-1.09291e+12
-1.69312e+12
1.95702e+12
1.77488e+12
-1.62309e+12
1.33874e+11
-1.42044e+11
-1.17518e+11
-1.20098e+11
8.72253e+10
-1.22309e+11
-1.51312e+11
1.57997e+11
-1.23472e+11
1.20294e+11
1.12685e+11
-1.43393e+11
-8.95989e+10
2.63931e+11
2.8444e+10
-1.58549e+11
-1.03869e+10
2.69597e+11
-1.20821e+11
1.07916e+11
6.42781e+10
-1.11611e+11
-1.28309e+11
-1.13474e+11
-1.20084e+11
4.16782e+10
-1.32284e+11
-1.0663e+11
7.51284e+10
1.87304e+11
-9.93536e+10
-1.6277e+11
7.45194e+10
2.42253e+11
-4.17528e+10
-1.36363e+11
-4.06413e+10
2.42424e+11
-9.69223e+10
6.94705e+10
1.67543e+11
-1.70899e+11
-1.18365e+11
-1.04648e+11
-1.57071e+11
1.19481e+11
-1.94624e+11
2.05446e+11
-1.28897e+11
1.39728e+11
-2.13687e+11
1.21039e+11
-4.71426e+10
2.76157e+11
7.59234e+10
-1.84593e+11
3.73531e+10
3.1318e+11
-9.76002e+10
1.55887e+11
8.38038e+10
1.5849e+11
-2.27395e+11
-1.49926e+10
-4.55816e+10
1.77305e+11
-1.92071e+11
6.03632e+10
-2.14233e+11
1.69056e+11
3.52666e+10
9.81583e+09
1.96732e+11
-2.37541e+11
-2.62442e+10
6.68984e+10
2.95261e+11
3.86727e+10
-2.50227e+11
6.82907e+10
1.8134e+11
2.12617e+11
2.27184e+10
6.66538e+10
-1.407e+10
2.61265e+11
-1.59982e+11
-1.55524e+11
2.67597e+11
4.60955e+10
2.59337e+11
6.07773e+10
-2.07621e+11
-8.90384e+10
2.82887e+11
6.3846e+09
-2.00364e+11
-9.61064e+10
-1.65249e+11
2.47257e+11
-1.43722e+11
-8.72841e+10
-1.67045e+11
2.82775e+10
-2.16912e+10
1.73159e+11
1.03472e+10
-2.62814e+11
4.67722e+09
1.19975e+11
1.25772e+10
8.28931e+10
1.42633e+11
1.59117e+11
1.11442e+11
7.73269e+09
-1.23327e+11
2.89045e+11
-1.19591e+11
2.56859e+11
-3.76982e+10
-4.88261e+10
2.3247e+11
-8.76727e+10
2.79272e+11
-2.2672e+10
-1.8265e+11
1.38119e+11
-7.89333e+10
1.02416e+11
-2.3493e+11
2.85264e+11
1.30762e+11
-6.5549e+10
1.31062e+11
1.7797e+11
6.47928e+10
-2.49912e+11
9.74636e+10
-1.45504e+11
9.16622e+10
7.42059e+10
-1.50521e+11
1.01631e+11
-6.39324e+10
-2.63425e+11
1.19297e+11
1.19624e+11
-6.42784e+10
-2.55294e+11
-2.4394e+11
-6.37457e+10
1.03196e+11
1.89789e+11
2.32896e+09
-3.56278e+11
1.64189e+11
1.41805e+11
9.68874e+10
-3.02525e+11
5.86788e+10
1.4988e+11
1.36824e+11
-3.53543e+10
-5.01584e+10
1.31396e+11
-2.85165e+11
1.68558e+11
-3.8765e+10
-3.23166e+11
-2.86903e+11
1.53843e+11
-4.10329e+10
1.63242e+11
1.93156e+11
1.70369e+10
-3.73352e+11
1.44295e+11
1.73508e+11
-3.67916e+11
1.26683e+11
1.43917e+11
1.92865e+11
-1.62921e+10
-6.06465e+10
-2.48608e+11
1.16641e+11
1.28989e+11
-2.53494e+11
-4.077e+10
-2.24209e+11
-3.98909e+10
9.16169e+10
1.60909e+11
-3.13562e+11
2.14463e+10
1.31206e+11
1.197e+11
9.79062e+10
-2.78225e+11
7.53058e+10
1.26812e+11
1.31998e+11
-2.20967e+10
5.14514e+10
1.60782e+11
-4.50201e+11
2.37982e+11
2.52348e+11
1.39826e+11
8.90242e+10
-4.81183e+11
-4.22051e+11
1.47107e+11
7.515e+10
1.99795e+11
1.12205e+11
1.30273e+11
-5.55528e+11
3.13075e+11
2.03074e+11
3.49307e+11
-5.00932e+11
3.20195e+11
1.35228e+11
1.95248e+11
2.6627e+11
9.34019e+10
1.00334e+11
1.44984e+11
-3.09526e+11
-2.97877e+11
1.38978e+11
9.52168e+10
1.91407e+11
2.3811e+11
-4.27175e+11
8.46562e+09
1.64711e+11
2.59028e+11
-4.32208e+11
1.49011e+11
-1.88574e+11
1.39917e+11
-1.8422e+11
1.6571e+11
-3.45829e+11
1.72893e+11
7.63102e+10
1.66725e+11
1.91167e+11
-1.24813e+11
1.03999e+11
-1.22297e+11
6.83052e+10
-3.93625e+10
2.55669e+11
3.20247e+11
-5.7609e+10
1.37831e+11
-1.88899e+11
1.43796e+11
1.40339e+11
1.8452e+11
2.14375e+11
2.20858e+11
1.78006e+11
-2.04561e+11
1.6616e+11
1.85484e+11
-3.37558e+11
-6.87798e+09
1.55511e+11
1.98523e+10
-3.75939e+11
1.64486e+11
-3.65113e+10
-1.79154e+11
3.17499e+10
3.3752e+11
3.16959e+10
-1.29563e+11
-1.99333e+10
-1.52746e+11
-1.61988e+11
-1.67408e+11
-1.53719e+11
1.64209e+10
-2.75451e+10
3.49618e+10
6.60341e+10
-7.48137e+10
3.16286e+10
-1.90023e+11
2.59972e+11
-1.01788e+11
-7.95202e+10
3.17084e+11
1.59185e+10
-2.53786e+11
8.24469e+10
-6.3229e+10
4.41174e+10
-6.54194e+10
6.95422e+10
1.78126e+10
-1.16265e+11
3.04342e+11
-2.03528e+11
8.725e+10
1.27269e+10
3.12523e+11
-2.11065e+11
-2.31362e+10
2.86809e+11
-5.26134e+10
-1.12649e+11
-5.1373e+10
1.12539e+11
5.05856e+10
-1.8089e+11
-1.38276e+10
1.99553e+11
-5.81837e+09
5.62763e+11
-6.69892e+10
-4.49424e+11
-4.62266e+10
1.45591e+11
-3.56733e+11
2.78736e+08
-4.07059e+11
4.40246e+11
2.38534e+11
-3.24295e+10
-3.49576e+11
2.03977e+11
-8.94067e+09
-2.55102e+09
-1.92806e+11
3.31967e+10
-6.02544e+10
-2.05954e+11
2.31883e+11
7.28257e+09
-2.05413e+10
-5.53071e+10
6.67018e+10
-2.85527e+11
-3.00739e+10
2.79241e+09
3.13108e+11
-1.77768e+10
2.53635e+11
-3.18137e+10
2.04079e+11
-1.89021e+11
-1.54627e+10
-1.63656e+10
1.94595e+11
-1.34819e+11
1.34135e+11
8.62196e+10
-8.69502e+10
7.0718e+10
5.04394e+11
-4.86614e+11
-8.79297e+10
-1.1467e+11
-4.87783e+11
5.07077e+10
5.51381e+11
2.4694e+11
1.28011e+11
-1.33437e+11
-2.41218e+11
3.87276e+10
-9.47884e+09
-1.62549e+11
3.93723e+11
-2.8352e+11
1.46439e+11
9.13448e+10
4.25843e+11
-2.34659e+11
1.37937e+11
-9.34835e+10
-7.89263e+10
8.58857e+09
3.87939e+11
1.0421e+11
-5.4815e+09
-1.63286e+11
2.96977e+11
1.09107e+11
-3.39165e+11
-6.57477e+10
3.36448e+10
-3.80464e+11
1.12448e+11
2.66505e+11
1.81084e+10
-1.01683e+11
3.8847e+11
5.67209e+10
5.72635e+10
1.11468e+11
-6.75257e+10
-8.07114e+10
2.89055e+11
-2.23375e+11
-4.02979e+10
3.15095e+11
-2.6542e+11
7.28596e+10
9.6605e+10
1.51851e+11
2.32636e+11
-1.76857e+11
3.02634e+11
3.61181e+11
1.81654e+10
8.0774e+09
7.44836e+10
5.4105e+10
3.98642e+10
1.25445e+11
-5.26838e+11
7.62419e+09
3.10871e+10
-8.60698e+10
4.16909e+11
3.00462e+10
3.76778e+11
-1.33122e+11
2.32131e+10
3.25217e+11
-4.15381e+11
3.93249e+11
1.29592e+11
-7.1785e+10
-8.30967e+10
3.11297e+11
3.42337e+11
-4.87422e+10
-4.98637e+10
1.70518e+11
2.49563e+11
-1.31957e+11
2.89842e+11
-2.81313e+11
1.23436e+11
2.79882e+11
-1.00384e+11
-3.64013e+11
1.84516e+11
-3.32308e+11
-8.5727e+10
2.63214e+11
1.54841e+11
1.9209e+11
-1.0583e+11
3.22993e+11
-4.09179e+11
4.62295e+10
1.7408e+11
-3.5215e+11
1.66211e+11
1.59912e+11
7.16897e+10
2.94523e+11
-9.44075e+10
-5.93352e+10
2.68833e+11
-4.5802e+11
2.48447e+11
2.57949e+11
-5.58846e+11
3.00838e+11
-5.17006e+11
2.37437e+11
2.79516e+11
2.99226e+11
3.32717e+11
-6.31971e+11
2.71145e+11
2.80201e+11
-6.10716e+11
2.40684e+11
2.88374e+11
2.76321e+11
3.03075e+11
-4.21355e+10
-3.55342e+11
2.27494e+11
1.69928e+11
2.14276e+11
-4.49681e+11
2.35299e+11
-3.98903e+11
2.00759e+11
1.98066e+11
2.20502e+11
-4.68267e+11
2.47658e+11
1.90442e+11
2.09589e+11
-4.42251e+11
1.93631e+11
2.1104e+11
2.05272e+11
2.24741e+11
-7.55699e+10
2.10245e+11
3.55957e+11
-4.90646e+11
3.96257e+11
2.51242e+11
-6.47529e+11
-5.30881e+11
2.19006e+11
3.11856e+11
2.13847e+11
3.83533e+11
-5.9736e+11
1.72508e+11
3.21822e+11
-5.69916e+11
3.41517e+11
2.27222e+11
1.89365e+11
3.46305e+11
1.99079e+11
1.38657e+11
-4.38186e+11
-4.03233e+11
1.26445e+11
1.90985e+11
1.28033e+11
2.39767e+11
-4.73712e+11
5.91047e+10
2.41818e+11
3.36687e+11
-6.37653e+11
2.81027e+11
-2.35162e+11
1.53182e+11
-2.16647e+11
3.25464e+11
-5.0158e+11
2.36814e+11
1.9016e+11
2.17304e+11
2.69682e+11
3.04814e+11
-2.30028e+11
2.17823e+11
2.49584e+11
-2.3371e+11
1.74628e+11
1.85457e+11
-4.96039e+10
3.92929e+11
5.23139e+11
-4.92886e+10
2.08494e+11
2.43798e+11
-2.0025e+11
1.37191e+11
2.53996e+11
1.36891e+11
3.13116e+11
3.53856e+11
2.34016e+11
-2.84032e+11
2.10495e+11
2.92441e+11
-4.25919e+11
-5.16982e+10
2.77344e+11
-5.22192e+10
-5.28859e+11
1.93064e+11
-4.35332e+10
-2.57831e+11
5.38787e+11
-2.31907e+11
-2.24427e+11
-2.61426e+11
-2.89228e+11
-2.49559e+11
1.51268e+11
9.98202e+10
-2.6995e+10
1.56372e+11
1.33882e+11
-2.80909e+11
1.36521e+11
1.03307e+11
1.49568e+11
1.90495e+11
2.88261e+11
1.57545e+11
1.16305e+11
1.44923e+11
2.90819e+11
1.26228e+11
1.62463e+11
-8.63699e+10
1.51333e+11
-1.48588e+11
1.68063e+11
1.81254e+11
-2.07741e+11
-8.18055e+10
1.32335e+11
1.57161e+11
1.95094e+11
-1.64639e+11
2.17177e+11
3.543e+11
3.28172e+10
2.56327e+10
1.79986e+11
3.58087e+11
-1.30241e+11
1.75982e+11
1.10613e+11
-2.47757e+11
9.63315e+10
-1.57718e+10
-1.96081e+11
8.6185e+10
1.25667e+11
-1.98722e+11
6.7153e+10
9.15871e+10
1.20894e+11
-2.09749e+11
1.10329e+11
2.23831e+11
1.07103e+11
-2.20337e+11
8.9406e+10
1.18603e+11
2.05892e+11
9.65802e+10
2.51894e+11
1.93121e+11
-1.52879e+11
1.93798e+11
2.70956e+11
-2.78808e+11
1.61397e+11
1.92591e+11
1.91111e+11
3.22705e+11
4.43498e+11
1.54739e+11
9.2448e+10
1.98226e+11
4.39265e+11
2.52902e+11
8.17583e+10
3.28615e+11
-2.34254e+11
2.33673e+11
1.3709e+11
3.63258e+11
1.40451e+11
-2.06532e+11
4.10533e+11
8.85052e+10
-7.03049e+10
-1.66481e+11
3.18572e+11
-1.78296e+11
-9.56215e+10
8.94211e+10
7.57488e+10
1.66519e+11
1.91733e+11
5.41368e+10
-2.73275e+11
4.2557e+10
1.48911e+11
1.53666e+10
9.3538e+10
1.24634e+11
1.42887e+11
2.51381e+11
2.04373e+11
1.36914e+11
1.29831e+11
6.79966e+10
-1.42141e+11
2.59308e+11
3.65292e+11
-1.06818e+11
3.89144e+11
-1.12867e+11
3.0608e+11
-2.8785e+11
1.62179e+11
1.66881e+11
-2.58289e+11
3.07633e+11
1.05095e+11
-5.39815e+10
1.50341e+11
2.30906e+11
2.12384e+11
-2.78519e+11
1.24989e+11
-1.62508e+11
4.72693e+10
9.11472e+10
-1.6325e+11
1.58808e+11
3.75964e+09
4.68635e+09
-2.87798e+10
2.00719e+10
7.07604e+09
3.2873e+10
-5.97953e+10
5.25898e+10
4.15845e+09
-5.91359e+10
-7.95833e+10
7.47748e+09
7.50959e+10
-6.32189e+10
2.57368e+10
4.16523e+10
2.77796e+10
-7.08572e+10
-7.01545e+10
1.01524e+10
-7.46587e+09
1.55747e+10
1.00044e+11
-1.08469e+11
1.13632e+11
1.41828e+11
-2.55244e+11
1.40688e+11
4.45903e+10
-1.85213e+11
-2.21359e+11
2.85102e+10
1.92949e+11
-2.44625e+11
4.40387e+10
1.93203e+11
7.41028e+10
-2.05058e+11
-2.14791e+11
3.758e+10
-5.18836e+09
1.12065e+11
-9.11111e+10
-5.38449e+09
1.40213e+11
-1.34901e+11
1.27651e+11
-9.2893e+10
-1.15652e+11
1.59793e+11
-1.29721e+11
-1.02085e+09
1.25687e+11
-2.36337e+10
-1.11503e+11
-1.04017e+11
7.60624e+09
-1.51442e+11
1.94337e+11
-5.92117e+10
-2.22374e+11
2.81796e+11
2.24325e+11
-1.38036e+11
-1.19928e+11
2.48035e+11
-1.61658e+11
-1.07621e+11
2.77185e+11
-8.82276e+10
-1.3257e+11
-1.36098e+11
2.08715e+10
-1.19335e+11
1.05001e+11
8.74743e+10
-9.68472e+10
1.26707e+10
-1.3264e+11
-5.08645e+09
1.44184e+11
1.90275e+10
-2.37214e+11
-1.09744e+10
2.2928e+11
6.63165e+09
1.59814e+11
-1.46355e+11
1.03721e+11
1.19243e+10
1.66274e+11
-1.72347e+10
3.0369e+10
-1.3419e+11
-2.048e+11
-3.85193e+09
1.62309e+11
2.82305e+10
-1.46057e+11
-1.06861e+10
-9.03907e+09
-7.73503e+10
-8.32875e+09
-1.07743e+11
-1.75557e+11
2.69652e+09
-1.2116e+11
-1.05157e+10
1.2217e+11
-1.01892e+11
-1.25739e+11
-4.95446e+10
-1.83658e+11
5.00177e+10
-1.34147e+11
1.51507e+11
5.14961e+08
8.53731e+09
1.73577e+11
-1.23081e+11
1.12513e+09
2.56199e+10
-1.87484e+11
1.68556e+11
1.07985e+11
1.88415e+10
1.05694e+10
1.76915e+11
-1.17361e+11
1.17445e+11
6.17899e+10
5.55367e+10
-1.33294e+11
1.25905e+11
1.11917e+11
-1.12936e+11
6.15673e+10
-5.39871e+10
-1.13047e+11
1.02519e+11
6.45446e+10
-1.73168e+11
-4.66564e+10
1.02404e+11
-5.9654e+10
-1.63437e+11
6.27714e+10
-1.11185e+11
-1.64615e+11
5.25031e+10
1.50645e+11
5.08309e+10
1.76731e+11
-1.98755e+11
1.58769e+11
5.72004e+10
-1.70896e+11
-5.06651e+10
6.55598e+10
1.62779e+11
-1.77671e+11
-2.06137e+11
-1.07703e+11
1.49192e+11
-1.17301e+11
-2.21278e+11
6.29068e+10
-1.79811e+11
-1.11256e+11
1.06992e+11
6.953e+10
6.2707e+10
1.32262e+11
-1.36268e+11
1.14008e+11
-1.2754e+11
8.45687e+10
-6.83315e+10
1.06775e+11
-1.20772e+11
8.23334e+10
-1.73537e+11
-4.07251e+10
1.02957e+11
-4.4966e+10
-1.90849e+11
8.17763e+10
-1.21812e+11
-1.21548e+11
-5.47217e+10
1.11149e+11
6.50568e+10
7.84865e+10
-6.56514e+10
1.38589e+11
-1.51473e+11
1.10157e+11
-6.72189e+10
-1.22761e+11
7.98041e+10
-6.98183e+10
1.07846e+11
-1.14578e+11
7.65003e+10
-1.8834e+11
-4.43877e+10
1.11055e+11
-4.94754e+10
-6.03978e+10
-1.88677e+11
7.44171e+10
-1.28011e+11
-7.71717e+10
-1.81052e+11
1.2498e+11
1.01892e+11
-1.68294e+11
-4.66093e+10
-1.65631e+11
-5.34635e+10
1.06099e+11
1.46947e+11
-2.0393e+11
-8.17645e+10
1.38755e+11
6.23487e+10
4.99995e+10
-1.89514e+11
5.30575e+10
6.15578e+10
1.35396e+11
-5.10048e+10
-8.29673e+10
-5.28315e+10
-8.55385e+10
1.93643e+11
-8.29869e+10
-5.79135e+10
-5.16802e+10
-1.44567e+11
-1.27896e+11
-1.34484e+11
-1.33646e+11
-7.44831e+10
5.43787e+10
-1.70049e+11
6.90348e+10
-1.725e+11
6.43281e+10
7.26925e+10
-2.2011e+11
4.3608e+10
-1.89867e+11
7.90739e+10
1.0045e+11
-1.14294e+11
6.8248e+10
-1.23042e+11
1.10747e+11
-1.81414e+11
-1.14752e+11
5.12046e+10
-1.3429e+11
-1.41714e+11
-1.6394e+11
2.01366e+11
-1.52081e+11
5.66543e+10
-6.84471e+10
-7.35563e+10
5.84343e+10
-1.56841e+11
5.79822e+10
-2.06074e+11
2.58589e+11
-1.10286e+11
2.34763e+11
1.06949e+11
-2.3632e+11
-1.05253e+11
-1.43384e+11
7.75437e+10
-1.7499e+11
2.40863e+11
-1.63787e+11
7.8576e+10
2.1335e+11
-1.28192e+11
-1.26297e+11
2.90845e+11
-1.06535e+11
3.23399e+11
-2.14871e+11
-8.67876e+10
2.13854e+11
9.32112e+10
1.59358e+11
2.24526e+11
-2.86559e+11
-9.73444e+10
2.29784e+11
-3.74459e+11
2.27026e+11
-8.21773e+10
-1.34484e+11
2.31626e+11
-2.97463e+11
2.00419e+11
-2.53924e+11
1.92036e+11
1.33493e+11
-7.1455e+10
-1.27267e+11
3.61263e+11
-7.45058e+10
4.23342e+11
-3.20758e+11
-9.35736e+10
2.00965e+11
1.95309e+11
8.84389e+10
-1.5494e+11
-1.534e+11
2.1992e+11
2.15112e+11
-1.60102e+11
-2.09319e+11
1.54343e+11
-1.76363e+11
-1.48888e+11
2.0655e+11
1.1883e+11
-1.35374e+11
-1.44923e+11
1.85018e+11
9.5378e+10
-5.95942e+10
2.96718e+11
-1.48724e+11
3.39175e+11
-1.83627e+11
-2.9101e+10
1.90442e+11
1.33718e+11
7.53505e+10
-1.41362e+11
1.86213e+11
-1.20253e+11
1.76822e+11
-1.85954e+11
8.7074e+10
-7.79204e+10
-1.2259e+11
-1.3753e+11
1.81858e+11
7.83262e+10
-1.32835e+11
1.69879e+11
6.0301e+10
-9.73481e+10
-7.72637e+10
2.36298e+11
-8.37148e+10
2.66244e+11
-1.66697e+11
-6.05356e+10
1.63989e+11
8.31232e+10
3.18524e+11
-1.11118e+11
-1.00391e+11
-1.26642e+11
-8.2815e+10
2.86993e+11
-8.421e+10
2.72053e+11
-1.09341e+11
-1.11283e+11
-9.94454e+10
2.92679e+11
-8.19295e+10
2.08458e+11
1.98493e+11
-8.83783e+10
1.75019e+11
1.99142e+11
-1.1195e+11
2.89903e+11
3.58191e+11
-2.44708e+11
-2.16927e+11
3.09541e+11
8.49669e+10
3.91054e+11
-2.44337e+11
-2.21313e+11
3.24399e+11
-1.85842e+11
1.3623e+11
1.3365e+11
1.20293e+11
1.24174e+11
-2.11797e+11
3.2944e+11
1.4176e+11
-5.48341e+10
2.00059e+11
-5.75294e+10
1.88188e+11
1.84965e+11
-7.82403e+10
-2.64163e+11
-5.1826e+10
1.78435e+11
-1.31647e+11
8.30703e+10
1.90281e+11
1.00707e+11
-1.18975e+11
-6.21614e+10
1.14609e+11
-2.94168e+11
9.74191e+10
1.12286e+11
1.19003e+11
5.60957e+10
1.74871e+11
1.67381e+11
-2.01499e+11
-1.88936e+11
1.84054e+11
1.07402e+11
-5.27336e+11
1.74285e+11
-2.02481e+11
7.89973e+10
-3.28798e+11
-2.00373e+11
-2.17535e+11
-3.71289e+11
1.0762e+11
6.85378e+11
-6.62312e+11
2.02473e+11
-2.25587e+11
9.74117e+10
-4.09635e+11
-2.15129e+11
-3.24521e+11
1.1486e+11
1.60881e+11
-4.272e+11
-1.78416e+11
2.67729e+10
-2.04595e+11
-3.43804e+10
-6.35481e+10
-1.6545e+11
-1.5043e+11
-3.60024e+10
-6.88268e+10
3.64244e+11
1.79383e+10
-1.96377e+11
-1.85709e+11
1.88947e+11
-1.85228e+11
-1.82091e+11
-1.47942e+11
1.8278e+11
-3.75119e+09
-1.15555e+11
-2.31601e+11
-1.86815e+11
4.50613e+10
-3.42319e+10
-1.65917e+11
-8.49709e+10
-1.71148e+11
-1.57565e+10
-1.36199e+11
4.40917e+11
-2.25444e+11
6.98121e+10
-2.85239e+11
1.77756e+11
-2.14018e+11
-1.95308e+11
-2.24372e+11
1.92875e+11
3.40685e+10
-2.02613e+11
-8.4334e+11
8.67521e+11
2.55025e+11
-2.79214e+11
9.30031e+10
5.65262e+11
-4.2083e+11
-2.37402e+11
-3.0123e+11
6.70849e+11
1.81955e+11
-5.51527e+11
1.1588e+12
3.4249e+11
-1.09185e+12
-4.09331e+11
1.41342e+11
-6.79827e+11
-3.04845e+11
-4.9046e+11
7.24828e+11
1.62119e+11
3.1688e+11
-6.29549e+11
-2.80761e+11
1.65402e+11
-2.13402e+11
-2.27306e+11
1.5191e+11
-2.9589e+11
1.177e+11
-5.23075e+11
-2.5698e+11
3.65428e+11
1.86358e+11
-3.14374e+11
-2.3737e+11
5.0599e+10
-5.10653e+11
1.79295e+11
-6.03914e+11
7.50388e+10
-2.20263e+11
-4.11171e+11
-2.34997e+11
4.52821e+11
-2.48511e+11
-1.89559e+11
-1.55956e+11
-1.93547e+10
-2.60962e+11
-2.48498e+11
1.92794e+11
2.00575e+11
-1.72385e+11
-1.61366e+11
-5.67599e+11
1.65398e+11
1.0628e+11
1.35606e+11
2.08851e+11
6.06208e+10
1.90282e+11
3.62273e+11
1.66535e+11
1.42044e+11
-2.49075e+11
-4.60954e+11
1.42438e+11
-5.2463e+11
-2.60819e+11
1.62144e+11
-2.82375e+11
2.78221e+11
-3.37117e+11
2.04418e+11
-2.62612e+11
-1.99864e+11
-1.21975e+11
-4.79183e+11
1.49731e+09
-3.88199e+10
-3.59734e+11
-1.94107e+11
-1.46012e+11
-1.51009e+11
-6.03811e+10
-1.22322e+11
-1.81256e+11
-2.31364e+11
-1.3273e+11
4.51821e+11
-1.48894e+11
-2.33115e+11
2.23197e+11
-1.90876e+11
-1.78209e+11
-1.89311e+11
2.95043e+11
-1.25639e+11
-6.7082e+10
-1.59956e+11
-2.31042e+11
-3.01158e+11
-2.57704e+11
-3.5373e+11
-2.7826e+11
7.33152e+11
-3.41654e+11
-3.91415e+11
5.82955e+11
-3.51086e+11
-2.98956e+11
-3.28919e+11
6.82649e+11
-3.00579e+11
-8.34121e+10
-2.99625e+11
-2.17501e+11
-4.30033e+11
-4.23075e+11
7.19389e+11
-5.16919e+11
5.66498e+11
-2.36274e+11
-4.13641e+11
-2.2092e+11
6.43995e+11
-1.16118e+11
7.10509e+11
-4.12408e+11
-3.72456e+11
9.27365e+11
-5.54863e+11
-6.23695e+11
8.78754e+11
1.08682e+12
-7.44325e+11
9.50108e+11
-4.28805e+11
-6.37394e+11
-3.51231e+11
9.28907e+11
9.74926e+11
-2.55992e+11
3.60925e+11
-2.27328e+11
-2.84501e+11
4.02385e+11
-2.50667e+11
4.51584e+11
-2.90508e+11
-3.09978e+11
8.42404e+10
7.44152e+11
-3.94213e+11
-4.34147e+11
-1.44516e+11
-5.56436e+11
4.44904e+11
-5.54675e+11
-1.67244e+11
-3.04985e+11
-2.70338e+11
-2.37229e+11
7.57399e+11
-3.54883e+11
-6.30394e+11
-2.85522e+11
1.58403e+11
-2.29761e+11
-6.52598e+10
2.72921e+11
3.91558e+11
-7.0256e+10
-3.09089e+11
-6.08724e+11
4.64316e+11
5.62041e+11
-3.19127e+11
8.52303e+11
2.99339e+11
7.88264e+11
-3.82093e+11
-8.41973e+10
-9.03883e+10
-5.19391e+11
7.34541e+11
-6.50693e+10
2.71351e+11
4.97432e+11
-7.1555e+11
-7.24285e+11
2.45583e+11
2.81617e+11
-7.79048e+11
-3.16923e+11
-2.71568e+11
3.30748e+11
-3.03598e+11
-1.94164e+11
2.66638e+11
2.37242e+11
-2.16749e+11
-3.19186e+11
2.98632e+11
4.01082e+11
-3.75038e+11
-4.17441e+11
6.87855e+10
-6.84645e+11
-5.27214e+11
2.92357e+11
6.56673e+10
-3.49228e+11
-2.2433e+11
-8.2879e+10
-2.89295e+11
1.90962e+11
-2.75876e+11
-5.15405e+09
1.30059e+11
1.41069e+11
-2.9731e+11
1.21788e+10
1.44212e+11
2.19341e+11
-3.72668e+11
-7.97128e+10
1.30286e+11
-3.91334e+11
-3.05844e+11
1.60283e+11
1.41441e+11
-3.13395e+11
-2.32942e+10
-8.9461e+10
1.78454e+11
-3.14452e+11
2.25394e+11
-3.03789e+11
1.51827e+11
2.92478e+08
1.51818e+11
1.37974e+11
-2.82533e+11
-2.56902e+10
1.7041e+11
2.40797e+11
2.50042e+11
-4.21115e+11
-6.97364e+10
1.55185e+11
-4.03807e+11
1.59193e+11
-3.39351e+11
1.90795e+11
1.60295e+11
-3.23315e+11
-4.10488e+10
-4.50363e+11
4.53608e+11
-5.58129e+11
-5.55359e+11
3.1636e+11
-1.73396e+11
4.64108e+11
4.12773e+11
-6.28992e+11
-2.47953e+11
5.13861e+11
-8.145e+11
-4.43627e+11
1.19585e+11
-1.20733e+12
-7.97231e+11
3.61462e+11
1.32826e+11
-8.26304e+11
-2.00295e+11
-5.27461e+11
1.05943e+11
2.52524e+11
1.28579e+11
-5.97903e+11
8.39811e+10
-8.9314e+11
1.90652e+11
1.3713e+11
-6.37778e+11
-3.52043e+11
-2.90067e+11
1.14618e+11
-3.23843e+11
-4.04394e+11
-6.4426e+11
-4.10504e+11
2.27176e+11
2.50847e+11
-4.86372e+11
-1.55697e+11
-3.22632e+11
1.81039e+11
3.05408e+11
-4.33913e+11
2.57129e+11
-1.11976e+11
-1.83832e+11
-1.74481e+11
-9.25738e+10
2.14239e+11
-4.22765e+11
-3.44984e+11
1.31455e+11
-3.8441e+11
8.27364e+10
-5.22277e+11
-4.7295e+11
1.51529e+11
7.36643e+11
1.77313e+11
-5.01206e+11
3.36864e+11
-2.24006e+11
-4.57875e+11
-2.24661e+11
3.36148e+11
1.76482e+11
-1.23991e+11
5.16133e+11
-8.8794e+10
-2.40258e+11
-9.45873e+10
-1.4945e+11
-2.13267e+10
-2.80273e+11
3.15422e+11
4.12352e+11
-2.56785e+11
-8.46709e+10
-1.8753e+11
2.57285e+11
2.6289e+10
-9.60558e+10
-4.21365e+10
-1.3649e+11
3.11959e+11
-1.3341e+11
3.70444e+11
-1.46535e+11
-1.00202e+11
-1.23661e+11
-1.3384e+11
-1.38894e+11
3.37664e+11
-6.50502e+10
-2.90256e+11
-2.07102e+11
3.09814e+11
-2.32633e+11
-9.97277e+10
-2.73601e+11
-6.73306e+10
-1.35798e+11
-7.60157e+10
-1.74247e+11
3.8432e+11
-1.34209e+11
-3.57088e+11
4.80369e+11
-1.23373e+11
5.82869e+11
-4.6191e+11
-1.20995e+11
-1.46152e+11
-3.98964e+11
5.45039e+11
-1.79258e+11
-3.90361e+11
4.93546e+11
-4.20885e+11
-1.15497e+11
-1.61984e+11
-3.74567e+11
-9.05825e+10
5.25657e+11
-2.92202e+11
-1.42898e+11
-5.78921e+11
7.15529e+11
-1.36669e+11
8.74542e+11
-7.28979e+11
-1.45594e+11
-1.61622e+11
7.67657e+11
-6.06068e+11
-2.00837e+11
-5.73987e+11
6.84177e+11
-6.62585e+11
-1.17198e+11
-2.11956e+11
-5.23674e+11
-8.62862e+10
-1.53478e+11
4.31468e+11
-1.91778e+11
-3.95021e+11
-1.66788e+11
5.61676e+11
6.63942e+11
-1.78635e+11
-4.85365e+11
-1.85072e+11
5.6448e+11
-3.79432e+11
-2.14813e+11
-4.16127e+11
5.44605e+11
-4.47714e+11
-1.62159e+11
-2.16228e+11
-3.85012e+11
-2.5058e+11
-2.50216e+11
3.64225e+11
4.30802e+11
-2.507e+11
-3.26719e+11
-2.55451e+11
-2.86149e+11
4.0264e+11
7.75363e+10
-1.9426e+11
-4.1594e+11
5.32603e+11
-1.5315e+11
1.13733e+11
-2.11313e+11
1.41815e+11
-2.05009e+11
3.96203e+11
-3.18664e+11
-2.92464e+11
-1.32076e+11
-1.42423e+11
-4.50832e+11
1.8082e+11
-5.29248e+11
-1.13575e+11
2.24363e+11
-3.55697e+11
-1.19545e+11
-7.20323e+10
-4.31809e+11
-5.89058e+11
-7.40392e+10
-1.33496e+11
-4.82318e+11
1.61907e+11
-2.62382e+11
-2.26278e+11
-2.55282e+11
-1.84381e+11
-3.92412e+11
-1.90377e+11
5.22539e+11
-2.10828e+11
-4.90403e+11
4.86232e+11
-9.12122e+10
-2.33149e+11
-8.77211e+10
6.42292e+11
-2.11032e+11
-9.24385e+10
5.56803e+11
-6.41253e+11
1.86232e+11
1.42071e+11
4.4959e+11
4.87793e+11
1.53461e+11
-1.64209e+11
2.71761e+11
-3.33269e+11
3.16157e+11
-2.05549e+11
-3.19087e+11
-3.07842e+11
-1.46937e+11
2.43717e+11
1.91825e+11
-2.00355e+11
3.15841e+11
-3.07404e+11
3.93337e+10
1.34678e+11
-3.38077e+11
1.09888e+11
2.51194e+10
3.01451e+11
-1.72804e+11
-2.25644e+11
3.32686e+11
-3.14251e+11
3.44905e+11
-2.77357e+11
-2.57662e+11
-3.0647e+11
3.19707e+11
-2.068e+11
1.73808e+11
3.47813e+11
-2.40562e+11
-2.81044e+11
-2.90269e+10
1.13866e+11
-3.10364e+11
9.67101e+10
-3.26983e+10
3.20471e+11
-2.42458e+11
-1.22825e+11
-2.84432e+11
2.09406e+11
2.94971e+11
-3.2408e+11
-1.64666e+11
-3.05778e+11
2.58976e+11
-1.53357e+11
1.74798e+11
-3.19709e+11
3.55468e+11
-2.10532e+11
4.20858e+10
1.27413e+11
-2.92153e+11
1.27347e+11
3.98023e+10
2.62456e+11
-1.38642e+11
-2.4465e+11
1.3729e+11
3.73528e+11
-2.66236e+11
4.12343e+11
1.34321e+11
-2.87737e+11
-2.58972e+11
-2.76291e+11
1.3999e+11
4.16457e+11
-2.80171e+11
8.5188e+10