# Region type : patch velocity_inlet
# Faces       : 1888
# Area        : 4.314365e-03
# Scale factor: 1.000000e+00
# Time        	sum(phi)
1             	-4.314365e-03
2             	-4.314365e-03
3             	-4.314365e-03
4             	-4.314365e-03
5             	-4.314365e-03
6             	-4.314365e-03
7             	-4.314365e-03
8             	-4.314365e-03
9             	-4.314365e-03
10            	-4.314365e-03
11            	-4.314365e-03
12            	-4.314365e-03
13            	-4.314365e-03
14            	-4.314365e-03
15            	-4.314365e-03
16            	-4.314365e-03
17            	-4.314365e-03
18            	-4.314365e-03
19            	-4.314365e-03
20            	-4.314365e-03
21            	-4.314365e-03
22            	-4.314365e-03
23            	-4.314365e-03
24            	-4.314365e-03
25            	-4.314365e-03
26            	-4.314365e-03
27            	-4.314365e-03
28            	-4.314365e-03
29            	-4.314365e-03
30            	-4.314365e-03
31            	-4.314365e-03
32            	-4.314365e-03
33            	-4.314365e-03
34            	-4.314365e-03
35            	-4.314365e-03
36            	-4.314365e-03
37            	-4.314365e-03
38            	-4.314365e-03
39            	-4.314365e-03
40            	-4.314365e-03
41            	-4.314365e-03
42            	-4.314365e-03
43            	-4.314365e-03
44            	-4.314365e-03
45            	-4.314365e-03
46            	-4.314365e-03
47            	-4.314365e-03
48            	-4.314365e-03
49            	-4.314365e-03
50            	-4.314365e-03
51            	-4.314365e-03
52            	-4.314365e-03
53            	-4.314365e-03
54            	-4.314365e-03
55            	-4.314365e-03
56            	-4.314365e-03
57            	-4.314365e-03
58            	-4.314365e-03
59            	-4.314365e-03
60            	-4.314365e-03
61            	-4.314365e-03
62            	-4.314365e-03
63            	-4.314365e-03
64            	-4.314365e-03
65            	-4.314365e-03
66            	-4.314365e-03
67            	-4.314365e-03
68            	-4.314365e-03
69            	-4.314365e-03
70            	-4.314365e-03
71            	-4.314365e-03
72            	-4.314365e-03
73            	-4.314365e-03
74            	-4.314365e-03
75            	-4.314365e-03
76            	-4.314365e-03
77            	-4.314365e-03
78            	-4.314365e-03
79            	-4.314365e-03
80            	-4.314365e-03
81            	-4.314365e-03
82            	-4.314365e-03
83            	-4.314365e-03
84            	-4.314365e-03
85            	-4.314365e-03
86            	-4.314365e-03
87            	-4.314365e-03
88            	-4.314365e-03
89            	-4.314365e-03
90            	-4.314365e-03
91            	-4.314365e-03
92            	-4.314365e-03
93            	-4.314365e-03
94            	-4.314365e-03
95            	-4.314365e-03
96            	-4.314365e-03
97            	-4.314365e-03
98            	-4.314365e-03
99            	-4.314365e-03
100           	-4.314365e-03
101           	-4.314365e-03
102           	-4.314365e-03
103           	-4.314365e-03
104           	-4.314365e-03
105           	-4.314365e-03
106           	-4.314365e-03
107           	-4.314365e-03
108           	-4.314365e-03
109           	-4.314365e-03
110           	-4.314365e-03
111           	-4.314365e-03
112           	-4.314365e-03
113           	-4.314365e-03
114           	-4.314365e-03
115           	-4.314365e-03
116           	-4.314365e-03
117           	-4.314365e-03
118           	-4.314365e-03
119           	-4.314365e-03
120           	-4.314365e-03
121           	-4.314365e-03
122           	-4.314365e-03
123           	-4.314365e-03
124           	-4.314365e-03
125           	-4.314365e-03
126           	-4.314365e-03
127           	-4.314365e-03
128           	-4.314365e-03
129           	-4.314365e-03
130           	-4.314365e-03
131           	-4.314365e-03
132           	-4.314365e-03
133           	-4.314365e-03
134           	-4.314365e-03
135           	-4.314365e-03
136           	-4.314365e-03
137           	-4.314365e-03
138           	-4.314365e-03
139           	-4.314365e-03
140           	-4.314365e-03
141           	-4.314365e-03
142           	-4.314365e-03
143           	-4.314365e-03
144           	-4.314365e-03
145           	-4.314365e-03
146           	-4.314365e-03
147           	-4.314365e-03
148           	-4.314365e-03
149           	-4.314365e-03
150           	-4.314365e-03
151           	-4.314365e-03
152           	-4.314365e-03
153           	-4.314365e-03
154           	-4.314365e-03
155           	-4.314365e-03
156           	-4.314365e-03
157           	-4.314365e-03
158           	-4.314365e-03
159           	-4.314365e-03
160           	-4.314365e-03
161           	-4.314365e-03
162           	-4.314365e-03
163           	-4.314365e-03
164           	-4.314365e-03
165           	-4.314365e-03
166           	-4.314365e-03
167           	-4.314365e-03
168           	-4.314365e-03
169           	-4.314365e-03
170           	-4.314365e-03
171           	-4.314365e-03
172           	-4.314365e-03
173           	-4.314365e-03
174           	-4.314365e-03
175           	-4.314365e-03
176           	-4.314365e-03
177           	-4.314365e-03
178           	-4.314365e-03
179           	-4.314365e-03
180           	-4.314365e-03
181           	-4.314365e-03
182           	-4.314365e-03
183           	-4.314365e-03
184           	-4.314365e-03
185           	-4.314365e-03
186           	-4.314365e-03
187           	-4.314365e-03
188           	-4.314365e-03
189           	-4.314365e-03
190           	-4.314365e-03
191           	-4.314365e-03
192           	-4.314365e-03
193           	-4.314365e-03
194           	-4.314365e-03
195           	-4.314365e-03
196           	-4.314365e-03
197           	-4.314365e-03
198           	-4.314365e-03
199           	-4.314365e-03
200           	-4.314365e-03
201           	-4.314365e-03
202           	-4.314365e-03
203           	-4.314365e-03
204           	-4.314365e-03
205           	-4.314365e-03
206           	-4.314365e-03
207           	-4.314365e-03
208           	-4.314365e-03
209           	-4.314365e-03
210           	-4.314365e-03
211           	-4.314365e-03
212           	-4.314365e-03
213           	-4.314365e-03
214           	-4.314365e-03
215           	-4.314365e-03
216           	-4.314365e-03
217           	-4.314365e-03
218           	-4.314365e-03
219           	-4.314365e-03
220           	-4.314365e-03
221           	-4.314365e-03
222           	-4.314365e-03
223           	-4.314365e-03
224           	-4.314365e-03
225           	-4.314365e-03
226           	-4.314365e-03
227           	-4.314365e-03
228           	-4.314365e-03
229           	-4.314365e-03
230           	-4.314365e-03
231           	-4.314365e-03
232           	-4.314365e-03
233           	-4.314365e-03
234           	-4.314365e-03
235           	-4.314365e-03
236           	-4.314365e-03
237           	-4.314365e-03
238           	-4.314365e-03
239           	-4.314365e-03
240           	-4.314365e-03
241           	-4.314365e-03
242           	-4.314365e-03
243           	-4.314365e-03
244           	-4.314365e-03
245           	-4.314365e-03
246           	-4.314365e-03
247           	-4.314365e-03
248           	-4.314365e-03
249           	-4.314365e-03
250           	-4.314365e-03
251           	-4.314365e-03
252           	-4.314365e-03
253           	-4.314365e-03
254           	-4.314365e-03
255           	-4.314365e-03
256           	-4.314365e-03
257           	-4.314365e-03
258           	-4.314365e-03
259           	-4.314365e-03
260           	-4.314365e-03
261           	-4.314365e-03
262           	-4.314365e-03
263           	-4.314365e-03
264           	-4.314365e-03
265           	-4.314365e-03
266           	-4.314365e-03
267           	-4.314365e-03
268           	-4.314365e-03
269           	-4.314365e-03
270           	-4.314365e-03
271           	-4.314365e-03
272           	-4.314365e-03
273           	-4.314365e-03
274           	-4.314365e-03
275           	-4.314365e-03
276           	-4.314365e-03
277           	-4.314365e-03
278           	-4.314365e-03
279           	-4.314365e-03
280           	-4.314365e-03
281           	-4.314365e-03
282           	-4.314365e-03
283           	-4.314365e-03
284           	-4.314365e-03
285           	-4.314365e-03
286           	-4.314365e-03
287           	-4.314365e-03
288           	-4.314365e-03
289           	-4.314365e-03
290           	-4.314365e-03
291           	-4.314365e-03
292           	-4.314365e-03
293           	-4.314365e-03
294           	-4.314365e-03
295           	-4.314365e-03
296           	-4.314365e-03
297           	-4.314365e-03
298           	-4.314365e-03
299           	-4.314365e-03
300           	-4.314365e-03
301           	-4.314365e-03
302           	-4.314365e-03
303           	-4.314365e-03
304           	-4.314365e-03
305           	-4.314365e-03
306           	-4.314365e-03
307           	-4.314365e-03
308           	-4.314365e-03
309           	-4.314365e-03
310           	-4.314365e-03
311           	-4.314365e-03
312           	-4.314365e-03
313           	-4.314365e-03
314           	-4.314365e-03
315           	-4.314365e-03
316           	-4.314365e-03
317           	-4.314365e-03
318           	-4.314365e-03
319           	-4.314365e-03
320           	-4.314365e-03
321           	-4.314365e-03
322           	-4.314365e-03
323           	-4.314365e-03
324           	-4.314365e-03
325           	-4.314365e-03
326           	-4.314365e-03
327           	-4.314365e-03
328           	-4.314365e-03
329           	-4.314365e-03
330           	-4.314365e-03
331           	-4.314365e-03
332           	-4.314365e-03
333           	-4.314365e-03
334           	-4.314365e-03
335           	-4.314365e-03
336           	-4.314365e-03
337           	-4.314365e-03
338           	-4.314365e-03
339           	-4.314365e-03
340           	-4.314365e-03
341           	-4.314365e-03
342           	-4.314365e-03
343           	-4.314365e-03
344           	-4.314365e-03
345           	-4.314365e-03
346           	-4.314365e-03
347           	-4.314365e-03
348           	-4.314365e-03
349           	-4.314365e-03
350           	-4.314365e-03
351           	-4.314365e-03
352           	-4.314365e-03
353           	-4.314365e-03
354           	-4.314365e-03
355           	-4.314365e-03
356           	-4.314365e-03
357           	-4.314365e-03
358           	-4.314365e-03
359           	-4.314365e-03
360           	-4.314365e-03
361           	-4.314365e-03
362           	-4.314365e-03
363           	-4.314365e-03
364           	-4.314365e-03
365           	-4.314365e-03
366           	-4.314365e-03
367           	-4.314365e-03
368           	-4.314365e-03
369           	-4.314365e-03
370           	-4.314365e-03
371           	-4.314365e-03
372           	-4.314365e-03
373           	-4.314365e-03
374           	-4.314365e-03
375           	-4.314365e-03
376           	-4.314365e-03
377           	-4.314365e-03
378           	-4.314365e-03
379           	-4.314365e-03
380           	-4.314365e-03
381           	-4.314365e-03
382           	-4.314365e-03
383           	-4.314365e-03
384           	-4.314365e-03
385           	-4.314365e-03
386           	-4.314365e-03
387           	-4.314365e-03
388           	-4.314365e-03
389           	-4.314365e-03
390           	-4.314365e-03
391           	-4.314365e-03
392           	-4.314365e-03
393           	-4.314365e-03
394           	-4.314365e-03
395           	-4.314365e-03
396           	-4.314365e-03
397           	-4.314365e-03
398           	-4.314365e-03
399           	-4.314365e-03
400           	-4.314365e-03
401           	-4.314365e-03
402           	-4.314365e-03
403           	-4.314365e-03
404           	-4.314365e-03
405           	-4.314365e-03
406           	-4.314365e-03
407           	-4.314365e-03
408           	-4.314365e-03
409           	-4.314365e-03
410           	-4.314365e-03
411           	-4.314365e-03
412           	-4.314365e-03
413           	-4.314365e-03
414           	-4.314365e-03
415           	-4.314365e-03
416           	-4.314365e-03
417           	-4.314365e-03
418           	-4.314365e-03
419           	-4.314365e-03
420           	-4.314365e-03
421           	-4.314365e-03
422           	-4.314365e-03
423           	-4.314365e-03
424           	-4.314365e-03
425           	-4.314365e-03
426           	-4.314365e-03
427           	-4.314365e-03
428           	-4.314365e-03
429           	-4.314365e-03
430           	-4.314365e-03
431           	-4.314365e-03
432           	-4.314365e-03
433           	-4.314365e-03
434           	-4.314365e-03
435           	-4.314365e-03
436           	-4.314365e-03
437           	-4.314365e-03
438           	-4.314365e-03
439           	-4.314365e-03
440           	-4.314365e-03
441           	-4.314365e-03
442           	-4.314365e-03
443           	-4.314365e-03
444           	-4.314365e-03
445           	-4.314365e-03
446           	-4.314365e-03
447           	-4.314365e-03
448           	-4.314365e-03
449           	-4.314365e-03
450           	-4.314365e-03
451           	-4.314365e-03
452           	-4.314365e-03
453           	-4.314365e-03
454           	-4.314365e-03
455           	-4.314365e-03
456           	-4.314365e-03
457           	-4.314365e-03
458           	-4.314365e-03
459           	-4.314365e-03
460           	-4.314365e-03
461           	-4.314365e-03
462           	-4.314365e-03
463           	-4.314365e-03
464           	-4.314365e-03
465           	-4.314365e-03
466           	-4.314365e-03
467           	-4.314365e-03
468           	-4.314365e-03
469           	-4.314365e-03
470           	-4.314365e-03
471           	-4.314365e-03
472           	-4.314365e-03
473           	-4.314365e-03
474           	-4.314365e-03
475           	-4.314365e-03
476           	-4.314365e-03
477           	-4.314365e-03
478           	-4.314365e-03
479           	-4.314365e-03
480           	-4.314365e-03
481           	-4.314365e-03
482           	-4.314365e-03
483           	-4.314365e-03
484           	-4.314365e-03
485           	-4.314365e-03
486           	-4.314365e-03
487           	-4.314365e-03
488           	-4.314365e-03
489           	-4.314365e-03
490           	-4.314365e-03
491           	-4.314365e-03
492           	-4.314365e-03
493           	-4.314365e-03
494           	-4.314365e-03
495           	-4.314365e-03
496           	-4.314365e-03
497           	-4.314365e-03
498           	-4.314365e-03
499           	-4.314365e-03
500           	-4.314365e-03
501           	-4.314365e-03
502           	-4.314365e-03
503           	-4.314365e-03
504           	-4.314365e-03
505           	-4.314365e-03
506           	-4.314365e-03
507           	-4.314365e-03
508           	-4.314365e-03
509           	-4.314365e-03
510           	-4.314365e-03
511           	-4.314365e-03
512           	-4.314365e-03
513           	-4.314365e-03
514           	-4.314365e-03
515           	-4.314365e-03
516           	-4.314365e-03
517           	-4.314365e-03
518           	-4.314365e-03
519           	-4.314365e-03
520           	-4.314365e-03
521           	-4.314365e-03
522           	-4.314365e-03
523           	-4.314365e-03
524           	-4.314365e-03
525           	-4.314365e-03
526           	-4.314365e-03
527           	-4.314365e-03
528           	-4.314365e-03
529           	-4.314365e-03
530           	-4.314365e-03
531           	-4.314365e-03
532           	-4.314365e-03
533           	-4.314365e-03
534           	-4.314365e-03
535           	-4.314365e-03
536           	-4.314365e-03
537           	-4.314365e-03
538           	-4.314365e-03
539           	-4.314365e-03
540           	-4.314365e-03
541           	-4.314365e-03
542           	-4.314365e-03
543           	-4.314365e-03
544           	-4.314365e-03
545           	-4.314365e-03
546           	-4.314365e-03
547           	-4.314365e-03
548           	-4.314365e-03
549           	-4.314365e-03
550           	-4.314365e-03
551           	-4.314365e-03
552           	-4.314365e-03
553           	-4.314365e-03
554           	-4.314365e-03
555           	-4.314365e-03
556           	-4.314365e-03
557           	-4.314365e-03
558           	-4.314365e-03
559           	-4.314365e-03
560           	-4.314365e-03
561           	-4.314365e-03
562           	-4.314365e-03
563           	-4.314365e-03
564           	-4.314365e-03
565           	-4.314365e-03
566           	-4.314365e-03
567           	-4.314365e-03
568           	-4.314365e-03
569           	-4.314365e-03
570           	-4.314365e-03
571           	-4.314365e-03
572           	-4.314365e-03
573           	-4.314365e-03
574           	-4.314365e-03
575           	-4.314365e-03
576           	-4.314365e-03
577           	-4.314365e-03
578           	-4.314365e-03
579           	-4.314365e-03
580           	-4.314365e-03
581           	-4.314365e-03
582           	-4.314365e-03
583           	-4.314365e-03
584           	-4.314365e-03
585           	-4.314365e-03
586           	-4.314365e-03
587           	-4.314365e-03
588           	-4.314365e-03
589           	-4.314365e-03
590           	-4.314365e-03
591           	-4.314365e-03
592           	-4.314365e-03
593           	-4.314365e-03
594           	-4.314365e-03
595           	-4.314365e-03
596           	-4.314365e-03
597           	-4.314365e-03
598           	-4.314365e-03
599           	-4.314365e-03
600           	-4.314365e-03
601           	-4.314365e-03
602           	-4.314365e-03
603           	-4.314365e-03
604           	-4.314365e-03
605           	-4.314365e-03
606           	-4.314365e-03
607           	-4.314365e-03
608           	-4.314365e-03
609           	-4.314365e-03
610           	-4.314365e-03
611           	-4.314365e-03
612           	-4.314365e-03
613           	-4.314365e-03
614           	-4.314365e-03
615           	-4.314365e-03
616           	-4.314365e-03
617           	-4.314365e-03
618           	-4.314365e-03
619           	-4.314365e-03
620           	-4.314365e-03
621           	-4.314365e-03
622           	-4.314365e-03
623           	-4.314365e-03
624           	-4.314365e-03
625           	-4.314365e-03
626           	-4.314365e-03
627           	-4.314365e-03
628           	-4.314365e-03
629           	-4.314365e-03
630           	-4.314365e-03
631           	-4.314365e-03
632           	-4.314365e-03
633           	-4.314365e-03
634           	-4.314365e-03
635           	-4.314365e-03
636           	-4.314365e-03
637           	-4.314365e-03
638           	-4.314365e-03
639           	-4.314365e-03
640           	-4.314365e-03
641           	-4.314365e-03
642           	-4.314365e-03
643           	-4.314365e-03
644           	-4.314365e-03
645           	-4.314365e-03
646           	-4.314365e-03
647           	-4.314365e-03
648           	-4.314365e-03
649           	-4.314365e-03
650           	-4.314365e-03
651           	-4.314365e-03
652           	-4.314365e-03
653           	-4.314365e-03
654           	-4.314365e-03
655           	-4.314365e-03
656           	-4.314365e-03
657           	-4.314365e-03
658           	-4.314365e-03
659           	-4.314365e-03
660           	-4.314365e-03
661           	-4.314365e-03
662           	-4.314365e-03
663           	-4.314365e-03
664           	-4.314365e-03
665           	-4.314365e-03
666           	-4.314365e-03
667           	-4.314365e-03
668           	-4.314365e-03
669           	-4.314365e-03
670           	-4.314365e-03
671           	-4.314365e-03
672           	-4.314365e-03
673           	-4.314365e-03
674           	-4.314365e-03
675           	-4.314365e-03
676           	-4.314365e-03
677           	-4.314365e-03
678           	-4.314365e-03
679           	-4.314365e-03
680           	-4.314365e-03
681           	-4.314365e-03
682           	-4.314365e-03
683           	-4.314365e-03
684           	-4.314365e-03
685           	-4.314365e-03
686           	-4.314365e-03
687           	-4.314365e-03
688           	-4.314365e-03
689           	-4.314365e-03
690           	-4.314365e-03
691           	-4.314365e-03
692           	-4.314365e-03
693           	-4.314365e-03
694           	-4.314365e-03
695           	-4.314365e-03
696           	-4.314365e-03
697           	-4.314365e-03
698           	-4.314365e-03
699           	-4.314365e-03
700           	-4.314365e-03
701           	-4.314365e-03
702           	-4.314365e-03
703           	-4.314365e-03
704           	-4.314365e-03
705           	-4.314365e-03
706           	-4.314365e-03
707           	-4.314365e-03
708           	-4.314365e-03
709           	-4.314365e-03
710           	-4.314365e-03
711           	-4.314365e-03
712           	-4.314365e-03
713           	-4.314365e-03
714           	-4.314365e-03
715           	-4.314365e-03
716           	-4.314365e-03
717           	-4.314365e-03
718           	-4.314365e-03
719           	-4.314365e-03
720           	-4.314365e-03
721           	-4.314365e-03
722           	-4.314365e-03
723           	-4.314365e-03
724           	-4.314365e-03
725           	-4.314365e-03
726           	-4.314365e-03
727           	-4.314365e-03
728           	-4.314365e-03
729           	-4.314365e-03
730           	-4.314365e-03
731           	-4.314365e-03
732           	-4.314365e-03
733           	-4.314365e-03
734           	-4.314365e-03
735           	-4.314365e-03
736           	-4.314365e-03
737           	-4.314365e-03
738           	-4.314365e-03
739           	-4.314365e-03
740           	-4.314365e-03
741           	-4.314365e-03
742           	-4.314365e-03
743           	-4.314365e-03
744           	-4.314365e-03
745           	-4.314365e-03
746           	-4.314365e-03
747           	-4.314365e-03
748           	-4.314365e-03
749           	-4.314365e-03
750           	-4.314365e-03
751           	-4.314365e-03
752           	-4.314365e-03
753           	-4.314365e-03
754           	-4.314365e-03
755           	-4.314365e-03
756           	-4.314365e-03
757           	-4.314365e-03
758           	-4.314365e-03
759           	-4.314365e-03
760           	-4.314365e-03
761           	-4.314365e-03
762           	-4.314365e-03
763           	-4.314365e-03
764           	-4.314365e-03
765           	-4.314365e-03
766           	-4.314365e-03
767           	-4.314365e-03
768           	-4.314365e-03
769           	-4.314365e-03
770           	-4.314365e-03
771           	-4.314365e-03
772           	-4.314365e-03
773           	-4.314365e-03
774           	-4.314365e-03
775           	-4.314365e-03
776           	-4.314365e-03
777           	-4.314365e-03
778           	-4.314365e-03
779           	-4.314365e-03
780           	-4.314365e-03
781           	-4.314365e-03
782           	-4.314365e-03
783           	-4.314365e-03
784           	-4.314365e-03
785           	-4.314365e-03
786           	-4.314365e-03
787           	-4.314365e-03
788           	-4.314365e-03
789           	-4.314365e-03
790           	-4.314365e-03
791           	-4.314365e-03
792           	-4.314365e-03
793           	-4.314365e-03
794           	-4.314365e-03
795           	-4.314365e-03
796           	-4.314365e-03
797           	-4.314365e-03
798           	-4.314365e-03
799           	-4.314365e-03
800           	-4.314365e-03
801           	-4.314365e-03
802           	-4.314365e-03
803           	-4.314365e-03
804           	-4.314365e-03
805           	-4.314365e-03
806           	-4.314365e-03
807           	-4.314365e-03
808           	-4.314365e-03
809           	-4.314365e-03
810           	-4.314365e-03
811           	-4.314365e-03
812           	-4.314365e-03
813           	-4.314365e-03
814           	-4.314365e-03
815           	-4.314365e-03
816           	-4.314365e-03
817           	-4.314365e-03
818           	-4.314365e-03
819           	-4.314365e-03
820           	-4.314365e-03
821           	-4.314365e-03
822           	-4.314365e-03
823           	-4.314365e-03
824           	-4.314365e-03
825           	-4.314365e-03
826           	-4.314365e-03
827           	-4.314365e-03
828           	-4.314365e-03
829           	-4.314365e-03
830           	-4.314365e-03
831           	-4.314365e-03
832           	-4.314365e-03
833           	-4.314365e-03
834           	-4.314365e-03
835           	-4.314365e-03
836           	-4.314365e-03
837           	-4.314365e-03
838           	-4.314365e-03
839           	-4.314365e-03
840           	-4.314365e-03
841           	-4.314365e-03
842           	-4.314365e-03
843           	-4.314365e-03
844           	-4.314365e-03
845           	-4.314365e-03
846           	-4.314365e-03
847           	-4.314365e-03
848           	-4.314365e-03
849           	-4.314365e-03
850           	-4.314365e-03
851           	-4.314365e-03
852           	-4.314365e-03
853           	-4.314365e-03
854           	-4.314365e-03
855           	-4.314365e-03
856           	-4.314365e-03
857           	-4.314365e-03
858           	-4.314365e-03
859           	-4.314365e-03
860           	-4.314365e-03
861           	-4.314365e-03
862           	-4.314365e-03
863           	-4.314365e-03
864           	-4.314365e-03
865           	-4.314365e-03
866           	-4.314365e-03
867           	-4.314365e-03
868           	-4.314365e-03
869           	-4.314365e-03
870           	-4.314365e-03
871           	-4.314365e-03
872           	-4.314365e-03
873           	-4.314365e-03
874           	-4.314365e-03
875           	-4.314365e-03
876           	-4.314365e-03
877           	-4.314365e-03
878           	-4.314365e-03
879           	-4.314365e-03
880           	-4.314365e-03
881           	-4.314365e-03
882           	-4.314365e-03
883           	-4.314365e-03
884           	-4.314365e-03
885           	-4.314365e-03
886           	-4.314365e-03
887           	-4.314365e-03
888           	-4.314365e-03
889           	-4.314365e-03
890           	-4.314365e-03
891           	-4.314365e-03
892           	-4.314365e-03
893           	-4.314365e-03
894           	-4.314365e-03
895           	-4.314365e-03
896           	-4.314365e-03
897           	-4.314365e-03
898           	-4.314365e-03
899           	-4.314365e-03
900           	-4.314365e-03
901           	-4.314365e-03
902           	-4.314365e-03
903           	-4.314365e-03
904           	-4.314365e-03
905           	-4.314365e-03
906           	-4.314365e-03
907           	-4.314365e-03
908           	-4.314365e-03
909           	-4.314365e-03
910           	-4.314365e-03
911           	-4.314365e-03
912           	-4.314365e-03
913           	-4.314365e-03
914           	-4.314365e-03
915           	-4.314365e-03
916           	-4.314365e-03
917           	-4.314365e-03
918           	-4.314365e-03
919           	-4.314365e-03
920           	-4.314365e-03
921           	-4.314365e-03
922           	-4.314365e-03
923           	-4.314365e-03
924           	-4.314365e-03
925           	-4.314365e-03
926           	-4.314365e-03
927           	-4.314365e-03
928           	-4.314365e-03
929           	-4.314365e-03
930           	-4.314365e-03
931           	-4.314365e-03
932           	-4.314365e-03
933           	-4.314365e-03
934           	-4.314365e-03
935           	-4.314365e-03
936           	-4.314365e-03
937           	-4.314365e-03
938           	-4.314365e-03
939           	-4.314365e-03
940           	-4.314365e-03
941           	-4.314365e-03
942           	-4.314365e-03
943           	-4.314365e-03
944           	-4.314365e-03
945           	-4.314365e-03
946           	-4.314365e-03
947           	-4.314365e-03
948           	-4.314365e-03
949           	-4.314365e-03
950           	-4.314365e-03
951           	-4.314365e-03
952           	-4.314365e-03
953           	-4.314365e-03
954           	-4.314365e-03
955           	-4.314365e-03
956           	-4.314365e-03
957           	-4.314365e-03
958           	-4.314365e-03
959           	-4.314365e-03
960           	-4.314365e-03
961           	-4.314365e-03
962           	-4.314365e-03
963           	-4.314365e-03
964           	-4.314365e-03
965           	-4.314365e-03
966           	-4.314365e-03
967           	-4.314365e-03
968           	-4.314365e-03
969           	-4.314365e-03
970           	-4.314365e-03
971           	-4.314365e-03
972           	-4.314365e-03
973           	-4.314365e-03
974           	-4.314365e-03
975           	-4.314365e-03
976           	-4.314365e-03
977           	-4.314365e-03
978           	-4.314365e-03
979           	-4.314365e-03
980           	-4.314365e-03
981           	-4.314365e-03
982           	-4.314365e-03
983           	-4.314365e-03
984           	-4.314365e-03
985           	-4.314365e-03
986           	-4.314365e-03
987           	-4.314365e-03
988           	-4.314365e-03
989           	-4.314365e-03
990           	-4.314365e-03
991           	-4.314365e-03
992           	-4.314365e-03
993           	-4.314365e-03
994           	-4.314365e-03
995           	-4.314365e-03
996           	-4.314365e-03
997           	-4.314365e-03
998           	-4.314365e-03
999           	-4.314365e-03
1000          	-4.314365e-03
1001          	-4.314365e-03
1002          	-4.314365e-03
1003          	-4.314365e-03
1004          	-4.314365e-03
1005          	-4.314365e-03
1006          	-4.314365e-03
1007          	-4.314365e-03
1008          	-4.314365e-03
1009          	-4.314365e-03
1010          	-4.314365e-03
1011          	-4.314365e-03
1012          	-4.314365e-03
1013          	-4.314365e-03
1014          	-4.314365e-03
1015          	-4.314365e-03
1016          	-4.314365e-03
1017          	-4.314365e-03
1018          	-4.314365e-03
1019          	-4.314365e-03
1020          	-4.314365e-03
1021          	-4.314365e-03
1022          	-4.314365e-03
1023          	-4.314365e-03
1024          	-4.314365e-03
1025          	-4.314365e-03
1026          	-4.314365e-03
1027          	-4.314365e-03
1028          	-4.314365e-03
1029          	-4.314365e-03