/*--------------------------------*- C++ -*----------------------------------*\
| =========                 |                                                 |
| \\      /  F ield         | OpenFOAM: The Open Source CFD Toolbox           |
|  \\    /   O peration     | Version:  2506                                  |
|   \\  /    A nd           | Website:  www.openfoam.com                      |
|    \\/     M anipulation  |                                                 |
\*---------------------------------------------------------------------------*/
FoamFile
{
    version     2.0;
    format      ascii;
    arch        "LSB;label=32;scalar=64";
    class       volScalarField;
    location    "800";
    object      p;
}
// * * * * * * * * * * * * * * * * * * * * * * * * * * * * * * * * * * * * * //

dimensions      [0 2 -2 0 0 0 0];

internalField   nonuniform List<scalar> 
41920
(
2.2013
1.64435
2.70905
2.45429
2.31085
2.28093
2.4529
2.55795
0.365034
-0.544074
-1.61657
-0.024359
-0.692018
-1.056
-0.914787
-2.16048
3.4562
1.45067
4.26312
3.87542
3.66306
4.12989
3.35232
4.27093
2.70695
1.81883
3.30692
2.66592
2.81802
2.47621
2.97616
3.1284
1.40587
2.77278
2.54875
0.961922
1.53216
2.30521
1.62528
2.37847
0.978407
-0.127958
-1.21029
2.82245
1.05483
-0.411406
1.7844
0.0962579
3.04408
2.79775
1.18903
3.19333
3.24031
2.82342
3.18207
2.49506
3.41674
4.09158
0.465124
-1.10253
3.52032
2.98081
0.701595
1.76401
-0.355131
-1.99081
-0.0381928
0.122854
-0.90952
-1.02144
-0.403463
-0.408153
0.629753
2.26905
1.87902
2.84123
3.73274
3.48003
2.28986
2.39385
0.258953
0.739943
0.352767
0.947401
0.469894
0.474388
0.645375
0.625821
1.44478
2.38922
1.59438
2.06032
2.03245
1.99576
1.97175
1.95259
-0.77357
-0.220929
0.662351
2.36308
0.34865
-0.0655697
1.37254
0.573035
-0.808069
2.22211
0.677073
-0.332763
0.37619
1.48968
-0.303875
0.70145
0.301985
1.15203
2.17584
1.33143
0.780949
1.16509
1.16616
1.69619
0.305446
1.32292
2.18756
1.01373
0.780812
1.14585
1.01192
1.54639
-0.176035
-3.41048
0.0847795
-0.102975
0.0577988
-0.626224
0.0494978
0.353854
-1.17854
2.53197
1.14714
0.889292
0.58732
2.47096
0.105498
2.11651
-0.345896
0.537938
-0.0871186
0.026234
-0.800689
-0.0143432
-0.11091
-0.0964184
0.0274956
0.363401
0.131395
0.184706
0.126532
0.290253
0.112397
0.265402
-2.02657
-0.290889
-0.0419199
-0.211356
-1.55851
-0.382344
-0.930985
-0.210408
-1.55289
0.105618
-0.246626
-0.262729
-1.62113
-0.916709
-0.84744
-1.25842
-0.201514
0.0799282
0.159911
0.0331124
-0.0774873
0.100942
-0.020274
0.215155
-0.303509
-0.0531769
0.13662
0.463501
0.105457
0.365676
-0.0637418
0.266236
3.32028
4.27871
3.61909
3.06959
3.47285
3.80064
3.31935
3.663
5.5796
7.51679
6.1188
2.70566
5.52619
6.05714
4.87021
5.9129
4.12086
5.30481
4.16133
2.73043
4.25194
4.36688
4.114
4.52148
1.98295
1.70412
2.21435
0.817465
1.66519
2.3236
1.24041
1.78584
4.28196
3.78391
3.00159
3.27059
3.92854
3.68546
3.56525
3.2247
4.69162
2.69987
5.33415
4.207
4.63078
4.11489
4.81513
4.75142
3.6242
2.78248
2.45425
2.51695
3.16265
2.87482
2.89629
2.72609
4.11289
2.39672
2.3606
5.22451
3.97538
2.58059
4.13456
2.65188
5.27088
7.58521
3.81863
1.07338
4.66812
4.39171
3.3836
3.22719
8.12271
6.8887
4.70691
4.19939
5.93721
6.14282
5.03177
4.75871
1.20617
1.36225
0.0108468
0.179673
1.09635
0.992088
1.43725
0.534598
-0.425094
1.62422
0.138417
-0.200983
0.810322
0.585531
-0.251376
0.384518
6.20686
3.162
1.93251
3.1289
4.83853
3.76364
3.21105
2.03243
7.10268
3.05663
4.38714
3.51809
4.51699
4.54031
4.03318
3.82084
2.44926
0.936491
1.99032
0.588144
1.33321
1.34483
1.30423
1.44918
1.92475
0.40147
2.75895
2.58945
1.69894
1.9102
2.36863
2.75277
0.389846
0.768649
0.287136
1.00264
0.727324
0.610855
0.736935
0.632325
1.97518
3.24541
2.91688
2.8394
3.01322
3.47316
3.11328
3.12023
0.152601
1.44226
0.315256
1.01988
0.594795
0.83283
0.675142
0.888936
1.62499
2.35562
1.78277
2.0586
1.98474
2.01513
1.99399
2.00089
0.983711
0.566709
1.39118
2.35369
1.01218
0.776014
1.55989
1.31081
0.845804
2.27934
2.00609
0.384233
0.864631
1.83556
0.367702
1.53889
0.598625
1.39087
2.33288
1.62628
0.869552
1.3748
1.53143
1.78963
0.443056
1.50418
2.24183
2.00283
0.881846
1.48927
1.71531
1.88039
2.08039
1.67942
1.55412
2.27409
1.99633
1.83472
2.05162
1.74606
1.00044
0.37803
0.195295
0.88831
0.822934
0.58442
0.713346
0.437575
0.174294
-0.110768
-0.424255
-0.789911
-0.232548
-0.195744
-0.800833
-0.354897
2.47937
1.48253
1.22502
2.62154
2.27813
1.63774
2.3792
1.78615
1.48171
1.3369
2.12679
1.44095
1.44798
1.58795
1.62246
1.71418
1.18954
0.974979
0.245881
1.08051
1.04742
0.814129
0.752335
0.47281
1.18158
2.10215
1.29445
0.569556
1.38672
1.72672
1.03552
1.49328
0.671848
-0.178954
0.777916
0.0847703
0.288097
0.38746
0.285278
0.404518
0.410477
1.66714
1.90242
-0.0134421
0.535806
1.4788
0.292562
1.46263
1.91558
6.59183
5.89589
-2.20207
2.98784
4.3156
1.9503
4.44611
2.1509
5.2554
4.51501
-1.71751
1.89176
3.57185
1.27567
3.6596
-1.91857
-7.19462
-4.66782
-3.22795
-3.09975
-6.7703
-4.71279
-6.97695
0.375013
0.423859
-0.742514
-3.49215
-0.709599
1.07747
-1.5324
-0.790877
1.02729
-4.74227
4.08542
1.18588
0.292738
0.534663
2.17601
2.51324
0.180564
-1.4315
-6.26636
-3.62471
0.152365
-1.19656
-2.59524
-3.12959
0.678978
-3.8284
-6.0536
4.03624
0.923387
-2.97738
1.5056
-2.45354
-15.4351
-93.5245
-11.4745
-5.23007
-16.264
-31.4144
-14.1475
-19.179
-29.3001
100.577
-40.1801
-34.1002
-9.6493
1.16512
-48.0657
-54.9541
-8.44605
-21.7187
-1.14097
-7.13603
-11.1442
-13.6491
-6.38167
-6.66791
-5.526
-24.2543
-2.45014
-2.11257
-0.57684
-13.0244
-4.87336
-9.91629
-65.4632
-14.8839
-11.1809
-52.0098
-46.2718
-23.7613
-44.4299
-19.6527
-50.4856
-41.9442
-41.264
-26.0039
-50.807
-43.9514
-48.4935
-53.7885
-14.1462
-4.82977
-26.6063
-6.18435
-12.5662
-9.42992
-13.9838
-14.6162
-15.1025
-6.95099
-54.6033
-32.4488
-16.7057
-14.7808
-34.0987
-39.3947
2.49456
2.46169
2.19601
2.63135
2.40371
3.40037
1.6706
1.96417
1.70182
1.12999
2.56816
1.74711
1.69757
1.48545
1.83691
1.62542
2.52479
4.23581
2.59351
1.91854
2.22079
1.72923
1.30348
2.12512
2.46903
2.25918
2.32233
2.42612
2.43856
2.03923
2.62879
2.43033
2.3139
2.19683
2.67191
2.32139
2.1312
1.87873
2.16411
2.20797
2.69379
2.10692
1.80849
1.89088
2.22142
2.25663
2.2148
2.05255
3.13264
2.74469
2.13922
2.64761
2.13947
2.53442
2.38142
2.50439
2.07112
2.41451
2.05499
1.89767
2.3218
1.91934
2.11973
1.89497
2.1624
-44.8054
-45.7657
-2.69829
-34.5761
-66.0868
-23.4191
-46.57
-13.0689
245.791
155.032
-51.9296
48.4226
154.008
24.702
122.342
-52.0249
-36.4878
7.11775
-33.3912
-43.4454
-19.9863
-37.8123
-15.9636
-9.50297
-1.56985
-7.31085
-21.223
1.89062
-17.1093
-1.96475
-9.13334
-52.1504
-54.1032
-7.95623
-19.5297
-43.2561
-62.1792
-23.0844
-34.8054
-19.2253
-71.8221
24.1677
-49.6923
-41.0918
-26.1831
-35.8278
-26.7266
-49.0269
-15.2428
-10.9385
-36.2476
-29.5751
-28.5318
-41.1234
-41.7049
-50.0429
-32.713
-31.6432
-49.071
-45.2762
-36.162
-45.1318
-27.7452
-1.16974
-1.97337
-10.1059
-7.54352
-3.107
-2.67713
-7.99856
-8.10264
-2.28408
-5.28111
-7.1323
-12.5612
-2.76095
-3.09592
-9.26681
-7.97638
-16.8374
-14.7963
6.49559
0.107019
-14.5129
-13.6771
-19.1751
-10.908
-11.3877
-18.4661
-5.81191
12.1534
-15.0347
-20.8538
-8.4023
-12.547
-3.63934
-14.4542
-12.1329
-13.1227
-6.90939
-10.2245
-9.22181
-15.7021
-3.58786
-13.1127
-8.98697
-12.8167
-5.84794
-8.10314
-8.39854
-10.6962
-23.8931
-15.0913
-21.44
-35.2122
-24.0811
-18.1655
-23.8354
-19.5385
-19.6329
-24.0024
-20.8138
-12.9382
-21.4855
-27.6954
-17.9823
-25.6986
-0.56299
-0.90543
-1.19576
-11.2647
-0.502474
-3.1062
-0.970406
-1.9606
-1.21367
-0.593447
0.238119
-7.75736
-2.10084
-0.773957
-4.74337
-1.45501
-1.37953
-0.966114
-1.0062
-9.73609
-2.93473
-0.956608
-4.3614
-2.7623
-15.4285
-20.1202
-6.99844
6.79636
-16.363
-14.2381
-12.4907
-9.91892
-1.94783
-2.48738
-13.8541
-7.95665
-3.03768
-3.5745
-7.56159
-11.0022
-1.07817
-6.70038
-0.796542
-0.986746
-2.28352
-4.17413
-1.06528
-2.57755
-5.46671
-10.5816
-11.8785
-12.4631
-11.169
-9.99742
-11.6161
-11.1139
-3.16861
-11.3006
-10.4098
-2.51969
-4.48164
-10.8795
-4.45857
-9.72234
7.21607
8.01107
7.43511
2.7746
5.8517
7.05709
5.56185
6.72496
7.47375
6.145
5.65682
5.24194
6.86552
8.28377
6.02096
6.55833
7.66432
6.50058
6.2445
4.56376
6.74125
7.23424
5.57764
6.36524
1.1195
1.90141
2.08384
0.370031
0.989597
1.43839
1.20691
1.00658
7.02066
7.18436
2.68288
4.29565
6.05625
6.26419
3.66026
2.98038
7.63465
5.37634
7.4779
7.96369
7.10247
6.22337
7.33232
6.46057
5.9989
2.19734
3.36536
3.60643
4.08084
3.38033
3.99225
3.10157
7.50242
4.65024
4.43152
6.62727
5.93999
5.35204
5.50962
5.34502
1.96881
1.86648
1.74428
1.64244
1.83615
1.87667
1.83085
1.83798
1.62974
0.797098
1.07375
1.11795
1.35629
1.0287
0.934819
0.796902
1.37112
0.907817
0.74026
0.825663
0.820345
0.7368
0.856552
0.785587
1.2057
0.35836
0.681974
0.582904
1.00074
0.651862
0.479756
0.287721
1.88801
1.30266
1.74583
1.25328
1.67346
1.35412
1.70312
1.61474
1.80987
0.682233
1.2643
1.55445
1.61759
1.01354
1.47789
0.781927
1.44971
1.56631
0.763814
1.03153
1.23284
1.49153
0.93271
1.14807
1.56786
0.839592
0.367564
1.75406
1.21141
1.1188
1.35949
1.1958
0.827505
2.44641
1.45033
2.48145
1.3288
1.60068
1.70128
1.48064
2.32761
2.283
2.66256
3.90269
3.31706
2.98911
3.45108
3.31556
0.874041
2.14118
0.639631
2.38745
1.45147
1.26678
1.48115
1.43869
4.18688
3.91732
3.59171
4.17187
3.92334
3.78118
4.25893
3.96776
2.42443
1.59977
2.85079
3.50895
2.72902
2.18817
3.38672
2.92351
2.2816
3.51657
2.6941
1.43375
2.7173
2.84214
1.79202
2.59099
2.01943
3.79857
3.56412
3.21367
2.66651
3.0308
3.00312
3.24167
1.65801
3.19784
3.53899
2.79537
2.08
2.99901
2.67076
3.43079
1.35639
-0.198963
0.277551
3.26439
1.26211
-0.25375
5.77977
0.690219
2.33024
2.49994
1.92756
1.72566
2.17785
2.73513
2.68602
2.66882
2.64795
1.94616
3.11151
1.47604
3.38712
2.92383
3.11359
3.53505
2.6797
2.42894
2.45156
2.42803
2.57733
2.34779
2.62455
2.5698
0.434004
2.23839
2.34663
2.69089
2.42545
1.43393
2.28474
1.87789
1.74333
1.58274
1.92737
2.14686
1.43052
2.5157
1.69865
2.58966
3.42565
3.35283
2.39229
3.31077
1.99629
2.44416
2.34557
2.66441
2.39727
2.23761
2.15431
2.79132
2.12686
1.13249
2.73374
1.44027
3.6903
4.41916
1.46338
2.00493
0.972921
1.798
1.75298
1.40299
2.46426
0.919805
0.557689
1.35346
0.905177
0.638842
0.774615
0.858451
1.11606
0.631339
0.495412
1.30822
0.836768
0.358575
1.05852
0.604172
2.27125
2.20088
2.02675
2.39575
2.27065
2.28696
2.24873
2.18876
0.990346
1.3936
2.13844
1.77578
0.894414
1.44275
1.86522
1.91542
1.40388
1.69285
0.535183
1.09135
1.3267
1.20736
1.31968
0.804606
1.67754
2.11042
1.87148
1.8326
1.66171
1.86137
1.7289
1.95007
1.05135
1.45593
1.64125
0.752331
1.13728
1.48733
0.931889
1.33551
2.08585
0.539884
3.13257
-2.44153
2.10402
2.78377
0.673121
2.041
-2.58166
-1.19241
-10.5425
-6.54059
-7.07224
-6.10726
-8.34371
-7.35868
4.93018
-15.1236
19.6346
17.2979
-0.109768
-9.18566
12.2992
3.23778
2.35301
-15.421
1.99544
10.4643
8.96808
-6.5196
16.0763
6.99673
0.595348
1.9658
-0.910856
-9.14056
-5.82028
-1.69184
-9.52569
-0.843411
1.69266
-6.32406
-13.8217
-0.567975
-5.90813
-6.13811
-7.91134
-9.95748
2.49723
3.39736
-9.63922
0.709621
3.35956
2.05309
0.886916
-5.99742
2.82394
-4.55879
-10.9885
-13.3049
-13.3817
-11.9898
-13.9963
-18.6061
-13.4081
-7.56406
-7.09704
-4.4477
-5.62439
-10.5011
-4.03288
-7.78197
-4.74107
0.625585
-5.17846
-1.38072
-1.46266
-0.489664
-2.44603
-0.238976
-6.60596
-28.8032
10.0332
-3.04217
-11.6913
-21.1766
-1.8316
-11.2608
0.41863
1.09877
2.45142
4.60172
3.0579
-0.990146
2.83678
-1.62343
0.472073
-6.30061
-3.94438
0.963115
-2.21694
-8.77806
-1.56376
-6.84305
-1.24731
0.115962
-12.4666
-9.17581
-2.38281
-0.33152
-11.6831
-7.43473
-6.14049
-4.05782
0.392959
-1.6013
-7.59535
-6.66825
-8.45858
-3.701
-9.98374
-10.8837
0.375266
-17.1613
-13.9897
-12.7176
-11.6633
-6.87612
-1.15563
-11.268
-10.7026
-1.97445
-0.932813
-3.96034
-1.57344
-3.1938
-11.6806
1.37549
1.21713
-9.49369
-6.63843
12.7775
-8.0495
4.08998
-25.5443
2.32491
10.3649
-22.4406
-15.1419
-14.7302
-14.5787
-10.8586
-1.82209
-10.6175
-9.32005
-2.66798
-3.55686
-7.43821
-4.03404
-6.8229
-11.1324
-9.60449
-1.58143
-14.2153
-11.7388
-10.9091
-11.2238
7.58087
-11.8702
-9.6685
10.1743
-18.8529
-11.3304
-12.8817
-21.5516
-12.3636
-11.9134
-1.69853
-14.878
-9.22369
-27.4735
3.35308
-9.848
-13.7964
-18.0855
-14.5735
-10.485
-0.343542
-18.3328
-14.9069
-11.976
-15.8508
-9.08519
-14.8577
-11.7149
-4.14283
-3.1232
-9.0854
-4.22128
-5.65439
-6.43451
-0.616984
-3.81198
-7.9177
-3.97935
-2.02224
-4.22347
-0.22268
-12.1306
-5.4316
-14.5699
-11.4185
-8.55078
-5.59709
-9.53556
-6.61916
-20.7098
0.355253
-12.8857
3.65918
-4.90332
-9.39281
1.50528
-3.24787
-10.0025
-9.49031
-5.905
-1.07681
-10.2517
-16.2707
-8.52127
-13.8583
-7.05701
-0.34055
-4.18097
-9.95636
-5.18909
-4.4495
-7.8492
-3.68648
-12.5511
-16.9161
-0.787359
-13.9105
-12.5695
-10.5194
-9.30515
-9.46806
-10.3027
-2.8774
1.28865
-4.31608
-1.41827
-1.09539
-4.3959
-0.689893
0.663014
1.94391
2.4379
0.616213
1.42041
1.98045
1.11987
2.17375
3.31187
5.39886
4.28948
2.95423
3.12499
4.2148
3.22444
3.3177
3.67692
4.34192
4.52114
4.02573
3.84464
4.25844
4.09687
4.37954
0.615377
1.95571
2.33198
0.180941
1.05882
1.59061
0.480898
1.67458
1.85549
2.60372
1.06149
2.13225
2.00355
2.08732
1.62738
1.72672
2.83958
2.78897
4.07862
3.26165
2.9889
3.13108
3.37609
3.54267
2.82525
0.771271
2.05277
2.57341
2.36887
1.74444
2.49949
1.74261
3.41789
3.37702
3.0256
3.96356
3.64401
3.26208
3.78541
3.47936
4.76328
1.67315
1.87806
-1.05262
3.03862
2.6451
1.43815
1.13295
0.743979
-0.00614117
0.222001
-0.340497
-0.145879
0.102662
-0.280225
-0.00828207
1.48878
0.24757
0.316772
-0.122019
0.269376
0.417877
-0.0421207
0.332983
-3.75732
-0.822536
-0.765652
-1.15021
-3.05674
-1.46298
-2.30645
-0.868383
0.288258
0.505423
-2.71834
-1.14771
0.0549846
-0.422934
-0.948313
-0.790942
0.869481
-0.4765
0.267539
1.3578
0.276466
-0.388867
0.584964
-0.0910161
1.37443
-1.17299
-0.689889
-1.11549
0.169278
-0.70736
-1.20032
-1.41101
1.15547
-0.312867
-0.151994
0.198149
-0.0525669
-0.331422
-0.0866618
-0.107791
1.35008
2.39926
1.85753
1.91584
1.21337
2.17584
1.28692
1.95813
2.18806
2.25033
2.12437
2.04778
2.16026
2.24161
2.11854
2.20139
1.9074
2.11887
2.0275
1.85663
1.92921
2.00777
1.90922
2.02954
0.681843
1.51513
1.44738
0.820144
1.04994
1.30137
1.0401
1.35981
1.97408
2.07489
2.01535
1.92035
2.03652
2.21918
1.8797
1.73897
2.2625
1.99396
1.93024
2.25144
1.90143
1.9815
1.71962
1.95518
1.83965
1.67283
1.7429
1.57736
1.76314
1.77325
1.82423
1.70949
1.97193
1.80986
2.02029
2.1828
1.98873
1.81572
2.03365
1.98695
12.0172
12.2503
22.8789
-10.1458
-2.60261
15.6712
5.23639
5.88587
13.4972
10.1589
7.95945
-9.12027
7.16468
10.438
5.95267
9.42952
17.1283
15.3369
-15.4457
-23.7774
-7.59121
4.20027
-11.5091
-4.83419
-11.4601
-10.3021
-8.46669
-4.8851
-9.27719
-10.0779
-8.32049
-8.69756
6.44232
-1.52314
-10.4178
-12.2958
8.96755
7.79708
-15.109
-11.7466
12.0084
-12.9751
9.933
9.11067
11.862
12.2374
5.58834
6.93767
0.149787
-11.7531
-11.5743
-15.3471
-17.3397
-13.0766
-14.4178
-11.1889
0.574678
-16.1387
-11.0533
7.32194
5.30052
-17.6027
6.2643
-12.9092
-0.294948
-0.649917
-7.99048
-0.386324
-0.229274
-0.8526
-1.03603
-2.32944
-1.62158
-31.2143
2.59415
-4.79129
5.2369
-18.7435
-5.29019
-7.84219
-9.29587
-7.76817
-2.07897
-9.39947
-9.55156
-7.82227
-9.26849
-5.24519
0.636051
-1.39087
-7.06912
-0.345281
-0.583846
-2.17738
-2.31351
-3.69527
-2.88871
-8.32916
-0.862348
-1.04434
-2.79874
-2.14888
-1.29633
-0.468377
-1.28018
-4.78198
-4.6963
-7.98508
-3.02716
-4.07721
-7.30106
-6.46413
-10.2804
-1.6703
-2.51865
-9.45187
-8.13632
-1.90047
-7.58199
-3.64482
-9.80177
-10.3426
-4.80855
-6.67045
-8.53247
-8.3113
-5.71751
-6.47453
0.231171
-0.00148489
0.196596
-2.22165
-1.20705
-0.349041
-1.00241
-0.855533
-0.611834
-0.191439
-0.526247
-7.05542
0.512073
-0.183867
-1.36456
-0.173396
-1.25446
-1.74038
-1.31373
-9.00834
0.532085
-1.09032
-1.45505
-1.85895
-7.92137
-20.2044
-8.70236
0.271854
-9.53834
-18.9636
-2.11304
-7.79012
0.318698
-0.967023
-5.26723
-8.97099
-2.14667
-2.91737
-4.87229
-3.70524
-0.278644
-6.02424
0.100379
-0.474127
-0.872968
-2.31717
-1.01789
0.000225982
-1.99646
-6.53629
-19.8958
-12.0471
-5.15684
-6.4664
-9.54467
-11.1316
-0.857713
-12.9475
-15.2587
-0.86304
0.332777
-10.5954
-1.64726
-13.2767
10.0575
7.31319
5.49955
7.57569
8.28824
8.7266
7.36412
7.67293
8.74915
9.54034
6.54356
9.21205
9.12342
8.9253
8.43936
8.17
3.20571
2.90896
0.406646
2.94339
3.76784
3.54264
2.35568
1.92891
7.40749
8.24484
1.90539
8.25483
6.08251
6.65926
5.44372
5.75426
8.01887
5.45199
7.25012
8.05666
7.16922
6.19577
7.46755
6.8071
7.82222
7.98992
5.73485
5.33517
6.9295
7.23069
5.14641
5.8633
4.89624
6.38839
7.68644
2.45023
5.55463
5.98341
3.84238
6.54541
4.61745
2.40242
7.71579
4.70102
4.14504
3.8468
4.9067
5.2911
0.126324
1.20873
0.897979
0.344659
0.447426
1.00521
0.327926
1.03286
2.44438
3.17598
3.38198
2.7781
2.79371
3.12751
2.88483
3.14577
2.4051
3.76983
4.37275
2.39316
2.64412
3.60055
2.75147
3.69351
0.411285
1.82909
1.91396
0.594799
0.998245
1.50708
0.891932
1.56068
1.49866
1.22447
0.517195
1.83507
1.45937
1.36307
1.49539
1.22515
2.18535
2.49219
3.3132
2.02298
2.26168
2.59302
2.37428
2.76106
1.08439
0.417619
1.84912
1.74115
1.25988
1.25702
1.77153
1.65967
2.16249
2.2455
2.58332
3.3162
2.36367
2.18648
2.82757
2.77294
10.6633
-22.7344
-15.4307
1.76527
11.9328
-1.00775
11.6296
-4.02665
-15.3891
-2.68741
-23.6574
-6.2959
-12.0506
-7.94583
-13.9879
-11.5122
-4.01095
-32.0329
153.998
-28.7027
-18.4338
-26.0494
0.679413
-8.29035
2.36865
-2.54777
-20.07
-3.38093
-6.43327
-10.1843
-8.26638
-14.0695
-20.3395
-10.0502
-6.46119
-14.6802
-17.7297
-18.623
-14.5381
-13.7976
-21.094
-15.4835
-37.9576
-20.4799
-25.8318
-26.7888
-29.5122
-31.8475
-10.3203
-1.88739
-15.1257
-27.8795
-24.2015
-20.0902
-32.0016
-25.2844
-19.1684
-41.7403
-15.023
-43.3358
-38.4657
-40.6605
-35.9844
-34.8865
-36.3043
-0.417064
-10.1919
-6.52023
-14.1979
6.14515
-3.61908
-12.609
-7.15996
13.8021
22.9804
-11.0402
-5.11217
-7.56798
-5.88927
17.7763
-17.4776
16.3685
11.4642
-10.7239
-19.182
-39.2136
-4.54024
-36.7297
-2.53386
-11.5056
-9.51589
-1.54669
-4.06893
-8.60299
-2.40726
-4.67675
-8.7109
-6.03214
-1.62979
-9.6059
-11.2874
-9.63292
-8.57647
-6.49996
-6.63962
-15.22
-13.0642
-11.7301
-6.27525
-9.85051
-6.84092
-7.7659
-18.6693
-7.93558
-12.3463
-23.7488
-13.7498
-4.30861
-20.0131
-11.9612
-21.1145
-20.5324
-20.8761
18.5148
-20.8127
-23.906
-13.3888
-17.6374
-0.0060738
-1.07862
0.590768
0.291263
-0.339011
-0.393497
2.21759
1.83163
-1.23585
-0.875549
0.684294
2.04027
0.0577337
-0.535464
3.59802
2.49602
1.2847
2.25461
4.36652
7.71421
3.24496
1.82117
6.63326
5.29646
7.86534
6.35034
8.4176
4.66135
6.81686
6.35495
7.2536
6.32982
0.897542
2.44307
3.33337
2.4865
3.76842
5.54679
2.82515
2.63127
0.132188
1.41128
0.525376
1.34821
1.69408
3.25905
0.940033
1.78422
5.07599
6.29349
5.24953
7.94167
5.91199
5.48961
5.23863
5.96215
4.23479
7.34986
4.02427
3.84925
4.04578
3.49865
4.07798
3.6176
0.118977
0.24237
1.09674
0.257088
0.113668
0.345659
0.290693
0.570678
0.334624
0.439986
1.43147
0.424626
0.343005
0.628925
0.605748
0.956772
2.22545
2.24013
2.94374
2.48699
2.28101
2.45496
2.5954
2.70513
0.320873
0.436389
1.67079
0.503487
0.295508
0.667117
0.625028
1.02311
0.286069
1.17118
0.182426
0.314635
0.48756
0.720399
0.331627
0.48076
0.525822
0.60352
1.60253
1.45244
0.71943
0.847751
1.36054
1.40966
1.41533
0.321705
0.632736
1.71279
1.37179
0.673019
1.40885
0.947987
1.70512
2.02296
1.06109
1.88151
1.89063
1.68064
1.68968
1.55703
2.54986
-0.384012
0.0825497
5.69739
1.6617
1.61131
1.4378
0.962961
-5.42413
-2.21142
-1.43676
-10.3836
-4.1373
-1.48119
-4.38736
-1.51361
-2.99223
-0.895841
-0.299041
-7.01783
-6.79044
-2.40036
-7.32881
-2.50146
14.6082
-12.4102
-13.4217
1.68047
12.0971
-4.06548
15.0489
-7.24336
-1.88914
-2.34476
13.2841
-2.43679
-1.88982
-1.52138
-5.87641
3.85362
-4.63103
-7.61966
-0.822634
-4.44598
-6.03123
-5.58261
-4.77787
-3.0105
-1.52301
8.64716
-3.07017
8.1289
-3.23373
1.16924
8.30675
-2.93999
-5.274
-3.04271
-10.116
-0.755882
-6.1431
-2.34085
-3.34051
-8.31593
0.618322
2.05108
1.47836
0.359227
1.29876
1.69588
0.828664
1.68956
3.51408
4.77097
5.33242
4.13148
4.07665
4.71758
4.14944
4.80367
1.9025
6.08333
7.73319
1.19693
3.00741
6.62365
1.46791
6.11069
0.413673
2.0083
0.0887436
0.411771
0.573433
1.23119
0.328854
1.17964
2.89912
2.40095
0.85725
2.43755
2.3494
1.87895
2.10336
1.53891
3.29933
3.33111
5.50577
2.63743
3.34658
3.7957
3.05818
4.18291
1.29918
0.474177
1.99243
0.365415
0.499465
1.31158
1.84753
1.77047
2.66059
1.69423
3.40162
5.25885
2.91058
2.40233
3.52464
3.42674
1.317
-1.91705
0.690721
-1.91358
-1.9062
-2.65269
-0.0207046
-0.271812
-1.78704
0.241749
0.518161
-0.90259
-1.25203
-1.95869
0.161718
-0.945077
-1.34045
-1.70957
-1.63608
1.65033
-1.17218
-1.93429
1.43846
0.178088
3.2179
4.81823
2.02147
3.11823
3.35959
3.05058
2.27531
2.29143
-2.25725
0.094114
0.0202788
-0.0822061
-0.230764
0.409414
-2.18659
-0.628183
-2.97932
-0.789174
-0.653457
-0.115091
-0.899059
0.218905
-0.627199
-0.805737
-0.88361
2.18571
2.0074
2.86165
1.84347
2.18677
1.70971
2.02255
-1.70533
2.46658
1.35708
-1.08462
-1.46415
1.69162
-1.44866
1.10554
-0.958818
-1.3012
0.936123
2.41747
1.46914
-1.04377
-0.884181
1.30055
-1.07183
-0.405965
-0.581268
-2.42262
-0.659645
-0.350272
-1.51336
-0.423937
-0.0936521
-1.62675
-1.39243
1.88937
2.0423
-0.30545
-1.12426
1.39062
3.81528
1.78317
2.98692
5.58747
5.17044
2.77809
8.30185
5.28622
-1.16187
1.13057
5.64562
-0.558153
-1.79559
-0.150116
-2.79856
1.0451
-1.14165
-1.9447
-0.53701
-0.210486
-0.957373
-1.41605
-0.607231
-0.145667
-1.60082
3.14348
2.49002
3.41059
1.21014
5.0098
4.71511
4.28642
1.32606
4.10564
-0.552073
-1.10274
0.277956
-1.13915
-1.40425
-3.01839
-0.408861
-0.840071
-0.445238
3.96081
-2.00919
-2.49183
1.22024
-1.40679
0.389448
-0.504024
-0.0939059
4.23099
-0.634001
-4.99461
-0.0714015
-2.71222
0.400278
-0.464006
0.16879
3.92157
-0.401337
-0.185794
2.42151
-0.96672
3.32221
4.37525
4.35364
5.36204
5.66821
3.56787
8.6115
5.53585
-1.06819
-0.413221
4.24256
5.50704
-1.33444
-0.482685
4.20494
4.56243
-1.06704
2.83772
-0.775198
-0.229824
-0.851951
0.787502
-0.147897
0.359864
1.43798
4.67357
5.60624
5.17986
2.82692
2.31766
3.40344
3.74325
-0.437208
3.79937
3.47828
-0.101302
0.250641
0.926713
-0.551412
3.55584
-0.860147
-7.05006
-5.09418
-0.40045
-3.55345
-6.62732
-2.02092
-6.28252
-5.36537
10.0592
7.26887
-1.54352
-5.11281
7.0375
-0.789203
7.44216
-1.33789
7.13919
6.88851
1.34768
0.437028
6.0231
3.02465
7.5494
-0.17896
-2.3207
-0.0970611
-0.56369
-0.732791
-1.49143
-0.687259
-1.17146
-7.6594
-5.29251
-1.31583
-3.42466
-5.52502
-5.22252
-5.1724
-4.15115
-6.9473
-1.25835
6.67687
-3.46112
-5.30512
-3.10431
-3.41722
-2.68923
-3.09693
-0.82117
-1.04541
0.583553
-2.88309
-3.84197
-1.09884
-2.26832
-2.47113
0.798258
-0.98184
6.48221
-0.852001
0.0724202
0.539009
0.903399
0.561215
1.20611
1.23817
1.60203
0.81353
0.852665
1.29137
1.26111
0.752892
0.49092
1.21752
1.16053
0.839279
0.737487
1.0926
1.05381
1.76281
1.66059
1.92432
1.84246
1.75115
1.76125
1.80288
1.84565
1.71265
1.56753
1.77121
1.72477
1.64581
1.66756
1.71004
1.71744
1.23773
1.53902
1.49779
1.47105
1.32655
1.59118
1.37536
1.50387
1.07508
1.35836
1.46128
1.48356
1.33736
1.29936
1.47622
1.5559
1.49251
1.69157
1.53857
1.70045
1.45136
1.52185
1.52675
1.60574
1.72617
1.81362
1.58053
1.63374
1.74501
1.71809
1.6381
1.65026
4.80772
-6.717
-19.5205
5.24193
15.1926
-0.108605
16.5923
8.08055
-7.39754
0.713212
-1.76063
-3.06517
7.36848
1.49397
8.5877
3.62546
-9.0274
-2.20167
-5.82671
-4.72736
1.40035
-2.20715
1.23633
-1.94646
4.63561
-6.05683
-0.551961
1.38608
1.39354
2.03075
1.39544
2.64138
8.73788
3.23753
7.60513
4.8876
11.763
1.20834
-8.29319
1.55702
-5.07096
-1.77691
-0.528741
-7.78645
1.43998
-1.08146
-7.21357
3.2013
12.5862
9.92342
7.09767
4.12908
0.0281641
3.48971
5.65951
-1.36321
-2.82877
2.55223
-0.910074
1.07051
-0.467413
-0.463799
5.79285
2.57019
3.43529
3.83619
4.21285
3.2256
3.53867
3.80327
3.46693
3.8449
4.17449
4.56638
5.10984
3.732
4.28038
4.62809
4.13037
4.61423
5.3819
6.09263
6.9211
2.70387
5.51428
6.49166
4.69344
6.17111
2.24168
2.49926
1.71711
1.17048
1.9904
2.27881
1.52988
1.80048
3.92021
4.25508
3.30484
3.47436
3.81331
3.75341
3.58782
3.49357
4.22324
3.66278
5.23582
4.75898
4.2447
4.09782
4.6716
4.69448
4.02935
3.02201
3.14689
2.94219
3.49055
3.37801
3.42685
3.1467
4.74564
3.0878
3.42275
5.16383
4.37471
3.54483
4.4392
3.36361
-1.19088
-13.8046
-9.38541
-1.24552
-2.7395
-11.2279
-2.65226
-8.8452
-17.4714
-2.44567
1.04844
-22.0208
-30.2073
10.5741
-12.3826
3.60606
-9.7276
8.94858
7.44583
-9.75846
-10.0622
9.77061
-9.25956
8.42404
-2.19789
-10.0547
-9.46041
-2.91357
-5.43425
-7.80855
-5.7417
-8.61366
-20.9474
-13.8363
-2.06042
-10.8522
-16.3409
-11.3336
-18.1372
-11.3953
-3.60985
-14.5568
-1.58958
-9.75789
-10.5155
-13.1846
-12.2215
-20.3041
-10.6345
-2.60611
-13.8886
-11.9595
-8.78469
-7.04603
-11.3618
-8.15422
-11.2569
-9.22784
-15.3792
1.49617
-11.3566
-10.5791
-20.1588
-12.5794
6.83431
5.50067
8.6091
1.39914
4.81298
4.74802
5.81316
6.23127
3.28013
-15.2685
-0.579204
-19.7041
10.1666
8.21491
4.61066
2.3278
6.91556
5.48791
3.88731
-10.1783
7.72448
5.98194
5.11937
7.78393
-9.06392
-18.9603
-10.0274
-2.6336
-8.57236
-11.3128
-7.39773
-10.1875
4.51644
6.83531
-2.51416
-10.6922
4.39621
4.72571
-10.0185
-2.9205
0.695353
-9.89036
2.21595
5.73966
5.42155
9.18269
5.10016
6.521
5.84607
-5.32448
-10.7335
-8.27483
-4.22974
-5.67524
-7.78864
-9.55201
6.36888
-10.6444
-11.2069
6.56624
1.27231
-13.3053
5.97963
-17.3116
2.51152
0.858776
0.225018
3.27611
2.07419
1.21965
1.89948
0.946855
0.286347
0.534764
-0.291918
1.81327
0.548791
0.291917
0.657548
-0.0371528
-2.92303
-0.957291
-1.50795
0.0134373
-0.297983
-1.53539
-0.562854
-1.82513
4.83707
3.60878
4.21483
4.854
3.80871
2.30747
4.51376
3.20226
0.683343
0.441802
3.42947
2.09041
0.676012
0.293518
1.8275
1.70435
0.546077
1.38711
-0.60075
-2.31074
0.582745
0.0883407
-0.806572
0.415956
0.0604868
3.54554
2.17928
0.820927
0.790154
1.46011
0.784193
1.82186
-2.09189
-0.272903
1.60596
-0.892506
-1.86949
-0.307005
0.10125
1.04295
-0.60258
1.36929
-1.35326
-0.0159114
1.04181
1.34522
0.393897
0.741199
1.83088
1.91196
1.72883
1.66863
1.79801
1.80866
1.7378
1.70809
0.405715
1.6903
-3.0187
-2.40194
0.829822
-0.117101
0.309462
1.10858
0.48421
0.524468
0.153014
1.06959
0.592907
-0.722919
1.95416
0.269958
1.7208
0.588285
0.846671
1.19299
1.2702
1.8987
0.694938
1.71638
1.78027
1.57222
1.47393
-0.0943375
1.91327
1.70092
1.09082
1.39379
1.38822
0.458143
0.734075
1.933
1.16707
1.11322
0.414694
-0.14382
1.33573
0.51185
1.44809
1.9694
0.243492
0.457149
0.993295
0.844598
-1.90317
-6.74098
-1.40399
-9.76072
-3.93426
-3.88726
-4.75202
-6.20499
-1.77313
2.75747
3.07271
2.455
0.386011
2.73289
2.49141
3.79357
3.057
5.05472
4.55355
6.73647
4.6686
4.99602
5.0726
4.71641
-7.88745
0.835811
7.48517
8.37403
1.36699
7.08742
11.624
8.90104
-4.07261
-1.5117
-4.94625
-5.38529
-1.57562
-0.939284
-5.67514
-1.13578
-1.41783
2.92285
3.58046
0.80333
-0.462109
1.08807
1.13897
2.41728
1.33269
-1.0112
4.82924
8.33405
0.127372
-3.09387
6.0612
5.17794
3.01763
7.8535
6.08129
5.86999
5.91114
5.50918
5.32803
2.70801
-2.76503
-8.42567
-7.66034
-1.59641
-5.16012
-7.69687
-4.25455
-7.96847
-13.1917
6.89035
-3.20736
-13.892
-12.0422
1.41998
-13.3533
-6.27834
-3.60686
4.27409
4.12694
-3.72795
-3.41309
3.9381
-0.554559
4.08574
-0.431156
-10.2136
-6.48326
-0.436654
-2.27178
-7.07727
-1.12691
-6.90511
-9.71958
-10.9213
-2.18882
-10.8037
-11.128
-9.26833
-9.22579
-7.74454
-11.5562
-12.9416
4.51096
-11.9412
-13.8505
-11.4546
-12.2992
-10.7074
-8.85554
-1.40961
-10.9735
-5.34567
-6.53277
-7.71615
-8.20226
-9.50237
-9.07159
-7.26606
-12.0699
1.68529
-6.1498
-10.9264
-11.4494
-12.3693
0.657379
1.56373
1.44986
0.563335
0.839886
1.27855
0.814196
1.25828
2.32832
2.93184
2.62504
2.35311
2.50043
2.65151
2.44582
2.61137
1.91085
2.35326
2.13982
1.98372
2.05522
2.17783
2.05025
2.15879
0.460848
1.31258
1.3372
0.290156
0.62249
1.17395
0.566811
1.12858
1.70609
1.5988
0.71336
1.62899
1.64674
1.47988
1.51136
1.26292
2.03812
2.10508
2.41612
1.83997
1.98957
2.23702
2.07852
2.26407
1.57398
0.69604
1.56213
1.51291
1.40878
1.18556
1.52576
1.37016
1.803
1.84779
2.04915
2.38205
2.02412
1.92224
2.23567
2.14748
-1.60652
-13.7696
-1.38076
-14.2837
-7.47926
-7.20048
-6.6337
-8.32131
-31.1294
147.577
-7.98074
35.8727
-2.70718
2.82339
-7.34
-2.05147
-4.50503
24.0186
-30.0219
-21.1177
-2.64447
-26.1892
-1.20972
-4.42868
-23.9648
-2.35337
-13.982
8.1516
-9.88473
-20.2116
-9.5666
-15.2428
-28.2687
-6.17618
-18.6418
-6.29905
-27.0867
-18.1081
-21.8762
-17.7457
-28.455
-12.6849
-37.3061
-4.89008
-26.9632
-28.5079
-22.0266
-26.763
-6.95395
-17.2814
-1.71701
-12.1206
-12.5737
-15.2285
-13.128
-19.4476
-7.17257
-12.0186
-2.8791
-25.3846
-11.3831
-13.5709
-18.8345
-28.5456
0.217027
0.251102
0.239961
0.982154
0.438442
0.237456
0.644871
0.441834
0.257419
0.270124
0.273674
0.994643
0.452395
0.239114
0.650773
0.440542
0.267104
0.321763
0.296141
1.09265
0.479692
0.305525
0.650877
0.496713
1.58925
1.56474
1.54367
1.91342
1.66963
1.56802
1.74124
1.65426
0.440161
0.477784
1.13216
1.15346
0.656313
0.677072
0.998544
0.995235
0.234637
0.99642
0.257006
0.256351
0.438601
0.656359
0.262923
0.439324
0.674916
1.27999
1.28181
1.30083
1.02605
1.14563
1.15597
1.27548
0.465531
1.17279
1.13186
0.451202
0.693298
1.00551
0.669404
1.03714
1.45814
-0.0943021
2.88254
1.48964
0.952403
1.73792
1.58227
2.27914
1.05318
0.641719
0.792185
0.934227
0.786697
0.895109
0.878271
0.825109
2.05991
1.58684
1.77463
1.84848
1.79602
1.72291
1.89323
1.79278
1.52579
1.16837
1.86787
1.61801
1.44194
1.47784
1.59838
1.60437
0.38262
1.78437
1.6965
0.881264
0.843161
1.28941
0.783727
1.47615
0.791131
1.23777
1.49457
1.85293
1.2176
1.39509
1.36902
1.26705
2.00499
1.52472
1.26636
1.82878
1.92659
1.61034
1.90535
1.63161
2.1302
1.62103
1.39043
1.7696
1.74776
1.67726
1.56009
1.50338
3.39646
3.59335
4.60501
3.12045
3.41191
3.58896
3.03088
3.35224
4.7349
6.47786
5.05697
4.24191
5.10738
6.4012
3.76731
5.50665
3.4805
4.24951
0.95985
3.86815
3.97127
4.47354
4.31671
2.79959
1.51743
2.40724
2.46328
0.22117
1.46744
2.04331
0.714063
1.65995
2.80224
2.47729
3.0689
4.15349
3.52763
3.93583
3.49586
3.4837