/*--------------------------------*- C++ -*----------------------------------*\
| =========                 |                                                 |
| \\      /  F ield         | OpenFOAM: The Open Source CFD Toolbox           |
|  \\    /   O peration     | Version:  2506                                  |
|   \\  /    A nd           | Website:  www.openfoam.com                      |
|    \\/     M anipulation  |                                                 |
\*---------------------------------------------------------------------------*/
FoamFile
{
    version     2.0;
    format      ascii;
    arch        "LSB;label=32;scalar=64";
    class       volScalarField;
    location    "1900";
    object      p;
}
// * * * * * * * * * * * * * * * * * * * * * * * * * * * * * * * * * * * * * //

dimensions      [0 2 -2 0 0 0 0];

internalField   nonuniform List<scalar> 
54912
(
-3862.64
-7722.53
-1973.89
1277.63
-6184.83
-6021.36
-552.677
-5414.9
-6385.75
12223.9
13593.8
7997.1
-407.464
17539.9
-5196.44
18886.3
-1825.97
11687.8
-21664.6
-29272.4
-213.89
18277
-19878.4
-16921.2
4189.8
-4693.29
-4944.82
-12269.5
3757.41
4641.56
-6809.27
2298.16
-5590.06
-2234.44
-1226.57
-10299.7
-9128.99
-8000.52
-11986.8
-5527.56
407.69
6617.12
1580.63
-2321.06
2160.15
5520.75
-1307.21
-3489.32
-2225.18
2664.86
-11677.6
-2710.82
-424.503
-640.214
-513.249
-5756.79
-1819.83
11128.6
2131.63
13160.6
-2251.58
20531.8
-13622
7714.79
84706.2
84050.5
130320
-32826.1
45063.6
120142
102670
162218
83001.7
72973.9
93689.3
82946
88478.3
81338.4
79946.5
71389.2
156688
104439
122573
101786
120677
108992
118486
116063
-46681.9
19797.5
59354.6
-37970.3
32753.3
60872.5
51871.3
70477.8
95065.3
102716
27184.4
62245
93592.9
120993
57250.8
77297.5
99865
81755.4
102669
114945
96375.9
79647.9
109001
93446.4
101404
66180.9
63185.4
108932
112796
99414.1
108008
84961.3
117863
104283
79562.8
110472
100583
95995.6
94583.9
69580.3
104907
69887.9
93975.9
70409.7
79306.2
92839.1
68973.9
65655.9
75560.7
80949.5
75137.8
61001.6
71526.8
75598.3
62598.4
64886.1
59239.3
32412.2
10134
28287.6
49466.6
48879.7
35425.8
30113.5
52919.8
45166
29701.3
21842.6
41630.2
40610.4
30976.4
32501
67011.4
59781
61341.6
62279.6
67776.3
43747.2
61789.6
61086.2
78001.2
59742.7
64685.8
61197.7
71408.7
62159.8
64694.7
61074.5
43615.5
60190.8
44045.6
37630.9
54113.8
62247.8
46127.1
38661.4
37369.7
35744.3
44620.7
50648.1
48372.3
46090.2
51465
52601.2
60353.3
67578.1
53521.3
79163.4
71309
72266.3
70011.8
62653.3
64229.5
55636.8
28014.5
69230.7
56505.7
47460.7
63951.6
36553.3
19822.7
-13759.9
-52965.4
-4068.46
942.155
-20024.9
-6430.25
-24502
87283.2
83852.7
45438.7
86643.7
89407.3
75547
80894.5
79592.5
72549.3
51461.4
80947
72051.8
80494
70241.6
89689.7
75107.9
77585
67779.4
18029.9
46623.6
61461.2
63494.7
49367.5
31179.6
43297.4
78038.6
79185.3
41505.6
52665.5
80429.8
41984.8
72682.9
39297.7
44486.6
83706.1
20544.3
29235.5
29035.1
33447.6
34629.6
33956.9
-13427.2
10070.1
-3892.66
-5198.1
8801.53
3819.9
7164.03
-3782.66
-3521.01
-258.154
-2563.37
-2568.41
-5998.13
-3460.38
-6464.28
11029.6
-1604.06
3009.73
-1074.84
7808.58
7908.51
8272.21
9736.63
-3706.09
-3538.57
-6954.17
-2845.11
-2499.34
53.2353
450.632
-648.469
-526.188
10783.5
-3031.91
-2919.39
6741.83
-4883.75
-1705.06
5476.39
6222.78
-1279.11
4725.1
10617.1
4261.03
960.883
5934.87
2085.5
11536.9
-1446.81
-1696.44
3052.55
3337.5
179.697
1292.82
-5554.57
10398.4
4220.82
-1422.06
-5218.83
7089.9
1402.16
74.2235
-2683.08
58047.2
78048.2
42820.6
106957
96957.2
66233.8
88700.5
76053.1
70742.7
60448.3
47282
60565.2
74741.8
62404.7
70923.1
55674
53374.9
21852.8
-32904.2
68892.8
61308.1
22800.4
55514.2
27133.2
117377
90452.7
89680.2
107065
98921.5
94082.4
98927.5
93266.5
81593.1
61115.9
97944.7
90566.9
74437.4
74714.2
91595.2
93317.8
68419.8
71907
50907.1
60436.3
67886.5
74085.6
62419.6
70553.7
65270.6
100759
84318.3
86948.2
82184
105568
87658
90761.7
61830.9
70681.9
70488.1
48613.3
65008
72371.9
64643.1
73379.9
693380
-127893
417478
65948.3
-237781
-151078
364562
611676
-106353
-141609
-331103
224075
225983
327528
307748
447961
541594
-238129
582959
220142
342536
645418
781718
859647
59926.6
-31806.1
193183
126622
43447.4
122885
160968
245755
288353
267976
114381
230524
662303
185940
-34513.9
207255
462335
244895
564692
280390
610209
370972
297715
373032
410384
438583
197062
608494
347167
478788
406128
123514
477716
464617
168887
496597
274159
329286
671972
105391
-304266
105371
130582
79421.7
-161154
101437
-320843
-123353
-232871
5.2345e+06
3.1086e+06
-564724
1.84031e+06
1.42594e+06
-1.10158e+06
1.45591e+06
189113
1.44757e+06
123142
857156
244078
176805
99170.4
204043
-423471
-49594.6
-335171
72652.9
-1.04438e+06
-969979
-328689
-401162
893798
-67037.5
1.58638e+06
464859
-557414
-99646.7
-489919
655455
32058.6
387949
-506553
180527
-99990.6
195429
-546979
-31963.1
520669
1.3433e+06
136145
704120
686825
1.02785e+06
1.32059e+06
1.13677e+06
744770
792563
487779
-375973
349498
1.02121e+06
-726104
1.04678e+06
63335
68954.3
53356.4
34305.8
52228.3
65199.1
41634.5
50139.4
68308.5
69740.3
37333.4
47472
70025.9
69407.8
55487.2
43889
24228.4
11494.9
-14622.1
16454
23040
13179.7
9848.79
-1952.13
13132.9
22194.5
18046.8
9559.91
14502.4
19163.1
10923.3
14110.5
64462
43757.1
27757.9
36918.8
51532.5
42532.9
39843.7
35393.9
67515.9
42822.1
37773.7
44768.3
57682
45005.1
47751.8
46244.3
26630.7
17185.2
25690.5
17772.9
24633.1
24725
24353
22547.7
30479.7
20822.6
37841.5
21245
22743.1
25585.7
30740.2
29457.5
-4468.87
73573.2
31747.4
16497.1
30723.9
40819.7
23693
37923.8
88499.9
84600.4
74846.5
56411.9
56741.6
79824.5
43606.8
61879.9
43856.7
72360.9
56747.6
35655
51746.1
64735.4
42749.9
59156
14000.3
19313.4
13823.9
9986.23
15124.7
13902.8
14538.1
12335.3
51840.6
42732.7
25616
28670.7
39542.1
34786.6
29105.9
28447.4
69063
41386.1
80075.6
53656.4
61301.5
55419.7
67668.5
61717
35020.5
20609.5
23526.1
21605.6
22021.9
25108.8
26382.9
23204.3
46656
28523.7
33808.9
69574.7
47177.1
36662.6
51551.8
39185.1
92258.7
60534.3
92992.4
96152.7
65936.7
71178.4
85405.8
72961.2
53975.8
23364.3
57433
58422.8
47644.4
46543
48441.7
47353.8
101230
73306.3
100727
100081
90016.5
98227.2
91064.2
85056.7
100725
84209.1
87410.8
75681
88444.3
86897.9
94608.6
87697.7
53118
74323.2
89799.6
76190.1
72824.6
76179.3
77487.9
83569.6
48607.1
73314.9
66170.1
73617.5
63519
62291
73670.2
70260
91276.4
85662.8
69090.5
102341
104670
82683.8
84735.3
74783.4
82951
90252.7
65655
65631.6
87966.9
84231
66750.5
69221.4
46799.1
51523.6
85478.5
110369
92125.7
69893.1
85216
77455.2
88409
85085.7
95718
103131
83582.8
80783.7
82868.7
94433.3
107861
109363
107368
107769
118977
124256
116569
140633
111285
104714
91103.5
89611.4
101492
105319
102515
101450
86843.4
109893
110133
105719
81384
90378.8
93083.6
100265
90417.3
107434
110974
96097.3
92562.4
92234.9
91736.6
93980.3
98548.9
103941
98096.5
107551
111275
112080
112521
104259
96826.4
106518
97338.7
107103
102700
107216
98330
103173
-159692
-276006
6146.62
7456.56
-32087.6
-162418
-28072.6
3193.33
56899.7
532704
-258533
123929
98823.5
393692
378666
644948
1.44543e+06
1.15958e+06
2.11857e+06
858094
-442669
28975.2
-703494
53456.8
71193.7
174092
103174
64444.8
18845.1
81311
172209
125745
101890
-382998
19254.9
85222.9
-88319.6
-41131
51752.8
35155
-123934
28044
-785368
143639
-243174
379719
652695
-272445
-115070
-29535.5
210977
317949
397604
-91759
148654
302755
-626130
457126
466428
453429
-90814.5
516429
-293473
637623
416445
279982
-378675
180832
336352
320321
208940
445978
165932
216355
-20373.9
33725.4
124591
198705
-36481.5
-23086.4
1.59477e+06
-244884
727075
15207.7
1.15033e+06
1.5606e+06
246717
379322
155914
34774.9
-76936.4
75702.3
10371.5
2539.77
129668
183947
83127.7
262892
70009.5
42080.5
100670
272034
158700
134886
155922
63958.4
621263
66884.3
91477.9
-72554.9
338719
282873
859510
346393
76864.5
357446
386373
354247
410048
36086
612071
620237
63859.9
102253
438136
663258
-37862.9
-467095
-3294.67
-1943
-4756.07
3480.43
113.018
-3836.75
1940.96
-846.563
19091.2
21282.1
14956.9
10944.5
22255.9
21301.3
10925
12251.3
1856.58
-6713.72
3444.82
-2835.39
-4319.49
-2342.89
-5176.78
-5686.76
11995.1
5202.02
2283.44
-15585.3
13071
12943.5
13796.4
17044.3
2478.74
-258.709
8147
14316.7
7760.45
936.359
8195.4
8240.79
-875.793
13788.6
-2832.52
-2677.63
3824.23
6650.22
-10188.7
1573.12
-5844.45
2349.26
14214.2
-213.625
-3669.15
5068.05
3843.59
9176.52
-5448.58
-937.585
17792.7
-2760.78
-7096.11
2078.34
-2249.75
8235.32
7479.88
13707.6
9679.36
15378.6
10711.5
12727.5
4528.77
8782.91
16816.1
14977.7
7683.98
14268.8
28139.4
9518.53
10929
9514.94
391.124
1694.14
-2118.03
2538.09
-4463.07
2456.16
-191.856
-3093.83
12699.6
5228.02
10738.2
-11716.9
5819.26
4247.08
1475.22
5206.38
19307.1
9627.69
16213.9
27997.1
11171.9
8894.22
13591.4
13624.3
16960.4
14618.4
6650.84
14556.7
15415.4
11235.9
13194.3
11192.5
8401.44
3629.11
13894.1
23568.2
14021.4
13449.9
19622.2
9130
3854.67
8568.6
16704.8
-7148.76
891.471
13397.3
2033.98
10751.9
-53520
-44630.7
93567.5
44086
-35152.8
101570
90475.2
116479
-39539.8
28947.2
83372.3
28133.2
-21127.9
92482.4
87657.5
106638
124937
105354
108195
105999
116759
116969
112965
106187
80942.7
76478
105649
90004.2
58354.7
92855.6
88852.5
94513.5
-21754.6
96507.9
15470.6
48055.7
120233
104120
8.58863
113483
112310
82917.3
109550
137062
122321
98857.6
118834
108461
111040
99370.5
79727.4
114085
92942.8
148538
104135
98159.3
131729
115155
99816.7
103424
125926
119240
120632
103094
-11923.9
-37176.4
433.204
37854.5
34575.7
-39017.1
59688.4
20150.1
18918
101872
108388
73386.4
119385
90954.3
130201
113207
25494.1
71541.8
48451.1
26531.3
61585.9
86004.8
45587.9
76538.1
17475
11384.6
-1993.05
18831.4
-2774.2
10960.5
-7680.87
-2571.04
80418.9
26503.6
4112.46
37933.1
105411
33654.3
35108.3
18727.4
8894.12
65810.3
94111
38030.5
88023.4
119362
23107.6
97634.6
32986
7282.11
33073.4
28477.2
13497.5
13688.4
34957
29796.6
50715.4
31616.3
30531
91050.9
66334.6
49321.1
84553.9
46073.4
8158.02
8787.75
8271.96
5291.23
9015.75
10041.9
8692.72
9294.09
832.66
-3562.24
935.249
248.888
1571.38
-126.019
2776.23
782.441
7837.2
3910.77
7285.22
3600.81
6879.73
6694.13
6338.41
6482.72
2644.19
1817.83
1651.95
2543.84
3368.54
2492.74
3410.87
2911.66
7656.56
8343
3657.19
1679.24
7280.54
8821.01
2207.77
3987.17
5032.72
1975.72
3560.3
7487.79
5923.47
3988.72
6475.61
5377.59
6197.01
3591.5
1913.93
3467.25
3313.71
2598.3
3371.14
1791.06
7621.22
1889.39
1577.87
3447.05
6306.87
3025.97
4619.31
1786.71
92830.1
85672.3
63180.9
48696.6
80270.1
83294.5
70163.5
65109.5
89057.2
91207
76498.8
68598.7
83622.3
84399.3
69385.8
76881.5
75953.1
74723.5
60881.3
59804.5
118567
88665.9
108189
87528.9
23982.3
47097
45249.6
11110.3
14515.1
36656.6
14353.1
32208.4
90085.4
74817.9
38703.3
71771
83552
64617.2
53802.9
61702.2
93794
75119.3
99218.9
89275.5
97116.1
79020.3
80256.8
92040.9
73978.2
30057.3
71095.6
69898.2
55737.9
43620.3
70634.6
41062.2
95579.1
73101.1
73212.2
90510.2
83341.5
78230.6
76218.7
77311.5
86844.4
30090.6
47535.3
13423.6
23475.5
46404.1
3858.2
53247.3
2545.62
-9780.44
-16859.1
10921.1
5057.1
-15223.4
34159.7
8198.57
10853.8
-46051.7
-231855
42805.3
37667.9
-29853.6
72845.5
19907.7
18670.8
-16299
25871.4
7178.45
-10645.4
-16996.3
-16586.2
-9302.59
19541
50999.2
13399.4
10458.1
28061.6
67493
18290.9
6766.93
15978.3
20229.8
-22922.4
34875.2
29396.4
43036.5
5889.32
12431.4
18413.2
29471.7
382.098
24788.8
22914.3
16447.8
38217.7
16629.5
30660.6
33846.5
12760.6
6642.77
14433.2
47695.3
41924.3
20484.1
143787
99005.1
110082
107745
115687
111282
108189
102847
88992.9
54671.7
31464.5
70794.9
135012
90054.5
98651.1
55000.4
123794
17704.3
1433.06
75860.9
156130
118484
128992
46806.7
112531
109758
99225.5
107147
117767
117248
115659
99383.7
85294.9
109287
98609
110443
94224.1
105090
98845.9
100442
87896.6
107554
105299
111245
86905.4
104638
103300
134094
112116
100533
122620
116952
111418
97465
122415
126259
101918
77017.6
115978
62756.1
110369
117062
109373
89400.3
66989
88064.3
54889.9
45633.8
80013.4
90383.7
40475
51752.9
55765.3
33490.7
50012.3
31622.8
46148.7
43263.4
42099.2
41388.7
34297.5
27503.9
24490.7
12516.4
36596.9
30764.4
38452.3
32838.7
45779.3
35963.5
-4856.34
12123.7
17985.7
20673.5
6601.77
10415.7
52780
42659
45680.3
24959.3
59502.7
46720.5
54705.2
49264.8
50975.2
23811.9
37049.1
36171
54634.6
31385.3
50872.1
39346.3
43894.5
36708.4
36419.7
22012.1
42814.8
37602.8
26568.1
31317.4
42126.5
22023.3
34589
28199.8
32423.7
24442.1
24062.8
34807.7
177972
25317.9
56524.4
7368.14
77745
31511.7
93460.7
62284.3
45070.6
81888.7
51820.4
32742.1
68885.2
83332.7
43307.5
59117.2
40746
30381.1
5197.92
-11535.7
58560.9
27913.6
53582.4
55657.9
-4089.05
4297.1
-4402.84
-773.29
-2001.91
-657.319
-1445.87
-3095.72
54680.6
59945.1
5236.69
11997.4
39577.8
63961.6
16010.3
8449.08
52327.8
14479.3
62839.2
40103
54457.1
45901.7
49873
60006.8
68969.8
5957.09
4883.66
7343.94
16249.1
3414.69
7969.56
742.896
47785.9
8617.15
17194.5
57819
46555.1
-3234.57
39644.2
-3439.27
139461
96332.9
100250
103175
115618
101414
118147
98634.2
81666.1
104772
118626
56348.2
66466.1
75895.9
71478.9
50826
102004
131051
136432
81371.7
104500
113931
90118.9
97355.9
71463.2
64218.2
72041
68032.9
65816.4
70008.1
66607.2
61907.5
86394.6
98443.3
85284.9
72182.4
83425
95662.5
79646.5
83849.9
84647.1
75873.8
102154
97151
79542.9
96576.7
94366.8
77785.7
101401
77162.6
66008.2
86680.1
94383.2
84196
90625
98177.1
93374
73512.4
72406.6
81326.8
109096
78375
80012.4
85739.4
-44481.6
1575.9
-5728.49
7738.72
-15557.8
-3002.5
8541.69
-764.497
11326.4
21939.3
12040.9
23951.9
8538.1
15312.2
12832.1
13609.3
-6994.19
9564.65
9404.62
22217.2
4291.47
7307.42
4144.15
13139
11899.7
34170.2
15689
1713.21
21267.9
30444.7
26538.8
26034
-3825.11
-143.74
8228.65
18966.5
7540.82
5140.94
12159.7
4176.53
3507.24
16442.7
9471.67
-774.104
4509.96
10202.7
6948.25
1779.78
960.786
3764.93
7915.61
7572.61
3238.29
10038.1
4795.72
7107.71
4146.78
18300.2
16300.4
15908.3
3638.14
18500.8
5349.03
18904.9
105717
115014
115428
78402.4
101862
119118
108892
126449
137638
141608
123428
118248
118761
164279
118397
116312
112428
125894
136220
96311.4
109430
109323
94840.6
124161
104118
107261
103987
94963.7
110498
113123
101369
111384
109487
117792
107692
116015
111312
115584
109425
117489
130407
120446
132898
123298
121864
124280
122309
129882
117274
105510
113818
101194
114754
121922
110262
117183
118077
108399
119030
132487
120599
118509
122970
126639
67778.9
75165.1
96773
83934.9
113000
109205
86967.4
84928.6
83233.5
92529.3
109714
76789.4
85025.9
90179.7
77226.6
78171.5
116586
100296
102754
77057.9
117336
111809
94502.9
101843
54042.9
57311.8
53948
38684.2
55901.5
56884.2
45659.3
49821.5
98605.3
92284.1
71256.5
77847.6
90354.2
92924.7
85559.3
94256.4
98806.4
87965.4
103827
100706
93251.8
89050.9
87391.3
85805.1
104452
65393.4
70840.4
84384.8
81884.5
71687.2
78199.3
66776.1
112229
86327.7
73838.2
90106.2
97947.6
79370.2
85309.1
75330.1
65818.7
47271.7
96524.3
61296.1
80943.1
84836.6
74604
80822
13852
19952.3
10192.3
16312.7
18817.6
20357.5
16861.1
21516.2
118907
64355.3
130659
112338
86136.7
73935.2
107051
110390
43939.3
18372.2
78699.4
64724.6
59789.8
47694.7
52247.2
54903.3
41054.4
93305.1
54204
18655
28257.8
52982.1
14339.3
52430
40782.2
15751.6
31282.1
93852.7
31906.6
9997.19
43337.4
40282
77656.2
34068.3
18908.5
61220.7
69995.8
37416.1
57964.8
36678.5
88649.2
68034.3
19884.1
32555.1
57867.8
45764.2
30418.7
23945.9
18311.5
17635.4
28819.1
23280.6
2005.42
19431.9
3632.68
23297.7
22234.5
6529.98
-3933.67
11260.6
15858
5987.49
26285.4
7986.39
37193.7
41815.2
48656.5
37765.7
40065.4
37105.2
43241.7
26920.8
26021.4
20018.4
36819.3
24930.4
17286.9
19055.6
21224.1
20688.6
11185.2
27550.1
16279.6
10831.3
12393.3
15651.4
13712.6
23893.1
25046.8
23141.9
11092.9
36914.2
23433.9
19885.9
37327.9
32830.5
24620.4
19780.8
10820.4
28530.5
38409.7
23787.8
30271
17324
35319.9
38579
19473.8
38828.6
39920.2
41678.5
38786.4
19539.8
3275.11
-77307.5
245569
28443.1
7732.76
140487
-245487
58948.9
4029.1
287120
187633
41007.9
-150636
158135
619.388
-148136
298879
171295
349529
67658.8
139708
240637
135454
199839
4114.98
-9936.06
-29133.5
-22493.2
-16346.8
-37547.2
-32951.2
-29356.2
-116591
54768.3
39975.4
34929.2
13397.4
-88244.4
7850.95
11120.4
304436
-39028
175866
258887
-93806.2
-79502.6
185902
27118.7
61860
-15059.5
-30739.8
-22339.8
32382.6
-13848.9
-4409.19
-30480.2
162406
16834
7680.08
86247.5
99531.5
-7942.66
94243.1
11966.9
408.106
-2641.41
-2324.34
-1405.49
-4435.18
-488.673
-4461.11
-2840.8
2474.95
5439.5
2906.16
1896.17
3677.34
7499.02
-1519.15
4608.52
-2216.93
-4346.25
-1906.26
-204.517
-1408.09
-2410.31
-1212.64
-1440.75
1077.11
3486.85
1667.51
651.319
-94.8171
-423.486
3407.24
1356.39
-4290.32
-2391.37
-1726.56
-937.39
-4525.24
-3021.03
-2729.94
-2489.75
2851.19
1177.5
6388.15
-2296.2
-1839.46
2061.71
-2484.75
-1864.7
-2327.41
-356.512
2171.84
1227.57
-2230.76
-1595.12
-1633.78
-1746.03
-2276.73
-212.282
2371.08
-1160.7
-1355.78
-1630.62
-3369.49
57.9923
-48997.2
-245388
-80207.1
497717
-388240
-425413
-530745
-963362
-1.33791e+06
336704
-1.38745e+06
-3.19103e+06
2.28962e+06
440686
-28937.8
-2.86455e+06
-1.29978e+06
-3.91045e+06
-6.5795e+06
-1.70983e+07
6.12721e+06
2.54717e+06
-1.54349e+06
-7.10648e+06
678257
-7.85981e+06
-2.47359e+07
-6.87586e+06
3.59935e+06
1.8409e+06
2.0991e+06
-9.68598e+06
801869
-1.42235e+06
-1.17594e+06
3.44427e+06
-576985
-1.69263e+06
1.19896e+06
-147315
278804
1.11946e+06
1.31088e+06
-88887.2
-68900.3
-16093.2
-1.0036e+06
3.41874e+06
390097
-330916
-1.25571e+06
-3.78793e+06
1.02106e+06
157882
8.25977e+06
-249446
981961
-1.52912e+07
-7.08131e+06
-4.90096e+06
-1.27198e+06
-360867
-516397
-1.11561e+07
-464817
321314
96703
35800.2
1.0283e+06
588453
93213.5
211030
591153
1.20252e+06
659521
441719
-382806
885593
528283
-454788
904004
271918
143365
372137
675298
265829
861717
636018
124393
283739
354154
294934
-4086.39
497752
275953
71176
934163
373028
387320
476298
452307
800951
74035.7
397199
961983
652672
489652
380158
45457.7
1.55808e+06
384864
-8851.33
156903
276797
344879
377744
75845.4
-19318
120348
597369
393623
52670.8
34870.7
275149
1.23867e+06
375346
758863
349668
-12727.5
88012.5
68865.6
66853.2
67905.4
71797.9
67992.2
63107.3
86236.9
38676.7
56567.8
61348.4
97705.2
84534.9
90037.5
74211.5
78916.3
104207
117561
151270
120920
115640
109407
148919
82616.6
80373.3
139796
110468
100746
102584
107064
112296
93768
90071.4
98030.8
89627.1
98925.5
97417
85089.1
103902
95725.5
91318.9
107138
95073.9
97955.4
95293.1
105064
111292
78229.1
93767.4
89885.1
124352
84279.9
85461.2
125330
97726.1
89702.4
148955
83447.9
103266
125610
123312
112217
105266
4828.68
-66741.5
-11611
32558.6
50073.6
-17419
106566
52250.5
-52430.4
-14635
22527
2543.41
34545
-16462.5
72905.8
25309.2
23891.3
5036.16
17315.5
11553.7
29296.2
14033.9
36113.1
19589.6
11747.1
3350.06
-1470.3
13314.2
4026.23
9462.22
7425.08
5325.41
45763.1
36995.6
42929.8
27606.8
90177.1
47174.9
23727.2
38510.5
-12726.9
26538.6
19010
10112.4
47018.4
51972
-12189.6
44970.2
55711.6
45058.7
34291.3
14089.8
25686.4
35860.8
31239
23853.7
36001.4
14011
12464.3
34719.6
41547.3
24882.7
57865.5
14013.8
28322.3
78659.5
25979.8
133081
110850
74954.2
102640
71071.2
103095
166800
194511
135449
142421
135944
144344
167798
50889
164708
81004.7
147704
192968
152563
188247
158787
154773
152241
108210
113630
195733
173112
174539
143092
138252
126034
145966
150129
137927
161415
141331
144681
118744
147484
154973
101014
116607
176917
115417
174842
144643
152949
158556
178723
156480
163828
198628
161811
132097
151858
140963
184691
218647
182440
175605
141179
23911.6
68554.1
15734.3
46382.4
33179.9
68140.4
44437.3
15143.9
94240.2
118116
86278.7
77402.1
61158.2
106948
72755.2
45522.9
15817.7
50707.6
812.318
20117.8
27126.2
30721.6
33229.8
8996.61
35802.4
50518
27721.8
25575.2
38144.3
46510.5
37141
29651.3
43195
21713.5
44692.8
74680.8
56851.2
45551.3
44272.2
25519
92847
56785.9
63551.2
47343.2
20329.2
79640.1
56501.2
43165.1
33704.8
48798.1
57817.8
36587.2
46038.1
48286.7
54789.9
41780.6
3272.3
27395
58751.8
32476.3
55105.5
41855
57822.9
50108.8
17706
30318.8
15100.2
26685.4
20598.7
22354.4
25030.7
23343.6
46444.2
35894.3
12838.4
69581.5
58537.5
36536.9
58722.3
44922.3
7168.94
-27823.7
-51632
14778.9
13378.3
-12849
-421.021
-5612
42675.3
64879.8
45281.2
54095.2
42769.6
54710.5
53400.4
54924.9
41840
22333.7
31681.5
49790.4
44189.6
38828.7
46111.5
43478.9
42423.5
59610.4
21925.2
19446.1
41800.3
46720.1
30920.1
27967.1
20211.3
32671.9
56748
38812.4
17190.6
46205.2
45950.4
43358.9
29650.4
46858.7
69061.2
26755.4
23698.2
38982.8
31301.4
47237.3
52283.8
51658.7
20279.3
17854.7
51461.6
2603.61
30418.3
-11559.7
23857.6
18457.1
18055.9
5717.99
10939.9
11268.3
6777.37
1701.6
17988
11809.1
5403.23
12613.7
11878
23172.3
16067.7
19627.1
9529.56
6185.44
9424.96
7220.01
8128.77
9926.82
10060
7892.19
65535.4
24711.2
12951
11674.7
8754.64
-11499.2
11982.5
17879.8
4271.32
7711.44
16284.1
19722.9
-2862.65
-673.64
11133.5
6752.37
20997.9
17073.1
11556.7
14378.7
13513.8
11808.8
13727.3
10283.3
9694.3
11750.5
7146.82
8219.44
12531.4
14927.4
13246.4
9086.68
107771
105313
88454.6
56950.8
102211
99202.7
86223.5
79247
101247
155228
109699
108767
109716
117681
112329
133568
91797
68159.8
85984.8
79868.7
94721.3
84087.9
87899.3
69048.7
80864.4
106313
103702
91627.3
111354
107136
91321.1
87285.7
110461
94891.3
93147.8
133392
103657
111230
116434
104947
103372
107237
95779.8
97442.1
100024
99523.9
103445
96483.4
89210.4
90562.6
111839
95411
99323.9
95424.9
105273
107110
96865.3
89312.9
92093.1
83290.7
97957.4
102663
96258.2
88830.6
-351.892
515.197
-626.635
-258.653
201.096
500.99
-543.515
-401.757
5029.02
8274.65
8851.95
2738.89
7312.99
8718.17
4012.79
7630.58
9363.76
15077
16570.6
6159.82
4818.77
12103.7
6801.91
9407.68
8.38976
2779.2
-990.814
-2372.54
-2026.38
3036.36
-1661.83
2114.22
783.921
825.927
46.8596
1624.14
1071.76
1204.17
976.354
1899.9
4247.66
3918.73
14925.2
5537.08
5138.1
4717.86
5687
5931.64
1369.05
-113.533
1620.23
956.542
963.993
2409.85
2012.4
2686.84
7234.7
2707.4
4413.41
14119.4
7573.87
7415.25
4801.8
4618.71
6242.73
24596.7
29751.3
36487.5
6939.08
16584.5
19674.9
25470.1
36175.4
10667.9
17111.8
40865.5
16531.6
9855.01
19128.3
27282.6
34710.8
41060.6
41008.9
56748.5
53081.4
32093.8
62820.1
45223
10577
33770.7
53785.1
40125.8
36407.6
28952.4
40608.1
35377.9
33575.8
35327.7
22741.2
48419.7
21420.7
28619.2
29361.7
21196.9
33790.5
47226.3
5267.1
32972.9
27769.5
38807.8
36667.7
34984.6
41624.5
50642.9
28744.7
48505.8
64740.9
53257.1
40429.5
37311.4
42187.6
32144
41975.8
56237.9
64159.8
43781.1
61095.8
54762.3
9200.65
2515.03
4495.92
7517.77
8845.16
7060.77
7973.28
7252.18
318.384
-300.346
-926.922
2243.09
2522.75
-40.2789
2792.15
595.873
-3533.26
3712.72
10188.6
5554.49
1792.64
1927.63
2389.6
3245.46
8600.45
675.577
13947
9141.35
10891
4108.84
9258.85
5948.44
5121.56
-2430.38
10137
2623.61
3015.1
2811.82
4344.9
5871.78
1400.18
1284.88
844.659
-892.678
871.003
965.413
970.754
850.237
-2828.67
10056.3
2036.88
2402.66
1665.16
4895
5084.19
1371.78
-179.058
1019.23
1867.23
1105.44
1121.25
161.694
584.586
-764.32
211210
132148
154738
82841.6
134144
154381
106724
112216
29762.3
116362
83250.5
54580.7
-11641.3
78513.1
-44146.8
32654.6
5132.75
-43889.7
-37458.3
19713.1
-10552.9
-31712.4
-5464.82
-41086.8
28827.9
33959
21674.7
23304.1
21129.8
18012.1
18453.1
19046
63453.4
71569.2
23819.8
23297.5
28640.2
59185.1
49617.9
13850
64240.2
6237.98
-12542.1
39728.3
49065.2
12029
8083.78
-1811.91
59831.5
8519.4
15418.1
11254.7
26664.5
4337.61
15135.3
24968.4
23540.6
20254.8
14611.7
2438.7
-6275.24
19659.2
-1878.54
12921.2
27637.2
71335.7
35343.1
-47350.2
48811.4
5150.03
250123
26808.2
124085
423727
117683
61381.3
74620.9
176272
36970.9
79879.6
70847.7
64072.8
31736.9
14391.9
17903.2
43717.4
13801.5
8083.91
-71070
8092.07
11176.1
-20029.3
3436.96
14923.2
-8441.45
16373.8
60008.6
20658.9
-1502.44
13989.7
-129.735
-39304.7
3575.91
33274.7
93329.8
-7270.44
67009.1
42302
49283.3
31822.9
60308
44993.2
112020
23397.3
14659.6
8046.87
19374.4
22506.4
28257.9
22320.6
37070.3
36628.3
7596.25
36606.5
27423.2
32547.1
12766.1
4529.8
28263.3
18718.3
29795.2
6107.21
28718.8
30667.1
30789.1
28175.9
13902.7
9098.77
11735.7
10079.5
10921.6
12241.6
10025.1
10479.3
19721.5
21456.1
14324.5
6542.88
19490.5
24500.4
12653.8
17638.5
19052.8
13496.7
18384.2
9792.98
14028.4
13171.5
9232.11
10487
10376
9862.1
7823.55
9151.42
4557.59
4895.55
10966.7
7024.91
13494
8860.73
13717.6
19005.4
8845.96
9673.89
7257.73
12976.6
5206.76
8039.81
9475.89
2553.4
7976.73
5632.77
-1939.96
7725.33
13839.3
-200.871
8719.9
11185.3
6799.96
3923.93
9868.32
9906.35
149802
89346.7
22921.9
67483.3
30317.5
36183.4
-33883.6
66099.3
33765.5
21365
17226
2677.79
15738.2
14828.8
8633.46
18946.2
97375.1
48353.5
91393.1
37391.5
107823
80354.9
89597.1
118272
-4219.64
3164.16
-21844.6
-18608.6
-8313.74
-3797.15
-13270.3
-18761.6
40082.9
96928.4
7547.95
11278.8
936.542
9902.58
23366.6
-576.363
15301.2
1796.81
22517.2
35163.5
19818.8
7107.88
51718.9
27266.1
70140.7
22189
2850.28
-14317
16206
3725.58
-6334.68
-11568.1
66420.1
10830.5
-447.084
31207.5
32322.9
6651.83
25637.8
-2404.46
11462.8
82762.5
58109.9
18427.1
21334.4
92031.4
34694
89369.9
76560
65459.2
73974
50433.9
57196.1
70781.7
55196.4
61340
70981.5
69343.9
70332.4
49020.8
62001.4
72347
60359
63931.4
19019.4
18850.1
20995.9
11511.5
17835.4
21878.5
16474.4
15441.2
58192.5
43215.8
28417.9
43439.6
47960.8
29240.2
43461.2
49451.2
73027.2
60965.7
74732.4
87706.1
60826
61938.2
76477.9
60655
50929.9
33144.9
40679.5
38057.1
26592
41026.5
42162.9
19365.6
78242.8
43096.7
47741.8
73900.4
53967
61616.9
54861.2
55920.5
-5507.42
6197.65
20808.4
13129.3
3324.5
17083.4
10970.9
19153.5
14465
14049.2
25291.7
11561.3
6906.5
12021.8
10898.4
11352.8
51382
36862.3
57677
31762.8
25539.2
43154.1
27651.1
39624.4
15358.7
10658
8677.95
9834.93
9286.74
7219.51
8902.76
9047.94
23128.8
21694.1
13609.8
12340.5
17617.1
12764.6
6697.51
16013
13241.1
9607.19
20682.8
37339.3
14076.3
10533.6
10978.8
23426.4
23742.3
18184.9
12841.1
16428
18428.1
15113.7
17579.8
4860.95
35471.4
22011.2
10014.2
25613
10885.7
21036.9
22976.9
13437.8
13068.6
15182.2
9994.86
16583.2
12038.7
13096.2
16851.7
16990.7
29461.3
95974.6
16084.8
51473.2
42902
37462.7
29836.2
34643.6
11960.1
12824.1
10663.1
12198.1
11212.5
13156.7
8860.73
12358.1
16578.8
22482.7
16197.7
8189.14
20314.9
15107.8
20077.2
15897.9
18766.3
12489.1
16040.1
29047.3
15582.8
17743.8
21062
19228.7
12137.2
21903
17380.8
13316.8
14917.4
14754
15056.7
17984.5
12288.4
15975.6
19633.3
11847.9
15093.8
15909.1
15995
12687.9
14705.4
15149.9
17804.5
16064.1
15113
15742.1
17244.2
14824.9
-23311.9
-35412.9
-6100.92
1763.9
-3522.99
-20674
-5172.09
-6228.58
-4295.99
3494.19
-11042.9
9430.28
7609.72
-9073.32
897.919
3753.9
-1459.93
-3601.69
-3231.12
-636.752
499.166
-186.263
-2372.84
-1574.16
7913.01
10528.5
3846.41
8974.72
10632.1
6597.23
7582.71
6571.09
-10296.3
1232.53
6262.91
10467.8
-3890.77
-2709.09
5243.52
2717.81
-19138.7
5488.19
-7201.28
-7278.71
-3947.69
2289.43
-5042.83
453.977
-1293.76
6175.14
8212.77
3452.82
1678.45
3892.41
5276.3
6345.46
-1997.98
3894.07
6224
-1186.19
330.478
3994.41
-38.5017
6517.31
40209.3
75053.8
52213.4
55696.3
58017.7
55914.1
52937.7
53394.8
88126.9
100146
71069.5
97747.3
90459.2
80292.3
78488.2
92530.3
49975
52762.5
47032.7
52496.3
57970
50094.9
38686.3
39479.2
69623.2
82082.9
74825.4
75619.3
67705.2
78172.4
75351.7
84093
81206.6
56493.9
65587.9
80697.3
65852.6
61910.5
74415.2
83623.6
76741.2
81889.6
60759.5
55366.9
63240
68511.4
63072.1
57647.1
46338.5
73931.5
88021.4
51489
63380.9
74253.1
64976.2
76660.1
53906.4
65037.2
99332.6
56580.5
55782.7
59396.6
61454.5
65551.7
78224.4
113126
125003
105011
93231.5
107379
117406
114094
117061
131327
143546
124812
119885
118119
128107
110148
156878
157536
150364
151098
172604
183922
177587
189751
107616
101741
107384
80064.7
109220
107799
94777.4
104750
106441
142958
112257
112067
120336
125349
117346
123546
104893
127938
161176
139084
101726
127266
126497
141127
142840
117161
112555
134083
119362
117170
133615
122596
141590
133543
110667
144395
157442
142383
153136
130540
6762.43
2261.15
2766.66
517.79
4322.43
4119.33
3219.9
4278.52
1591.4
3864.25
1557.12
627.864
1789.93
2182.75
1042.26
1620.85
2213.42
38.3171
628.866
4141.77
2054.4
683.533
6791.47
5721.13
-1542.46
-1182.31
6103.17
-6172.51
-2226.6
-1494.7
664.027
-53.0502
925.362
2250.41
-895.415
-462.71
1246.83
2106.11
-1892.02
-213.911
932.376
-239.01
1062.43
2090.17
1483.55
506.299
1807.66
1081.31
2373.78
686.577
-455.158
2602.12
2282.71
889.855
309.213
-1911.42
2878.47
3392.83
-167.794
1028.41
1353.1
305.741
1068.73
-1232.46
-1503.93
1371.23
-1423.82
-2608.37
1646.34
1672.83
-361.529
752.106
1665.06
10540.2
828.058
7014.32
2361.04
3716.98
4722.97
9532.26
-1117.09
108.856
155.775
-358.85
6.84592
-832.53
149.427
843.754
-1926.67
10539.2
3678.33
10648.6
7489.63
7359.09
-1116.91
3408.89
1519.16
-3671.2
438.614
7184.37
3382.43
-1765.02
-874.028
-5169.57
772.773
8258.14
-1404.58
-3322.99
3983.77
-1143.93
-4959.68
-3406.32
-2512.27
3160.71
5221.42
1193.73
-8110.23
-480.625
2197.94
7009.63
-1595.99
2767.01
5012.65
1732.33
593.379
2707.56
2981.79
3034.86
-283936
-173833
-79979.3
29004.2
-63936.8
-431500
16569.1
-148613
-557820
-429406
-2.85382e+06
165490
24296.3
1.1754e+06
-622428
1.43017e+06
63404.4
1.12685e+06
272780
188434
-728873
-1.59712e+06
504700
1.05474e+06
-51122.5
76881
40770.8
30586.3
152917
19699.4
65153.6
-11622.5
-151103
-175632
-21239.5
539116
188437
206649
-141484
-41032.4
-935615
981283
1.42019e+06
-1.29964e+06
415001
-52941.3
-1.11886e+06
680034
-65622.9
69635.8
205151
142718
-32625.8
85225.7
153780
243325
-226932
180571
390961
2.54787e+06
612704
29637.2
573047
91294.7
187797
458041
337632
179888
350536
492117
-159040
-85815.1
1.00393e+06
1.24419e+06
601388
358860
-223127
514178
-242786
977898
-73356.5
82505.6
168744
36936.6
-211397
-29088.8
145826
218365
100817
199991
41242.6
48563.5
102569
-13962
9606.32
239886
165722
362322
-141699
77029.8
-49090.1
-137159
297885
-137473
1.10339e+06
-13130.1
379604
414797
-179211
148081
501921
2004.09