/*--------------------------------*- C++ -*----------------------------------*\
| =========                 |                                                 |
| \\      /  F ield         | OpenFOAM: The Open Source CFD Toolbox           |
|  \\    /   O peration     | Version:  2506                                  |
|   \\  /    A nd           | Website:  www.openfoam.com                      |
|    \\/     M anipulation  |                                                 |
\*---------------------------------------------------------------------------*/
FoamFile
{
    version     2.0;
    format      ascii;
    arch        "LSB;label=32;scalar=64";
    class       surfaceScalarField;
    location    "1900";
    object      phi;
}
// * * * * * * * * * * * * * * * * * * * * * * * * * * * * * * * * * * * * * //

dimensions      [0 3 -1 0 0 0 0];

oriented        oriented;

internalField   nonuniform List<scalar> 
105360
(
3.02567e-05
-2.04913e-05
-9.76037e-06
-4.64183e-06
-1.94907e-05
2.82137e-05
-4.05937e-06
-1.11189e-05
1.54462e-05
-4.28518e-06
5.80825e-06
2.42026e-05
-3.00288e-05
2.08662e-05
9.7855e-06
-3.96893e-07
3.39886e-05
-1.77582e-05
1.55955e-05
3.84721e-05
-0.000112264
-4.94408e-05
0.000104058
5.76541e-05
-8.46873e-05
0.00014453
-0.000135452
7.56101e-05
0.00015358
-7.28497e-05
-0.000133244
5.25235e-05
5.38828e-05
-7.44634e-05
0.000113349
-9.27497e-05
-6.8587e-05
-0.00017501
0.00013134
-0.000227381
7.41104e-05
-5.07837e-05
-7.0341e-05
-0.000124586
1.73769e-06
9.35178e-06
-1.09876e-05
-6.98199e-05
0.000116851
-6.85094e-05
2.14916e-05
1.99749e-05
-3.43453e-06
-1.64834e-05
-3.82864e-06
2.44523e-05
-2.06031e-05
-5.55997e-06
-3.10776e-05
3.84119e-05
-9.23493e-05
1.69861e-05
-3.49027e-05
-0.000107274
9.00098e-06
1.027e-05
-1.93206e-05
-3.12036e-05
7.58343e-08
2.00641e-05
1.10817e-05
-2.74141e-05
2.12715e-05
6.11178e-06
4.50295e-05
-1.63675e-05
-2.86641e-05
2.99065e-05
-1.46293e-05
-6.26186e-06
2.4876e-05
-2.61753e-05
3.03982e-05
2.78576e-05
-5.10437e-05
-3.36052e-05
6.51624e-05
1.39521e-05
1.73401e-06
-9.43876e-08
2.77994e-05
-3.63638e-06
7.97986e-09
1.17565e-06
-2.23851e-05
-5.0614e-05
7.185e-05
-2.81944e-05
4.56168e-06
-2.7403e-05
2.42276e-05
-2.1503e-05
2.72367e-05
3.05267e-05
-0.000107358
2.43198e-05
4.58952e-05
-0.000142741
6.64435e-05
-0.000194397
5.51074e-05
1.55228e-05
-7.71766e-06
-6.01701e-06
-7.89233e-05
-5.58301e-05
-0.000103368
-4.72915e-05
7.0052e-06
-8.42141e-05
-1.06197e-06
1.02862e-06
6.63729e-06
-4.08382e-05
-9.69671e-06
2.52945e-05
-4.01436e-06
8.53482e-06
-9.58056e-06
4.57044e-05
2.13091e-05
-5.5864e-06
2.70129e-06
6.73114e-05
-4.68654e-05
-8.18514e-05
-7.0584e-05
1.61188e-05
-9.36651e-05
3.30851e-06
3.781e-05
6.50358e-05
-3.02836e-05
-4.70964e-05
0.000171246
-0.000168751
-2.57358e-06
-0.000174332
8.32509e-05
9.10649e-05
-4.46039e-05
0.000116312
-0.000197965
0.000126249
7.95471e-05
6.23811e-05
-0.000141946
0.000187212
-1.59777e-05
-9.10349e-05
0.000103905
0.000189307
-0.000125744
5.36678e-05
4.335e-05
-0.00013343
9.00774e-05
-8.56385e-05
2.17311e-05
6.38909e-05
-2.08425e-05
-0.000158473
7.06964e-05
0.000108607
9.31045e-05
-0.000101654
8.5488e-06
0.000121429
-7.80846e-05
-4.42351e-05
8.00149e-05
7.33802e-05
-5.83725e-05
8.29484e-06
0.00014307
-7.56299e-05
-0.000183118
0.000115667
-0.000199047
-5.52583e-05
0.000120935
0.000133355
-8.58806e-05
0.000172027
-0.000200565
0.000114409
0.000135727
-5.36434e-05
0.000101689
-0.000183777
0.000265115
-4.48299e-05
-7.72243e-05
-4.85949e-05
0.000114658
0.000252744
-0.00016185
0.000118267
3.87511e-05
0.000108887
-0.00014764
-8.58525e-05
0.00010994
-2.40835e-05
-3.19244e-05
0.000141733
7.43272e-05
-0.000184132
0.000118099
2.85926e-05
-0.000146697
0.000108683
-6.99343e-05
-0.000106577
0.000129411
0.00020357
-0.000155403
6.50691e-05
-6.28352e-05
0.000146074
-6.46033e-05
0.00021345
-3.25469e-05
6.8924e-05
-6.55474e-06
1.97445e-05
9.23582e-05
-0.000112093
-8.80169e-05
-6.23446e-05
8.75237e-05
-9.89518e-05
-4.25966e-05
-7.26233e-05
-6.345e-05
7.60832e-05
9.21323e-05
-0.00010143
-0.000181666
-0.000105835
0.00012901
0.000145811
-4.47158e-05
0.000112332
-3.55589e-06
2.76199e-05
3.01977e-05
7.3159e-05
0.00010026
-7.83173e-05
-0.000127084
0.000246537
-0.000151995
0.00023501
-0.000132675
-0.000156795
0.000154643
7.19162e-05
0.000242285
-0.000172468
-7.15527e-05
0.00011191
-0.000167434
9.08341e-05
-6.34498e-05
0.000247276
0.000126188
0.000103303
8.53362e-05
2.56465e-05
2.75646e-05
-0.000259835
9.87349e-05
-0.000129546
0.000178503
0.000221028
-0.000159651
8.7021e-05
-4.80526e-05
-0.000125529
0.000339429
-0.000165862
0.000298829
-2.20568e-05
-0.000148623
-0.000128162
-0.000137108
-1.45799e-05
0.000298357
-0.00014668
-0.00012056
-8.54982e-06
-0.000141434
0.000270534
-0.000174312
0.000257038
-0.000130793
0.00027561
-0.000151099
-0.000165282
0.000301746
-2.67822e-05
-7.40431e-07
0.000217837
-0.00014976
-6.7347e-05
0.000158589
-0.000141964
-1.66387e-05
-0.000109851
0.000161266
-5.14137e-05
-4.44286e-05
0.000194714
-0.000150284
-3.86653e-05
0.00018731
-0.000149385
0.000156058
-3.61362e-05
-4.62067e-05
0.000189088
3.45139e-06
-0.00012478
0.00025552
-0.000134211
0.000196401
-0.000100555
-9.58555e-05
-0.00012884
0.000241791
-0.000112964
-8.34057e-05
-0.000143439
0.000226836
-8.41939e-05
0.000211373
-0.000123747
0.000218618
-0.000106424
-8.9778e-05
0.00021773
3.65563e-06
-6.69932e-05
-0.000158389
0.000221719
0.000201746
-4.21405e-05
-0.000159609
-0.000159597
-6.1966e-05
0.000221554
-4.66015e-05
-0.000154804
0.00020141
-4.52789e-05
0.000212679
-0.000163752
0.000210399
-5.39369e-05
-5.08017e-05
0.000216865
0.000224594
-8.87522e-05
-0.000157903
-0.000141267
-0.000119112
0.000245783
-7.76525e-05
0.000228883
-0.000159795
-1.01162e-05
-3.94844e-05
0.000205045
-0.000155446
0.000250816
6.60517e-05
-9.22842e-05
8.27633e-05
0.000217027
-0.000161098
0.000222133
0.000213743
-8.46635e-05
-4.39649e-05
0.000199195
6.37983e-05
0.000157665
-6.02044e-05
-0.000231222
0.000218303
-0.000106205
-6.67688e-06
0.000128134
0.000138445
-1.02402e-05
-9.28512e-05
0.000192
9.27287e-05
-0.000101866
0.000254908
-6.97043e-05
0.000231579
0.000213123
-5.02227e-05
-0.000221077
-6.41816e-05
0.000223276
-0.000149858
9.80021e-07
0.000241596
2.56866e-06
-0.000161754
-5.83481e-05
-8.34739e-06
-0.000207623
0.000148971
5.71056e-05
6.0289e-05
-0.000192391
-0.000205685
5.6714e-05
0.000103632
-0.000109847
1.80368e-05
-1.1816e-05
-9.99152e-05
7.55482e-05
5.15897e-05
-2.72214e-05
-7.48348e-05
6.51316e-05
-8.46167e-05
9.43196e-05
7.10818e-05
7.90669e-05
-0.000100786
-4.93609e-05
0.000118662
-4.29306e-06
-1.07307e-05
-1.58826e-05
3.463e-05
0.000163732
-9.69455e-05
7.30135e-05
5.20181e-05
-0.000102479
9.58099e-05
-4.53544e-05
-0.000104407
0.000183731
-7.93212e-05
-0.00013585
-0.000101029
0.000236879
0.000208012
-0.00010142
-0.000106596
0.000186512
-7.23548e-05
-6.21387e-05
-9.86924e-05
0.000180797
0.000234542
-9.8886e-05
4.20833e-05
-0.000133549
-7.75417e-05
0.000169004
-8.20802e-05
-0.000161233
0.000243313
-0.000182123
-6.63052e-05
0.000248431
0.00020617
-0.000164852
-4.13168e-05
0.000240125
-4.29864e-05
-0.000155055
-3.7406e-05
0.000195452
0.000219529
-5.63439e-05
4.53006e-05
0.000140965
-8.4017e-05
-0.00010225
-8.99667e-05
0.000215805
-0.000125838
-0.000152304
0.000201636
-4.93321e-05
0.000203676
-6.57297e-05
-0.000137945
0.000216632
-5.04582e-05
-0.000120873
-5.45245e-05
0.00018119
0.000206829
-5.36112e-05
-3.05031e-05
0.000141037
-3.49859e-05
-8.87678e-05
0.000180274
-2.63838e-05
0.00017821
-3.08146e-05
-6.83301e-05
-3.4342e-05
0.000212398
-8.0242e-05
-9.78149e-05
-8.88924e-05
-0.000131519
0.000189906
-0.000104649
-0.000100155
-6.57071e-05
-2.65942e-05
-5.05803e-05
8.91363e-05
0.000190647
-7.96694e-05
-0.000232729
-6.7578e-05
0.000199276
8.52779e-05
-2.40785e-05
0.000119072
3.22661e-05
0.000107057
0.000124027
4.18771e-05
0.000150457
-6.68253e-05
-0.00015043
0.00020148
-7.74408e-05
0.000188035
-7.78868e-05
-8.33852e-05
0.000218948
4.22522e-05
0.000207128
-4.77437e-05
-0.00011799
4.17783e-05
-7.42191e-05
4.34517e-05
-0.000141256
0.000225287
4.38523e-05
4.22754e-05
0.000139278
-0.000228812
-0.000190065
7.88624e-05
7.74966e-05
-0.000216775
0.00019652
-6.54793e-05
-0.000131044
-6.0097e-05
0.000117517
-5.74209e-05
-0.000110296
0.000178558
-6.82632e-05
2.72316e-06
0.000138256
-5.59831e-05
-8.49965e-05
0.000171789
0.00011003
-8.52983e-05
0.000111691
0.000182768
-7.00159e-05
0.000184162
2.16693e-05
-2.38098e-05
2.1491e-06
1.90841e-05
-3.86644e-05
1.95963e-05
-4.13161e-05
-3.26954e-05
7.40143e-05
1.03912e-05
-5.99478e-06
-8.6766e-06
4.28393e-06
-1.06802e-05
2.46868e-05
7.67988e-06
8.41131e-06
6.98284e-05
-3.47479e-05
3.6923e-05
0.000188951
-0.000120822
-6.81312e-05
-6.28409e-05
-9.65695e-05
0.000159413
-0.000118268
-6.64203e-05
0.000184686
-4.40995e-06
-0.000105837
-5.51141e-05
0.00016536
0.000180011
0.00012261
-0.000113668
0.000117171
0.000185282
-6.70824e-05
0.000184185
4.7806e-05
-7.8645e-06
-1.40047e-05
-2.59221e-05
-5.27056e-06
1.41222e-05
-3.0929e-05
2.21051e-05
-3.88454e-05
-6.66738e-06
-2.80996e-05
7.36202e-05
8.95239e-06
-2.52301e-07
-3.53139e-05
2.66354e-05
3.05338e-05
7.8413e-06
9.46323e-06
4.48739e-05
-1.95945e-05
3.67504e-05
-1.99378e-05
4.27834e-05
6.10921e-05
7.40151e-05
-1.75876e-05
-0.000113912
0.000170481
0.000121989
7.03536e-05
8.38179e-05
-1.59136e-05
1.64097e-05
-3.08365e-06
-1.09105e-05
-2.41001e-06
-5.79769e-05
-9.19318e-06
0.000128263
1.22741e-05
-5.27903e-06
1.24958e-05
7.73497e-05
5.0208e-05
4.33244e-06
-1.34027e-05
-0.000115926
8.32331e-05
6.13147e-05
0.000109166
9.8919e-05
7.95523e-05
6.8504e-05
0.000140868
9.34471e-05
6.56936e-09
0.000192601
-7.0619e-05
0.000137777
-6.18236e-05
-1.86814e-05
2.18959e-05
-0.000105732
0.000154694
-5.56253e-05
-9.62164e-05
0.000159007
-6.27806e-05
0.000118912
-8.06357e-05
0.000133912
0.000180946
-9.35287e-05
0.000142387
2.18723e-05
-1.33749e-05
-0.000159657
0.000146322
2.01377e-06
6.52645e-05
4.2397e-05
-9.45652e-07
6.33247e-05
8.55576e-05
-0.000127541
4.19653e-05
-7.64892e-05
4.19642e-05
3.4528e-05
6.60799e-05
-1.50629e-05
-5.1018e-05
-7.42437e-05
0.000118295
-0.000126604
8.25585e-05
2.99911e-05
7.04007e-06
4.85186e-05
-4.64991e-05
2.85151e-05
-9.5722e-05
4.80969e-05
8.92013e-06
-1.41272e-05
5.2129e-06
-0.000118306
-4.4829e-06
0.000122783
0.000138679
-0.000121674
-1.70043e-05
-2.29222e-05
-0.00013248
3.87743e-05
0.000116628
-1.29288e-05
-6.66472e-05
8.84946e-05
-0.000131237
-1.31411e-05
-7.64255e-05
-5.69912e-06
9.58098e-06
1.13266e-05
-2.08757e-05
-0.000117095
0.000145678
-2.85699e-05
0.000161476
-3.79553e-05
-0.000123508
-7.33263e-05
0.000139756
1.97033e-05
-8.61199e-05
-2.91496e-05
-7.93438e-05
0.000118097
-0.00014624
-4.24328e-05
-0.000110233
-2.71952e-05
0.000128081
-8.20586e-05
-0.000127395
8.13754e-05
-0.000122996
-7.18245e-05
0.000100071
9.47533e-05
9.42151e-05
-7.73635e-05
6.0855e-05
-7.7703e-05
-8.97707e-05
0.000130514
-0.000110018
6.9279e-05
4.30953e-05
1.23999e-05
7.25894e-05
-1.91309e-05
-6.07677e-05
1.18457e-05
-8.92153e-05
8.69322e-05
-1.34972e-05
2.2909e-05
3.25548e-05
3.50192e-05
-1.77651e-05
-3.23092e-05
4.41999e-05
1.541e-07
7.39521e-05
-7.0822e-05
2.34543e-05
-5.05528e-05
9.79254e-05
-5.4445e-05
1.54668e-05
2.54889e-05
2.86731e-05
-0.000138242
8.28938e-05
-6.53633e-05
8.78484e-06
-2.82408e-05
-8.0783e-05
2.14793e-05
-0.000143148
-1.5693e-05
-1.9979e-06
2.07009e-05
1.35823e-05
-8.3963e-05
-2.1023e-06
-6.45765e-05
7.87505e-05
5.40797e-06
-0.000116456
1.85565e-05
-0.000100457
-0.000125539
3.16569e-06
4.01772e-05
-1.80162e-05
-9.95178e-05
0.000119437
6.36219e-05
-0.000104303
7.26308e-05
0.000113676
-9.87411e-06
1.47461e-05
7.73229e-05
4.44233e-05
-0.000124493
4.68763e-05
1.79711e-05
-1.54394e-05
4.48749e-05
8.79754e-05
0.000112327
4.13714e-05
2.92072e-05
-8.86315e-05
-0.00102631
0.0021825
-0.00106755
0.00211363
-9.16372e-05
-0.000832755
-0.00118922
-0.000923176
-2.9525e-05
0.00183064
-0.000877925
-0.000985121
-9.37194e-05
-0.000528297
0.00160714
-0.001112
0.00167567
-0.00065229
0.00197554
-0.000973902
-0.0011317
0.00182225
-7.93331e-05
-1.39515e-05
0.00156427
-0.000634666
-0.000915622
0.000958423
-0.000368049
-0.00059036
-0.000442358
0.00133276
-0.000890393
-0.00059784
0.000869745
-0.000271908
-0.000661211
0.000950362
-0.000303099
0.00115522
-0.000858007
-0.000712866
0.00106539
4.20384e-06
-0.000689729
0.00140795
-0.000722414
0.00161133
-0.000621671
-0.000989657
-0.000736806
0.00160872
-0.000871916
-0.000857226
-0.00049784
0.00135507
-0.000900754
0.00144497
-0.000540011
0.00160576
-0.000895186
-0.000868957
0.0014567
-2.55212e-05
-0.000653307
-0.000363716
0.00104255
0.000739237
-0.000490314
-0.000248923
-0.000283305
-0.000610091
0.000893401
-0.000494686
-0.000182844
0.000677527
-0.000578112
0.000799752
-0.000247162
0.000748239
-0.000587112
-0.000464934
0.000770003
0.00129814
-0.000871825
-0.000517945
-0.000584941
-0.000883085
0.00143851
-0.000766101
0.0011246
-0.0004522
-3.2909e-05
-0.000571094
0.000853549
-0.000249545
0.00148277
0.000686213
-0.000870831
0.000818495
0.00120102
-0.000547713
0.00125342
0.00156286
-0.000870408
-0.000633134
0.000931782
0.000855043
0.00142317
-0.000945452
-0.00158456
0.00149938
-0.000797905
-5.49544e-06
0.000697521
0.00042676
-4.2696e-05
-0.000844336
0.00123911
0.000817995
-0.00083935
0.00145987
-0.000702051
0.00117335
0.000930938
-0.000567706
-0.000989035
-0.000652756
0.00103171
-0.000563285
-2.72537e-05
0.00140854
-1.19171e-05
-0.000331909
-0.00068438
-2.96945e-05
-0.0011506
0.000364076
0.0008015
0.000789375
-0.00135908
-0.0010456
0.000681527
-0.000117002
0.00116097
-0.00207813
0.00103417
0.00113443
-3.91239e-05
-0.00211221
0.00101691
-0.00213434
-5.25052e-05
0.00118105
0.00100581
0.000968907
-4.23666e-06
0.00114569
-0.00211036
0.00102743
0.00126245
-0.00240689
0.0011108
0.00105105
0.000954339
0.00127702
-6.92017e-05
9.8912e-05
0.000957506
-0.00194063
0.000884207
0.00126953
-0.00247478
0.00120525
-0.00204547
0.00108406
0.000961389
0.000494064
0.000829938
-0.00132403
0.0014143
0.000963063
-0.00227843
0.00144085
0.00124296
0.000604621
0.000852496
-3.09104e-05
-0.00168178
0.000937854
0.000774879
0.00073219
-0.00128425
0.000552074
-0.00100211
0.000607077
0.000395049
0.000463574
-0.00112141
0.000657822
0.00042559
0.000415685
-0.000872175
0.000644766
0.000513022
0.000357344
0.000521921
9.04495e-05
0.000356078
0.000207632
-0.000654163
-0.000133627
0.00018999
-5.64223e-05
-0.000149169
0.000149044
1.35111e-07
0.000114046
0.000343599
-0.000457639
0.000370836
0.000242087
-0.000522497
-1.15761e-05
0.000248771
0.000160745
0.000195386
0.00105549
0.00118871
-0.00228332
-0.00168062
0.000713428
0.000914717
0.000655232
0.000925778
-0.00158526
0.000196066
0.000417075
0.000995508
-0.00160863
0.00102035
-0.000663971
0.000699134
-0.000729477
0.000912651
-0.00138054
0.000838406
0.00099447
0.00115173
0.00047163
0.000775377
-0.000738031
0.00104889
0.000773201
-0.00097644
0.000866124
0.000823759
-0.000153867
0.00184748
0.00117026
-4.36917e-05
0.000914735
0.000388545
-0.000726997
0.000763918
0.000877822
0.000628166
0.00065369
0.000892688
0.000292789
-0.000754816
0.00040794
0.000495897
-0.00149695
5.98298e-05
0.00071012
-3.03848e-05
-0.00111108
0.000416048
-5.17341e-05
-0.000713477
0.00106816
-0.000235346
-0.000461737
-0.000462176
-0.000759173
-0.000308983
-4.45587e-05
-0.000157145
9.18594e-05
0.000142387
-5.43667e-05
-0.000188814
-0.000194918
-4.59939e-05
0.000156284
8.75954e-05
-9.8839e-06
-0.000147639
6.99211e-05
5.33162e-05
8.37353e-05
-0.000181609
9.87556e-05
4.43899e-05
0.000126942
-5.17752e-05
-4.4874e-05
0.000200864
-0.000240011
0.000235644
-0.000243344
-5.80292e-05
-0.000248065
0.000248044
-4.93139e-05
7.12533e-05
0.000169306
-0.000210756
-2.98034e-05
1.56302e-05
0.000161264
-0.000221766
0.000197662
1.66157e-05
0.0002159
-3.37882e-05
-6.37932e-05
-0.000247156
0.000233404
0.000269138
-0.000260203
-5.02523e-05
-0.00027681
0.000274871
-6.4365e-05
6.74835e-05
-0.000208142
0.000183905
-4.32496e-05
3.6778e-06
0.000184072
-0.000251548
0.000216471
4.70694e-06
0.000246847
-5.56315e-05
-2.97676e-06
4.91261e-05
-8.85894e-05
4.24174e-05
0.000107888
5.50627e-05
-0.000148462
-1.44964e-05
-0.000134973
4.25544e-05
0.000113007
-2.05933e-05
2.64684e-05
-5.01759e-05
2.46827e-05
-9.77043e-07
3.55031e-05
6.58097e-05
-0.000104298
9.38842e-05
4.95035e-05
2.30115e-05
6.92588e-05
-1.80777e-05
0.000133386
3.24086e-05
-0.000220166
-0.000215502
2.74896e-05
0.000142014
6.03917e-05
8.09196e-05
-0.000151205
2.29836e-05
4.52958e-05
0.000123246
-0.000191534
0.000187694
-8.42547e-05
2.99388e-05
-7.95842e-05
0.000118768
-0.000180049
9.95719e-05
0.000155386
7.44518e-05
0.000140149
-1.01433e-05
0.000210443
-0.000214465
0.000164514
-4.91165e-05
0.000234441
0.000241234
-5.42439e-05
0.000176846
-6.8137e-05
2.38387e-05
0.000186307
5.57698e-05
7.42719e-05
0.000141561
3.67363e-05
-0.000121081
2.22996e-05
0.000141328
-0.000170554
-2.49583e-05
0.000127364
-1.52171e-05
-0.000175847
2.98021e-05
-5.88048e-05
-0.00014373
-4.21128e-05
0.000215079
-3.81932e-05
-6.53847e-06
-4.32226e-05
-7.11078e-05
-0.000239248
-0.000185035
-6.89405e-05
-3.88962e-05
0.000193597
-0.000146742
-8.48009e-05
-3.91613e-05
0.000187098
-0.000128228
-0.000132029
0.000165798
-6.23298e-05
8.6453e-06
0.000105545
-3.11345e-05
-8.30455e-05
0.000203816
5.79003e-05
-6.81084e-05
0.000137466
0.000165571
-9.90218e-05
0.000171007
0.0002024
-4.7569e-06
-0.000136782
7.73162e-05
-0.000190145
-0.000194566
5.46307e-05
-7.79976e-05
2.46744e-05
-0.000157436
0.000116792
0.000213319
-0.000127709
0.000281047
0.000135284
4.44598e-08
0.000162992
-0.000135887
-4.41119e-05
1.15754e-05
-0.000161617
-0.000143949
-1.76757e-05
-1.74523e-05
-9.34743e-05
-3.67147e-05
0.000165557
0.000136114
-0.000138683
0.000171434
0.000154124
-3.5462e-05
5.89483e-05
-6.33553e-06
-1.75839e-05
-3.5027e-05
-2.344e-07
-5.77038e-05
-9.05268e-05
-3.68929e-05
-1.76629e-05
-3.40344e-05
-1.6238e-05
-2.23095e-05
-1.16221e-05
6.18552e-05
2.96011e-05
-3.25063e-05
0.000100684
-3.90704e-05
4.05072e-05
-2.71396e-05
0.000133342
0.000154878
-0.000101124
-0.000103871
0.00017804
9.16254e-05
0.000103444
2.86668e-05
-2.6558e-05
-0.00016768
0.000124995
0.000145396
-0.000102712
-4.78679e-05
3.68952e-05
0.000144314
1.92702e-05
-2.51979e-05
-0.000105576
9.75315e-05
0.000194545
-6.34944e-05
0.000213167
-0.000145209
0.000246712
9.22986e-06
0.000153375
0.000201314
0.000137556
0.000137866
0.000175994
0.000168652
-3.87708e-06
0.000163407
-6.7901e-05
9.60149e-05
-7.36775e-05
-1.8007e-05
0.000105701
-7.34934e-05
0.000103724
-4.78816e-05
-6.34723e-05
0.000118372
-5.87606e-05
0.000130077
-7.29994e-05
0.000117883
0.000180894
-0.000140957
0.000127332
-0.000135071
2.8081e-05
1.413e-05
5.00643e-06
4.77109e-05
0.000356123
-0.000228297
-0.000269799
-0.000239056
0.000366639
-0.000277867
-0.000287675
0.000435157
-0.000297246
0.000157739
0.000406344
-0.000293826
-0.000270262
0.000507542
0.000125693
-0.000277107
0.0001191
0.00059222
-0.000308795
0.000423641
0.000373299
-0.000245561
-0.000287344
-0.000253426
0.000365141
-0.000266514
-0.000274775
-0.000284408
0.000400788
0.000141526
-0.000235639
0.000363148
-0.000269032
0.000539191
0.000119873
-0.000285755
0.000122012
0.000536517
-0.000275122
0.00038375
0.000469166
-0.000295721
-0.000322073
-0.000282617
-0.000256228
0.000397408
-0.000314923
-0.000366666
0.000556054
0.000123167
-0.000247912
-0.000305409
0.000430146
0.000573051
0.000167281
-0.000271167
0.000159642
0.000661783
-0.000371331
0.000506501
0.000372374
0.00012045
-0.000250239
-0.000242599
-0.000233388
0.00011736
0.000370161
-0.000254137
-0.000228869
0.000105544
-0.00024235
0.000365662
0.000109685
-0.000243512
0.000394772
-0.000260954
0.000474287
0.000129076
-0.000230989
0.000119298
0.0001216
0.000482203
-0.000243453
0.000372627
0.000121602
0.000515262
-0.000270229
-0.00028955
0.00058102
0.000143681
0.00055501
0.000128323
-0.000276991
-0.000370508
0.000503969
0.000126371
-0.000259831
-0.000290947
-0.00015085
0.000563391
-0.000156856
-0.000268579
-0.000252778
0.000129574
0.000114253
0.000151029
0.000117299
-0.000564118
0.000119908
0.00029165
0.000131464
0.000398654
0.000278985
0.000274558
0.000409533
0.000119972
-0.000131547
0.000587801
-0.000312577
0.000530741
-0.000281982
-0.00026717
0.000510889
-0.000129299
0.00051533
-0.000280495
-0.000258145
0.000398974
-0.000272381
0.000402165
-0.000256595
0.000526273
0.000423543
-0.00012318
0.000390596
0.000254037
0.000374142
-0.000543202
0.000406876
-0.000132249
0.000284624
0.000270842
-0.000138606
0.00038627
0.000278937
-0.000307798
5.74508e-05
-0.000339146
0.00027392
4.11442e-05
9.67865e-05
0.000298525
-0.000320981
-6.75756e-05
0.00026703
-0.000248575
4.91103e-05
0.000248278
-1.37883e-05
4.44496e-05
-2.57987e-05
0.000240584
-0.000321953
0.000311573
0.000260524
-0.000302743
5.07546e-05
-0.000276307
6.97232e-05
0.000117835
-0.000344394
-7.18909e-05
-0.000316773
9.48245e-05
0.000229001
-3.74336e-05
6.89454e-05
-3.90128e-05
0.000229973
-0.00033931
0.000317299
0.000108096
-0.000323712
-0.000324239
0.000123095
0.000165296
-0.000359938
-0.000127784
0.000160823
-0.000338457
0.000205966
1.3408e-06
0.000109987
-5.15707e-09
0.000206041
-0.000332489
0.000232183
-7.48047e-05
-0.000229566
7.21751e-05
-0.000264225
-7.94856e-05
9.34483e-05
0.000123465
-9.49479e-05
-0.000270877
-7.80391e-05
-0.000235589
7.01014e-05
0.000156343
-9.31772e-06
8.51508e-05
-2.47107e-05
-8.31734e-05
0.000144699
-0.000232072
-3.52994e-05
0.000240699
6.85178e-05
9.67143e-05
0.000219585
-1.77753e-05
0.000209042
-4.26732e-06
6.22535e-05
-0.000282574
0.000217459
-2.63068e-05
9.14121e-05
-0.0003402
6.92374e-05
0.000235662
6.80862e-05
-0.000286748
7.34071e-05
-9.62006e-06
-3.44805e-05
-7.04869e-05
-2.88311e-05
-0.000224841
-2.08229e-05
0.000322679
-1.77664e-05
0.000308161
-0.000106988
-0.000101642
0.000302705
-2.37796e-05
8.21766e-05
0.000217741
-0.00031769
0.000178082
-0.000257164
-0.000295975
0.000190174
3.19721e-05
0.000144113
-0.000271047
9.87328e-05
0.00026463
-0.000281192
0.000267193
0.000111956
0.00018464
0.000308068
2.4439e-05
-0.000120644
-0.000210307
9.64073e-05
0.000321639
0.000305475
8.75503e-05
0.000464261
-0.000525111
0.000404452
-0.000672666
0.00032986
0.000342951
0.000439815
0.000628258
-0.000860456
-8.48882e-05
0.000331847
-0.00047043
0.000223473
0.000251912
-0.000134932
0.000347289
-0.000225367
0.00033743
-0.000557257
0.000551876
0.00104402
-0.00127433
0.000888114
-0.0015787
0.0012208
0.000964991
0.00142338
-0.00241318
0.00192771
-0.000431805
-0.00126958
0.000958801
0.000742569
0.000576135
-0.000412741
0.000880625
-0.000480635
0.000797504
-0.00164203
0.00174025
0.00193736
0.00121372
-0.00200537
-0.00310687
0.00175386
0.00253409
0.00225818
0.00325324
-0.00435044
-0.000997001
0.00163177
0.00208774
-0.00272251
0.00108177
-0.000582448
0.00143805
-0.000748065
0.00143633
-0.00301576
0.00294644
0.000376044
-0.000160743
-0.000546002
0.000330687
-0.000840425
-0.000223629
0.000617199
0.000446809
0.000711507
-0.000535652
0.000861247
-0.00103711
-0.000154086
0.000252761
-0.000320636
0.000221954
0.000291775
-0.000138414
0.000222669
-0.000226167
-0.000322487
0.000297409
-0.000589914
0.000782754
-0.000187067
0.000421831
9.50863e-05
0.000348421
0.000559525
-0.0002797
0.000238239
-0.000120053
0.000213666
-0.000340758
0.000416074
-0.000179831
0.000104503
-0.000794922
0.000115726
0.000492126
0.000105377
-0.000535176
0.000310157
-0.000191562
-0.0003566
-0.000497094
-0.000356419
-0.000903988
-0.000631359
0.00168997
-0.000476747
0.00100302
-0.000867487
-0.0011361
0.00153261
-0.000507477
0.000243663
0.000784614
-0.00130798
0.000358993
-0.000639796
-0.000915211
0.000511721
0.000251665
0.000743599
-0.00153094
0.000531527
0.000847671
-0.00113557
0.000698948
0.00053875
0.000560562
0.00152159
0.000494368
0.00188099
-0.00102721
0.00118248
-0.000969261
0.00209175
0.000743427
0.00221622
0.00179833
0.000739473
0.00151059
0.00141329
-0.000560538
-0.000987387
0.00114677
-0.000431282
-0.00102942
0.00232246
0.000427689
0.00110255
-0.000571448
0.00155543
0.000342091
-0.000484225
0.000264947
0.00251004
0.00174557
0.00102172
-0.000907954
-0.000362679
-0.000801169
0.000847001
-0.00022868
-0.000413948
-0.00115904
0.00120927
0.000133864
-0.000399107
0.000379585
-0.000114342
0.00119728
0.000149001
-0.000324578
0.000148953
0.00103318
-0.000750319
0.000768182
0.00306019
-0.00135885
-0.00197595
-0.000909725
0.00235737
-0.00188351
0.00411043
0.000783953
-0.00103407
0.00233785
0.00339603
0.000753423
-0.00108926
0.000767793
0.00448381
0.00336809
0.000689839
0.000258264
-0.000330918
-0.000443401
0.000168932
0.000525266
-0.000250799
-0.000393686
0.000345127
0.000909806
0.000103374
0.000291128
-0.000141738
0.000766591
0.000176991
-0.000253747
0.000128754
0.000194436
0.00106313
0.0007982
0.000230958
0.00134509
-0.000429271
-0.000840798
0.00260647
0.000556777
0.00120246
0.000248978
-0.000348914
-0.000644719
0.000664515
0.000147179
-0.000166981
-0.0011993
-0.000251053
0.00168133
-0.000294535
-0.000677773
-0.000218007
0.000230148
0.000187597
0.000145935
0.000119475
-0.00197514
0.000363899
0.00160516
0.000483362
0.00110596
0.00076297
0.000501579
0.00182042
0.00034686
-0.000500895
0.00314939
0.0016897
-0.000795185
0.00111129
-0.000427428
0.00265354
-0.000754397
0.00176407
0.00116544
-0.000564695
0.00190132
0.0022739
-0.000418684
0.00203814
0.000448487
0.000782278
-0.00225484
0.00170902
-0.000398882
0.00158352
0.00108375
-0.000324466
0.00120777
-1.81416e-05
1.19052e-05
-1.42118e-05
5.84982e-05
-0.000125038
9.47582e-05
-2.01899e-06
8.90233e-06
-3.69492e-05
-2.1113e-05
-7.50748e-05
6.5746e-05
3.04337e-05
-7.12984e-05
2.90778e-06
5.02736e-05
-1.31992e-05
-2.43498e-05
6.12121e-06
-3.95834e-05
-0.000223732
0.000107047
0.000220737
0.000149397
0.000270642
-0.000275511
0.000211111
9.99032e-05
-0.000197659
-0.000124446
0.000115159
0.000206759
-0.000197472
-0.000387437
-9.07742e-05
0.00025448
-0.000106698
-0.000314525
9.93153e-05
-0.00021011
3.75031e-05
-3.93844e-05
-1.74394e-05
-1.28607e-05
4.75982e-05
-1.46415e-05
-3.65577e-05
2.45882e-06
1.77398e-05
3.62992e-05
-5.1457e-05
-9.51778e-06
2.46602e-05
4.90292e-05
1.84068e-05
-2.98803e-05
2.99116e-05
6.78093e-05
-1.30869e-05
6.11661e-05
2.72302e-05
5.62556e-05
-4.17602e-05
-4.17789e-05
-2.17617e-05
-1.91643e-06
3.43243e-05
-1.06293e-05
-5.41437e-05
5.59538e-05
2.83263e-05
-3.01529e-05
5.56075e-05
-1.29061e-05
6.60002e-05
-0.000108685
4.75906e-05
4.40598e-06
-2.4761e-05
-7.31027e-06
3.31396e-05
0.000108858
-4.88517e-05
4.74227e-05
-4.8934e-05
-0.00022599
0.000149883
3.50646e-05
-3.77205e-05
1.15083e-05
-0.000149735
-1.83964e-05
9.30562e-05
0.000146642
-0.000274784
-4.26947e-05
0.000170842
5.11522e-05
7.86953e-05
-0.00017879
4.66334e-05
7.50783e-05
0.000150261
-2.80236e-05
-5.37816e-05
-0.000107531
-5.20954e-05
0.000218381
-4.6619e-05
-3.74225e-05
-2.972e-07
-0.000129033
-0.000103536
-0.000137247
-0.000113717
-3.25767e-05
-4.8441e-05
5.80782e-05
1.83493e-06
6.95075e-05
-3.16503e-05
-6.34836e-06
-3.83047e-05
-1.01318e-05
8.20038e-05
-1.59615e-05
-4.15369e-05
-1.57684e-05
8.79696e-06
-6.11842e-08
-2.67301e-05
6.41618e-07
1.83994e-05
-9.70309e-08
3.06106e-05
-6.73972e-05
-2.30054e-05
4.13215e-05
-4.02989e-05
-1.58795e-05
4.39618e-06
-1.53557e-05
1.31362e-05
-6.96288e-05
-0.000242357
0.000287234
-0.000111302
0.000297712
-0.000250557
-0.000115291
-0.00010665
-0.000227187
0.000278717
5.09146e-05
-0.000218288
0.000267964
-0.000100598
-0.000177585
5.32145e-05
-0.000117991
5.3043e-05
-0.000181427
0.000285553
-0.000235036
-0.000259381
0.000307689
-0.000116582
0.000319371
-0.000114211
-0.000112561
0.000277309
4.86971e-05
0.0002609
-0.000102843
-0.000194532
5.57058e-05
-0.00012056
5.4822e-05
-0.000196741
0.000301143
-0.000128645
-8.14273e-05
0.000181978
0.000141457
-6.06911e-05
-2.41777e-05
3.58483e-05
1.54039e-05
-4.99227e-05
0.000100267
-9.32175e-05
3.0281e-05
-6.5704e-05
2.83044e-05
-5.44003e-05
0.00010009
-2.01409e-05
8.96259e-06
2.60482e-05
-1.48924e-05
2.23846e-05
1.82686e-05
-6.27652e-06
4.42673e-05
-1.09459e-06
-8.49604e-05
-2.11602e-05
8.4417e-05
-7.614e-05
-2.9027e-05
2.05765e-05
-1.16741e-05
-1.14611e-05
4.82052e-06
-8.04515e-06
7.50061e-06
5.57234e-05
-0.000184613
-0.000121672
-0.000103342
-0.000172822
4.89766e-05
-0.000174178
4.99812e-05
-9.40914e-05
0.000216624
-0.000169532
4.64724e-05
-9.35674e-05
0.000288976
-4.89777e-05
-0.000184277
-4.94009e-05
0.000271126
-0.000103481
4.75468e-05
5.24569e-05
4.59775e-05
4.5391e-05
0.000173665
4.18203e-05
-0.000277793
4.93489e-05
-0.0002391
0.000107281
0.000108021
-0.000233292
4.83941e-05
-3.2271e-05
-0.000144897
0.000226145
-0.000157678
0.000216627
0.000215459
-0.000150716
-2.71088e-05
-7.5236e-05
0.000101242
-5.97719e-05
-0.000143695
0.000171195
-0.000169902
-5.03766e-05
-0.000120423
-0.000176976
-3.20984e-05
6.5521e-05
0.000131013
-3.30234e-05
-0.000209654
-0.000185536
-3.02463e-05
0.00033834
0.000330911
-0.000669187
0.000379695
0.000347045
-0.00072673
-4.83401e-05
0.000123093
0.000257069
-0.000331825
-0.000485286
0.000244541
0.000240872
-0.000296116
0.00063453
0.00051751
-0.000434012
-0.000238839
0.000388071
0.000230329
0.00030236
0.000412498
-0.000714808
0.000351568
0.000190307
-0.000541885
-3.47005e-05
7.14299e-05
0.000144167
-0.000180878
-0.00051878
0.000350404
0.000168401
-0.000334549
0.000636936
0.000362371
-0.000345342
-0.000221694
0.000339852
0.000105978
8.29682e-05
7.50888e-05
-9.4309e-05
-6.38372e-05
-8.68537e-05
3.88887e-05
0.000194049
-0.000146074
0.000121593
-5.94735e-05
-0.000162377
0.000100237
-0.000139812
5.06427e-05
0.000155154
-6.60841e-05
-3.84799e-05
5.87545e-05
6.25916e-05
-6.46542e-05
-6.06742e-05
1.37331e-07
-8.12029e-05
5.70748e-05
0.000236886
-0.00049095
0.000254122
0.000319644
-0.000531585
0.000211899
-2.65625e-05
-0.000312426
0.000184749
0.000154233
-0.000537427
0.000249988
0.000287452
-0.000306014
0.000542891
0.000556314
-0.000542711
-0.000290328
0.00029579
0.000239433
0.000684148
-0.000337111
-7.12237e-05
-0.000156688
0.000350973
-0.00032727
0.000571882
-0.00024743
-0.000342542
0.000589873
0.00029342
0.000612632
-0.000221925
0.000452493
0.000365181
0.000490373
0.000534892
-0.000459489
-0.00051718
0.000525015
0.000125173
0.000178279
-0.000232013
-0.000185942
0.000213607
-0.00018436
0.000249812
6.31549e-05
7.24835e-05
0.000209364
-0.000332152
0.000407047
0.000292529
-0.000158093
0.000216497
-0.000245119
0.000326046
0.000323981
-0.00026571
-0.000304711