/*--------------------------------*- C++ -*----------------------------------*\
| =========                 |                                                 |
| \\      /  F ield         | OpenFOAM: The Open Source CFD Toolbox           |
|  \\    /   O peration     | Version:  2506                                  |
|   \\  /    A nd           | Website:  www.openfoam.com                      |
|    \\/     M anipulation  |                                                 |
\*---------------------------------------------------------------------------*/
FoamFile
{
    version     2.0;
    format      ascii;
    arch        "LSB;label=32;scalar=64";
    class       volScalarField;
    location    "1200";
    object      p;
}
// * * * * * * * * * * * * * * * * * * * * * * * * * * * * * * * * * * * * * //

dimensions      [0 2 -2 0 0 0 0];

internalField   nonuniform List<scalar> 
48448
(
279.994
71.5562
99.9469
59.2556
272.733
185.338
284.279
103.338
232.14
412.164
232.416
380.277
283.942
345.031
283.598
326.656
122.156
-3.92225
82.0274
8.51357
86.654
44.9869
103.271
45.3208
212.129
370.272
95.1001
330.32
256.238
358.91
283.909
273.688
136.137
107.368
115.416
385.755
108.966
112.898
168.843
113.548
186.129
319.394
128.649
87.1914
122.013
180.111
66.4274
166.92
101.382
128.654
376.192
125.978
76.9158
95.2562
124.162
254.008
108.657
117.868
294.226
131.614
103.798
144.735
169.309
153.398
238.56
188.853
21.6693
92.6959
160.853
69.3008
-9.70543
13.2944
151.684
110.877
34.2806
10.2148
115.118
116.923
100.625
47.4522
18.9467
13.0849
15.1711
42.0369
9.76488
9.88867
3.99377
7.73118
216.113
62.636
102.044
274.976
193.082
116.721
150.949
108.842
141.008
45.7831
36.1587
49.8745
33.5488
31.4586
64.7887
25.0683
165.509
34.7202
-3.60501
31.5007
91.6777
54.7756
-0.258962
28.3721
28.9732
81.5473
-14.3687
46.1448
36.0164
31.3236
43.3316
20.1622
29.7529
40.5141
-19.7339
-12.9005
19.5413
19.9366
-7.45577
9.88815
62.3288
55.3013
-96.9542
-22.6091
37.42
49.054
-49.1509
-181.485
23.0662
18.8276
48.9839
58.892
30.958
-8.6604
107.808
48.7315
-2.16071
91.1063
-3.65955
39.5954
25.4191
14.9413
12.711
-0.511061
45.448
40.8689
68.7531
108.272
60.325
25.7337
54.9023
7.33091
22.1364
-2.2904
-12.1931
-60.313
30.0871
-5.55641
14.7003
-11.1835
-8.75613
-64.3604
43.9535
34.3227
22.5705
35.9962
78.15
57.9918
67.0689
-0.0639665
26.5035
81.8316
77.2083
1.76238
54.2399
35.2338
62.4135
46.4083
-47.8832
48.5406
66.1958
78.5462
53.9432
86.0556
9.57102
81.6526
0.456998
-70.4136
25.2239
87.5481
-64.9307
2.7472
41.7174
38.6371
38.1213
30.4137
2.64401
-14.8221
-1.52339
30.4572
-10.3322
3.43762
-1.13644
-25.3094
-7.33103
2.87264
-13.0775
-6.16028
-2.08674
42.4414
-21.0354
7.64992
-19.0648
-6.50011
-15.9394
-10.5547
36.4123
-9.87306
1.19812
27.3844
23.5698
0.285058
4.02014
-20.4283
30.539
31.0728
24.0467
-10.6223
39.0747
22.62
1.19158
4.61297
-14.1153
-16.3681
-11.7757
-22.0146
-31.0347
-33.1787
-38.0125
-37.4534
-17.145
-26.8643
24.7858
14.0695
-6.90676
-21.7094
8.74821
12.289
75.2714
69.0922
85.1931
276.504
103.079
65.4185
208.831
110.095
10.6375
-6.51962
-8.67531
112.923
22.2138
-8.51637
76.0108
32.2833
75.5692
11.4198
9.49089
53.0941
56.8017
26.633
21.1566
18.5172
286.335
204.826
158.37
255.935
244.784
196.255
231.16
220.404
76.3203
99.6547
244.957
167.181
113.486
148.128
182.03
203.369
23.7156
123.961
10.1759
53.5452
66.1402
80.267
45.4489
56.2737
124.827
240.345
159.26
109.473
122.28
176.15
110.938
156.149
87.611
80.218
125.158
40.1899
82.3201
81.1561
70.7355
78.5804
3890.36
2819.88
2935.6
3426.17
3803.31
2720.22
3540.76
3162.32
5255.23
6468.95
4262.26
4989.33
8157.07
9669.06
8623.67
7862.95
4179.35
3596.69
4106.04
3469.48
6091.29
6221.15
5848.63
5889.82
2511.14
1854.15
-429.133
2246.27
3433.32
3240.56
714.766
6105.82
6563.15
2321.99
4810.54
5923.46
6043.73
2991.6
2088.65
7830.96
9066.54
5241.13
8501.17
7222.14
4355.16
4011.95
3545.24
8669.96
1915.87
2559.08
4615.96
4879.76
3723.3
6444.32
6173.98
1353.74
5521.22
5888.32
6554.42
7522.07
4742.01
5301.76
8013.37
-843.614
566.986
-84.0811
-89.873
284.354
408.478
225.023
843.865
376.996
5.75699
21.136
18.7901
26.9619
14.958
10.885
21.2346
15.2695
322.024
9.82534
173.918
111.28
137.142
138.621
225.727
432.96
104.317
57.305
113.669
135.048
66.0499
74.6369
94.8418
72.1105
85.3932
129.744
5.31815
66.7561
68.7762
96.5235
65.8775
34.5699
44.0674
54.8344
11.7436
-19.3421
40.7379
26.5213
39.4918
15.3206
192.321
88.4392
48.1562
162.924
182.893
135.308
212.375
99.5321
278.569
177.87
51.0949
21.4145
74.6126
179.351
7.05124
29.6929
3059.34
3383.62
32.174
168.456
2851.6
-453.84
-819.551
-1689.15
3810.23
13854.5
-4973.63
2419.94
4016.39
-501.497
1572.43
-894.994
528.039
2343.54
-884.141
720.206
843.287
965.675
163.539
-264.238
2030.1
826.852
-873.195
81.8863
163.992
647.263
1102.21
1403.26
4726.73
-143.096
721.72
324.866
-517.958
-1047.72
-76.3495
1827.24
576.743
879.688
-1516.82
-97.1145
-1623.26
-1822.31
656.281
-3192.48
-1569.01
2720.32
1787.54
-1697.55
-1391.34
184.359
-1636.79
301.127
-2089.16
-955.633
3075.75
-2400.49
-1961.55
-1654.21
-3370.94
-3014.64
457.743
-1286.81
129.517
-981.148
-1794.22
-1451.96
185.541
-3058.85
-1294.92
-1349.86
641.369
255.238
-1085.54
-1883.79
-440.639
-785.402
-27627.7
-4917.78
454.093
-81.3637
2730.92
26944.6
8639.15
-9114.64
1972.05
-14.8104
-3246.28
-1158.96
-239.462
-656.62
-5329.96
-1062.8
-1346.08
-4217.28
-350.161
-1345.76
-1264.57
-5821.1
-1051.88
-1360.27
-1588.88
-2856.96
-7950.92
-3097.33
-2229.96
-1892.39
-646.75
-1793.16
1603.24
2390.4
-3396.89
-13058.3
-4234.31
1497.75
3744.36
1636.72
-8183.62
-5745.06
-3475.3
-3852.7
4317.44
7251.77
-2181.88
-2831.67
1156.84
1072.19
1210.82
1078.7
1179.81
1089.81
1238.32
1087.49
820.335
646.449
680.453
1021.9
761.762
652.783
935.609
826.469
1127.75
718.064
1084.67
1027.35
1093.63
1083.35
1053.57
1024.07
925.66
1016.24
1083.55
1186.97
1168.9
1265.46
810.296
934.97
1046.2
1097.12
1063.39
903.236
1036.59
1084.79
1055.94
1054.86
1021.85
869.632
882.001
981.871
1008.91
977.185
953.61
924.887
1316.33
1114.31
897.99
825.795
999.463
1052.5
1006.84
1122.59
1107.93
896.935
860.007
863.387
1236.48
1033.19
928.824
849.164
442.336
613.228
563.84
643.395
516.282
618.825
598.606
599.798
789.486
994.573
559.536
903.068
954.457
963.317
1038.84
1067.24
616.58
597.516
641.327
895.614
658.659
734.611
860.909
830.053
951.903
1020.48
972.453
1053.06
957.433
984.549
863.69
961.801
721.885
583.565
766.193
891.535
799.227
722.107
822.582
801.995
776.942
970.955
758.433
670.937
799.423
967.763
769.673
634.822
734.892
753.615
930.075
919.019
741.225
744.164
748.631
864.79
755.753
945.308
958.289
901.711
848.535
812.442
878.641
756.491
12588
2093.46
3430.94
6416.91
8496.81
4198.41
5496.74
3753.4
245.463
20.8301
250.107
566.775
-37.7685
-159.505
201.345
119.394
226.914
338.602
1491.14
1406.35
-1734.5
-1841.23
694.643
-191.329
1765.78
1071.6
2671.58
192.673
2009.7
1514.67
-113.17
591.085
960.454
1673.12
3864.64
381.916
924.643
1564.87
964.731
2537.7
-12.9966
195.434
-922.714
73.0131
656.363
327.688
423.376
-823.085
763.27
2001.35
301.172
2413.84
1634.33
2706.33
1574.86
85.5425
89.5272
1253.75
474.371
230.945
558.226
-144.629
-356.019
1168.32
-226.759
-1521.56
-74.2284
185.455
944.89
86.2047
533.488
1283.22
1677.63
2604.47
-243.861
1539.04
1816.77
1622.34
992.199
902.827
18.2774
75.2923
11.6363
51.8749
11.7643
56.3466
12.5232
71.7482
-1227.14
-2198.06
1250.15
-570.459
875.627
-1050.44
-269.737
-1243.18
539.91
370.235
-221.914
3198.6
583.56
1413.74
-1142.32
578.926
1830.9
2087.54
135.461
290.382
2569.81
1204.19
-37.784
121.891
446.982
-281.616
-406.153
411.088
-521.921
2772.63
411.929
1686.83
409.968
-2.35586
1963.53
145.007
66.8391
122.705
-39.7884
-335.915
325.18
180.224
264.094
147.545
173.258
356.85
254.553
189.795
342.092
622.457
39.5332
165.887
339.08
367.857
23.0262
-50.7849
21.1834
16.8647
21.9551
19.9002
24.748
23.6983
23.8661
25.2567
85.9956
108.935
111.165
155.882
133.045
139.099
154.819
132.978
246.454
81.0697
2.5059
130.899
39.0935
72.8767
139.61
-11.0261
311.027
76.4782
44.5903
86.1841
-46.6308
-15.7041
223.967
19.0306
58.4256
189.797
170.815
69.9405
116.777
49.5082
43.7997
44.4943
16.1593
39.3732
107.406
30.1424
30.0455
48.7013
38.9377
43.3387
2322.85
1121.66
393.672
785.842
663.528
982.674
448.084
426.275
356.646
407.889
27.1901
242.87
200.02
330.167
222.253
663.721
500.29
321.9
513.627
73.2764
423.251
300.591
308.65
298.97
22.2658
39.3984
18.6719
32.8191
21.8005
-3.33802
21.472
5.12867
334.987
208.596
236.989
251.314
33.8233
-107.213
816.309
437.87
-91.4388
-101.757
73.99
135.957
149.339
33.9864
-11.7349
231.09
83.761
10.8373
-152.733
35.6695
16.6187
-14.1016
10.6808
-69.4779
267.14
6.3748
-445.42
467.467
87.1974
-25.3508
90.3226
7.51636
-1045.95
379.329
-42.8486
897.133
231.997
231.611
648.106
503.209
789.856
839.846
936.263
949.275
711.074
780.655
898.132
931.661
220.822
1104.74
827.748
1367.5
1098.04
924.137
1291.7
1300.9
1306.73
1173.77
1367.1
1427.02
1267.98
1260.7
1258.11
1227.85
593.556
686.332
1127.26
1104.18
931.612
951.915
889.467
900.214
716.571
986.567
892.865
627.802
903.51
886.979
795.625
885.167
1045.19
1129.87
1142.76
1299.64
1059.48
1144.21
1342.84
1216.65
903.307
1295.78
1086.68
1137.34
1194.94
1208.1
1083.2
1099.53
711.478
596.711
682.807
756.9
677.821
650.597
714.149
702.495
440.064
188.772
355.368
453.024
397.221
267.842
398.283
318.969
599.237
437.174
373.359
630.156
540.718
443.898
564.557
426.713
795.168
652.72
833.845
867.855
804.059
692.407
809.705
747.502
553.09
648.276
735.322
611.77
572.722
629.808
607.839
656.927
479.231
506.979
392.587
589.531
520.611
463.141
524.116
498.271
662.788
718.534
599.878
713.179
739.128
709.845
695.201
650.524
623.353
722.595
522.983
399.61
560.726
622.061
495.429
574.145
810.654
921.953
827.496
1045.36
900.895
962.032
912.336
1070.69
787.652
-72.2203
308.913
569.721
470.05
318.477
482.735
352.624
768.487
621.465
621.167
909.216
830.206
807.632
788.977
793.529
1325.32
993.002
1143.82
1273.56
1162.73
991.339
1161.03
1074.27
962.482
850.045
1200.34
915.356
989.965
961.375
1037.14
1083.32
909.58
704.526
650.182
921.03
998.533
692.726
869.057
810.48
880.276
1172.53
895.25
949.416
916.07
1114.72
1030.64
961.612
954.79
864.19
777.367
680.039
839.914
863.152
771.333
800.494
-17913.6
-13296.4
3515.89
-5946.53
-15694.3
-6436.57
-5477.95
1839.85
307.443
271.814
336.008
827.43
630.123
180.275
754.176
145.964
774.543
614.88
1469.08
674.253
927.012
614.581
1213.66
1093.85
-786.92
166.438
412.049
-303.467
-282.126
122.688
-242.447
273.473
-3254.66
1157.29
-242.651
600.175
42.2399
201.237
-755.098
-1421.99
301.775
653.874
-370.571
-443.162
1042.72
627.201
808.683
609.889
333.635
-1212.99
195.862
192.779
-184.538
-306.894
205.168
12.8421
478.592
292.867
633.034
83.4772
770.618
698.825
1104.77
918.753
8465.36
7149.47
7695.68
7627.46
7190.63
6921.01
7579.28
7575.14
5025.01
4139.83
4012.1
3456.28
3700.54
2901.38
4938.12
4147.18
7598.34
5433.51
8126.47
8883.67
7667.92
8771.55
8770.62
9359.05
7493.67
5410.66
7858.42
7039.4
6423.38
6390.79
7416.67
7135.4
6460.34
7873.38
7219.21
5769.94
7140.16
7613.99
6529.55
7192.98
6110.86
5201.62
6321.66
8855.39
6779.66
7743.85
7013.7
5972.45
7717.15
7673.02
6400.38
8393.18
8161.55
7419.85
7207.65
7370.16
8610.74
7934.69
5384.41
6472.27
8365.79
7723.28
6478.85
5027.28
3347.68
2302.14
1080.22
258.459
1722.84
-552.336
952.063
-799.99
868.682
1214.85
1232.86
1164.45
10.0738
791.857
394.187
841.219
218.989
812.413
22.1296
1068.06
1402.57
1636.96
1101.6
1202.37
1154.75
548.264
1576.93
480.445
-116.236
1495.55
1508.2
1137.08
729.11
644.261
307.825
619.31
2143.94
829.892
1930.01
1415.32
-1266.41
1319.44
1136.03
17.1616
-1541.25
809.49
-213.976
1449.52
864.414
1514.04
846.556
1701.95
819.291
475.426
1474.15
1746.06
51.2187
1663.31
1286.91
1198.02
1634.5
1730.3
1426.08
983.5
824.087
930.071
900.912
816.758
826.919
846.035
841.512
856.645
819.33
551.119
688.266
1021.08
897.226
659.264
1078.2
965.543
938.651
776.406
777.828
983.361
977.29
823.452
998.957
1036.36
873.441
979.192
1016.78
979.474
917.723
964.318
971.937
1013.91
920.878
934.948
853.796
950.77
929.037
910.022
924.576
898.768
899.358
977.446
767.342
906.438
887.506
949.547
848.419
911.736
935.204
888.052
968.665
1010.3
928.63
915.78
949.575
966.116
921.777
1062.15
1030.38
988.394
972.889
982.256
1067.38
1033.9
192.293
259.622
87.5117
61.9604
102.768
172.913
111.636
127.804
448.784
618.853
665.062
443.201
506.395
672.859
520.725
648.032
229.183
569.097
468.694
274.277
384.119
374.424
422.693
441.111
110.305
123.702
42.3484
82.7166
2.5328
33.3574
10.3416
-48.8645
291.263
125.782
129.787
145.264
377.555
291.054
191.072
89.5793
449.4
404.508
481.059
180.62
255.933
477.333
379.627
402.96
136.726
52.9054
396.473
31.0585
89.4367
35.5934
125.869
283.237
134.905
146.525
339.188
565.426
446.99
180.751
502.393
225.17
545.738
590.5
397.709
308.701
516.408
533.766
361.304
434.549
709.997
707.608
922.645
557.129
774.129
619.602
588.839
770.79
374.055
1074.38
1594.56
827.429
447.871
1011.89
761.484
940.582
21.7951
30.5397
114.329
111.409
106.959
106.001
143.192
144.346
674.198
327.59
184.84
508.308
395.96
448.163
335.147
330.039
732.595
502.709
668.54
509.844
493.577
522.737
490.225
753.401
148.529
2.06455
198.441
79.5384
7.52732
139.694
57.4418
89.6076
374.683
440.183
364.672
833.269
378.737
285.686
512.114
411.227
416.791
961.358
1146.13
2428.65
1470.29
916.88
2523.46
1614.89
1334.69
2781.57
1647.92
2675.55
2801.05
2663.22
1474.94
1827.28
1339.76
1252.62
879.064
826.946
1377.96
1242.1
1381.5
1249.35
1417.76
924.471
1317.66
1449
1616.59
975.458
1615.97
1350.36
1443.32
1570.4
2057
2093.42
1737.22
1607.41
2104.8
2168.06
1048.09
2446.79
1404.34
2066.19
2026.16
1552.81
2075.45
1857.82
2012.94
1650.24
1522.76
1390.07
1262.53
1671.54
1340.98
1550.14
1603.25
902.288
1739.83
1143.93
1790.16
1249.98
1847.64
1541.16
711.445
739.083
731.507
803.156
813.002
702.768
797.694
745.798
823.748
921.934
868.058
961.763
949.085
908.505
964.328
883.391
727.576
746.791
563.082
801.547
808.102
705.592
789
662.884
811.982
928.571
927.194
845.205
897.908
919.016
971.589
929.59
854.521
790.536
887.889
917.673
873.64
827.989
839.346
825.139
787.906
942.31
830.603
726.061
828.89
908.06
779.831
905.942
789.798
865.257
990.68
922.924
804.225
839.485
904.556
909.747
764.063
814.606
915.639
837.851
831.67
827.903
920.905
845.158
741.161
847.541
834.084
820.677
804.444
784.13
808.956
865.546
940.861
854.078
1119.06
1023.37
1008.91
1019.14
1010.18
1033.35
904.77
1046.44
956.423
993.647
949.564
965.45
974.283
990.754
880.257
1045.36
1027.73
925.889
964.449
1003.47
1016.49
1024.96
866.514
895.223
896.726
994.646
932.924
905.264
866.563
920.025
870.029
1010.09
989.149
915.718
948.726
1009.14
896.374
990.51
895.304
919.036
1061.52
980.058
876.038
960.836
959.988
987.573
921.557
1002.68
1086.17
1062.91
967.917
992.049
1043.96
1066.45
-12311.3
-4557.87
2475.56
-7331.47
-17158.8
-5617.27
-10974.3
2309.62
-41.8107
87.8083
822.438
5056.8
-740.237
-211.188
2860.96
706.889
881.329
1088.4
1784.17
213.578
1260.4
1619.19
1337.73
2089.14
-341.579
1215.05
-1823.79
339.204
328.801
1385.48
2156.21
-2574.56
-3940.82
-785.555
3872.62
1351.35
-2482.83
-1434.04
-910.185
57.3706
-347.52
3028.5
437.1
2280.54
3036.48
2158.06
3227.96
-1779.87
-834.492
1954.51
2820.6
249.668
-265.405
2333.15
329.59
1268.25
-2929.64
-239.66
-1513.8
842.211
1173.75
1713.79
1940.1
1821.67
1777.36
982.277
1057.95
754.483
1541.46
498.209
814.595
685.445
2650.35
368.026
1571.3
5666.82
362.089
928.633
-409.407
224.427
2779.89
2744.4
4253.06
2746.96
1478.18
2448.21
2962.83
3942.57
-894.062
2491.25
3064.29
685.629
-3526.52
-756.557
228.514
-2961.82
978.98
-8.7626
1299.59
-1289.02
292.006
1080.86
3179.39
2543.43
1780.22
8863.07
889.363
1746.22
-453.42
2334.76
1771.62
459.509
1146.85
678.162
-972.091
191.972
1021.03
1299.04
-2568.35
187.843
1086.47
4489.84
4633.77
345.991
3281.62
3208.67
383.527
4197.45
1740.31
2840.56
3819.6
1770.4
1806.98
2541.96
1670.64
2640.1
3407.62
3352.55
1353.76
1421.74
1193.58
3206.34
3016.14
4228.05
3960.81
2144.17
7846.04
5565.64
3981.34
4272.31
4210.26
6671.57
2448.03
1592.1
1190.61
3153.45
2264.19
1510.87
2594.03
1460.89
3199.16
3766.87
2357
1575.08
3052.69
2403.81
2965.59
1564.48
4373.61
2964.64
4827.15
3968.34
2652.18
1981.91
1988.32
4142.87
4172.23
1999.48
1669.3
1683.7
3118.34
2153.41
3158.09
1536.41
4662.9
1676
3639.02
3723.05
4223.32
724.005
3708.34
-798.781
2893
1112.74
1370.78
3396.64
1260.97
445.153
1680.99
1528.45
1227.02
-473.459
262.156
1571.85
787.512
-268.403
854.247
559.832
834.567
886.302
768.379
912.464
1339.37
1090.93
1465.8
1096.04
1347.6
1229.25
1273.06
2031.36
1588.86
1041.8
1874.35
1835.54
1280.16
1681.61
1074.21
943.409
499.58
693.717
137.107
654.379
1178.33
384.971
453.571
1256.75
766.432
693.888
827.655
969.571
1818.76
1714.03
1789.41
1402.33
1073.01
1302.76
1366.46
1621.67
1615.39
1314.01
1328.23
1058.51
1451.3
1144.99
1379.89
1028.91
1235.37
1316.06
644.901
2121.03
1350.72
256.387
1575.48
637.742
1302.2
-320.473
673.14
1993.31
1801.84
1997.36
1222.42
1234.37
2097.98
1147.19
2697.13
2972.44
1660.12
1968.04
1600.74
1276.8
1951.72
1746.6
1477.08
2502.09
1971.57
1708.42
2189.72
1699.85
2157.88
728.595
1767.13
1494.3
1632.27
1807.01
2138.13
2328.25
2342.93
1256.21
740.809
1021.85
2184.29
2395.68
257.453
2777.23
553.037
1400.02
1498.29
1508.13
1944.29
1994.11
1775.86
2236.34
751.54
1680.61
1001.31
1616.08
960
1756.92
3483.67
480.158
834.373
1172.88
758.626
984.766
987.874
970.494
845.419
867.82
1266.66
1197.23
1303.14
1092.71
1215.71
1376.7
1032.87
1192.32
446.182
1104.71
-472.226
922.614
767.922
746.781
838.141
902.879
972.377
982.517
925.504
861.641
855.451
915.621
921.339
919.528
1173.54
951.49
1050.56
1159.02
1020.19
930.7
1079.22
1087.45
1280
1250.33
1363.44
872.572
1107.57
1205.31
1177.59
1246.44
865.033
1032.86
1057.87
952.547
904.656
1072.29
940.634
1058.22
850.319
1037.72
1133.93
1059.91
1069.29
978.912
875.122
982.062
170.581
474.86
808.494
700.219
327.503
484.832
504.702
717.155
832.299
1091.21
1110.72
1086.07
869.212
1021.25
1105.25
1162.87
1053.38
1057.04
850.5
1017.27
1042.89
1071.78
954.608
819.274
787.491
937.96
883.051
730.993
921.66
974.437
736.707
862.282
718.086
924.106
733.829
994.292
856.424
785.19
884.942
856.429
734.952
1018.34
1030.32
925.627
960.38
1026.59
955.069
1128.59
858.183
671.301
911.05
899.953
950.217
836.184
993.278
890.792
1039.86
985.385
1047.39
1120.92
1018.67
1037.08
1122.2
1092.43
45.9663
-46.5741
221.529
585.582
-341.168
-174.282
609.261
98.0944
-9.77766
16.4083
165.465
351.486
56.7956
205.599
248.17
258.02
365.427
370.498
515.593
808.938
584
492.879
531.824
438.553
367.947
465.472
775.554
728.238
503.839
529.148
619.347
759.118
-29.2361
226.266
403.865
454.163
299.412
16.6924
365.104
308.191
175.987
393.566
380.713
332.815
263.775
172.619
139.269
272.623
459.95
412.59
406.539
608.633
607.829
338.62
433.454
455.577
408.36
402.113
409.025
347.043
245.217
530.261
367.54
351.395
1911.87
810.95
1650.48
1105.67
1312.08
921.558
1560.49
1271.33
549.097
566.552
728.571
656.443
575.786
600.674
653.231
684.658
1425.49
1117.81
1324.14
1245.11
1393.65
1277.37
1445.44
1375.28
826.851
794.156
1135.45
816.244
886.74
965.677
916.25
998.148
544.694
1356.75
882.833
804.715
572.298
969.447
656.089
912.387
468.842
781.164
944.515
1168.95
618.096
738.091
914.149
939.449
1337.56
1096.44
852.339
1348.71
1159.16
1033.46
1301.17
1048.32
1224.62
1321.01
852.723
992.805
1103.29
1254.31
1083.65
947.087
1483.52
1790.36
1080.42
762.45
1231.71
1306.73
1139.69
1102.37
1134.29
2711.18
1050.55
1420.25
1318.57
1374.07
1794.85
2471.73
915.088
634.495
213.272
-2314.72
1152.78
1076.68
782.362
572.549
1248.77
3838.56
-2437.57
4468.03
2340.67
1872.68
995.514
2335.83
1269.77
689.334
1106.17
2149.52
1522.04
716.859
2117.24
813.515
785.513
1323.84
1291.61
683.682
1418.5
1464.65
896.445
1362.03
751.723
1481.95
2384.6
-1254.18
634.065
1246.98
1988.78
1379.53
730.433
-578.076
2185.55
1157.61
869.901
1316.62
929.326
1051.05
-296.066
-158.282
-220.797
1123.8
-1126.12
391.528
-1553.67
80.2921
-16.2366
-18.98
49.2767
-200.539
4.34618
89.6614
-58.4281
12.7459
-1.28453
41.7446
151.946
-95.9174
-100.795
59.7315
-240.552
-17.3987
-114.631
746.587
-282.941
-666.215
-451.056
34.0137
-519.032
114.966
82.3913
-717.278
-1332.22
-229.702
149.553
-303.714
-216.75
871.491
279.872
-37.8735
29.1486
-236.214
184.187
-76.9325
62.4368
-24.1474
-999.141
-2230.49
-72.6853
-8.4297
219.687
488.57
78.6976
-60.256
-182.813
-17.3863
-26.6151
-10.584
-65.3367
7.67077
-77.2328
-151.459
488.278
335.215
826.191
807.84
562.339
483.383
816.19
664.84
5.73077
-195.94
-298.324
325.115
12.0521
-78.0817
181.629
30.474
697.68
-108.574
1010.34
1096.22
604.122
555.647
916.28
676.636
1274.25
957.669
1644.12
2170.02
1476.74
1341.55
1724.72
1566.81
354.416
665.418
900.997
732.69
417.597
626.22
805.62
800.059
300.293
588.228
333.086
664.047
339.701
375.737
428.791
396.096
640.558
840.838
803.083
824.993
906.374
785.256
938.241
891.342
584.4
774.182
717.54
359.718
479.381
890.491
452.875
745.184
420.849
613.975
4022.37
1717.62
1199.43
753.913
2534.5
2331.47
74.114
86.9498
435.454
427.23
200.791
207.009
-40.6629
44.4441
9369.39
3122.45
12705.1
8530.9
6430.48
5793.12
8396.77
7444.84
704.67
148.802
2653.25
473.762
-139.538
-461.784
1270.94
987.851
318.626
3174.75
962.293
342.599
505.039
882.035
334.971
824.602
255.273
123.305
927.017
2817.87
712.512
42.4197
1385.61
1090.41
5633.06
2432.03
-72.8364
4876.77
5160.71
2073.8
3040.66
574.784
4975.6
4062.83
56.8541
1134.18
2916.7
2482.97
1205.85
1012.13
-341.083
281.178
-49.2922
-57.3411
-318.676
-186.382
68.7256
57.1205
445.392
1380.9
159.547
-204.703
834.858
1016.18
237.32
443.628
0.535522
139.194
-1.55049
117.04
71.8909
76.0923
92.5214
87.5016
29.1801
-4.50793
56.1792
20.9135
-10.7653
-16.2502
49.5022
55.9376
60.2013
18.1074
88.9817
-186.572
130.95
62.3688
110.898
149.079
69.8477
-65.5896
136.628
36.4839
158.265
39.5934
150.886
135.432
60.5285
24.0683
-15.0604
108.146
80.8862
51.0603
59.6811
16.8306
52.5108
109.855
-46.2911
147.047
139.343
65.4132
115.829
13.9046
2129.39
795.728
2238.55
667.174
1827.22
1904.06
1334.01
1879.74
-1269.34
-55.4649
-494.665
-644.656
-1157.14
-1952.78
-971.28
-1834.32
5840.82
3305.01
10159.9
2422.72
4415.47
4931.64
4393.02
6574.42
220.99
-83.8471
360.338
-7.05562
119.327
50.205
120.274
18.3902
460.319
2339.18
700.314
-266.429
490.898
900.387
-247.505
909.378
505.834
-398.212
2112.75
3349.71
548.56
-696.816
1996.19
1426.34
1879.94
571.304
-155.438
747.751
1319.15
862.137
798.703
300.201
3276.52
1032.94
-504.766
1889.83
1293.96
1080.24
1268.1
310.938
5887.03
6840.11
3355.13
189.53
4817.49
5198.86
2481.73
3599.02
9170.33
11769
3804.2
2552.7
6669.72
7878.75
1140.97
2981.51
2337.27
2805.96
2333.63
1538.33
2042.58
2352.68
1057.72
1763.02
1610.71
1681.09
1303.32
2844.4
1904.17
1746.41
2152.37
1950.05
4405.65
3321.11
3282.28
1239.61
2336.91
3747.09
2028.89
4396.94
4694.26
1137.31
3081.55
3734.21
3428.1
2331.31
3933.09
2803.69
1669.19
1196.09
1732.82
1336.26
1926.13
2288.78
2073.88
1447.72
2577.58
1836.06
1882.39
2453.85
1838.19
2150.04
1746.2
1592.68
3.29001
82.8445
5.16417
31.6813
45.7496
6.96821
40.6045
-11.7029
160.475
416.419
281.233
140.938
339.184
398.089
316.899
369.756
24.0453
125.893
9.572
4.11961
34.4026
56.2547
29.9263
72.0117
50.0654
-21.5775
-80.6734
88.9159
36.8039
-75.637
73.7443
-37.2808
86.841
-42.2779
11.4206
-61.9605
45.254
41.5325
52.5336
42.116
167.605
66.4065
260.944
-11.6647
83.2041
115.648
79.0167
178.302
-63.251
-5.15903
-143.434
-116.257
-13.2755
7.07052
-100.438
-97.7053
-46.6593
-192.789
-52.0846
237.477
3.86362
-131.434
108.522
28.5057
3620.48
3317.2
2837.79
2482.71
3281.71
2298.22
1489.45
1708.06
2570.93
2429.4
3980.3
1657.44
1745.39
2838.91
1537.11
2367.73
4844.46
4289.33
9338.41
3152.52
5060.21
5083.47
5581.41
5658.57
3439.39
2180.2
1076.98
3756.45
2710.44
2207.85
2525.93
1858.5
3268.07
2451.01
2634.25
1454.6
1493.22
1644.26
1739.88
1854.27
2576.34
1560.53
4168.3
3185.99
1665.27
1557.25
3245.26
2986.37
1925.98
2440.46
1623.65
1235.45
1196.07
1386.36
1384.71
1742.22
3557.34
2000.46
1440.3
4077.5
2926.03
2279.5
2771.48
2632.41
716.059
407.81
615.888
95.0569
303.768
344.04
327.998
359.221
472.922
457.054
284.351
153.623
351.559
407.382
231.238
269.415
970.694
380.733
1335.99
523.596
626.611
820.308
714.709
858.609
117.966
12.3043
53.7982
134.769
103.661
102.707
106.798
79.4984
232.559
403.943
168.479
57.008
137.813
120.489
59.3163
154.047
293.805
67.7509
468.668
550.654
196.072
87.8911
419.488
270.907
376.072
207.654
6.55528
150.867
166.429
197.805
260.239
117.688
344.327
166.363
8.66188
205.819
7.14875
369.633
126.129
53.2637
-280.167
-79.5722
-4.41217
187.772
45.2908
-9.96644
90.9704
48.4155
-45.0171
2.30364
32.8213
187.323
60.2028
-41.7555
45.1105
44.234
54.1967
23.8964
5.21297
90.3042
60.7267
33.85
57.3968
65.7956
286.322
395.481
240.959
412.129
422.603
344.149
336.529
331.008
49.7514
0.92433
177.019
185.756
71.41
29.8599
178.434
159.455
-52.2783
131.217
9.74183
8.49664
66.2832
40.0489
18.1039
-3.26581
83.1669
155.518
207.615
163.027
211.55
175.716
216.683
282.07
62.2857
160.218
211.732
46.6686
64.3305
107.023
60.351
165.564
369.27
465.587
250.791
508.407
703.922
621.065
474.2
264.691
182.868
78.3085
237.295
310.764
1172.33
542.557
236.605
386.026
231.02
187.111
105.058
252.408
307.42
218.722
200.111
103.286
373.148
520.861
349.931
482.202
581.821
543.522
553.857
428.598
838.262
467.857
541.637
481.296
340.485
209.692
369.041
462.753
362.982
360.362
334.371
264.787
194.627
40.1791
168.921
475.457
340.334
524.984
473.819
360.75
375.347
474.876
368.487
456.382
305.855
250.765
344.525
201.043
255.846
351.999
351.582
343.789
1146.04
1041.39
1571.57
214.139
1299.92
1202
1144
1430.95
988.074
892.128
1205.69
877.645
986.533
932.06
899.267
946.057
1637.35
1574.05
1626.4
1042.83
1453.39
1550.59
1284.49
1347.31
445.22
811.042
690.591
493.805
621.391
566.296
625.528
710.823
1122.33
1405.29
717.572
863.105
908.997
998.408
1124.23
653.446
1036.29
955.566
1354.83
1521.96
1006
991.225
1446.43
1199.57
1315.96
733.044
693.456
803.479
962.535
877.641
880.863
687.147
1407.43
878.807
734.829
1258.86
1252.56
961.428
1145.02
950.076
227.191
-81.9524
-33.2225
17.9833
-232.053
-254.396
4.22192
-37.0355
20.5178
26.3203
77.2055
9.22009
74.1553
68.8484
45.6517
60.2145
-25.4551
2.13556
1.4509
3.53
21.427
10.492
11.5215
2.356
63.6974
582.526
69.4103
33.4469
534.213
362.32
-149.72
131.77
-34.2295
77.2127
164.626
-42.3296
0.0158211
25.4209
-152.868
103.456
-30.7442
110.109
102.475
92.9102
-42.6184
73.3833
50.7984
100.899
-14.7536
-105.293
324.493
-21.8355
-45.9878
183.971
149.051
339.246
23.0716
-12.0037
245.467
95.0922
71.9258
75.9392
99.2747
91.8817
884.066
778.559
878.581
517.545
618.005
689.848
673.251
679.585
647.075
531.9
578.323
470.302
598.234
702.529
436.342
513.846
962.123
263.423
980.988
807.91
991.998
988.852
814.476
963.949
442.786
281.301
775.902
362.87
488.075
448.906
485.423
546.407
661.399
730.917
702.454
497.967
759.502
718.894
537.134
766.63
592.212
508.861
931.755
793.967
687.68
545.769
922.505
823.374
911.035
633.331
490.443
760.546
646.378
707.857
689.564
710.583
941.279
799.248
502.167
804.316
953.132
652.537
769.036
603.439
552.757
191.129
303.987
195.868
350.749
404.037
279.361
281.622
380.757
402.89
391.692
114.701
283.725
210.139
259.901
235.774
377.068
519.688
576.271
451.237
391.639
431.271
399.472
437.488
106.948
0.631875
193.175
201.264
194.952
-18.6276
84.2611
30.7709
66.0935
344.561
174.607
28.0327
173.352
312.09
132.538
171.527
257.737
145.627
381.948
331.16
370.452
289.878
410.692
343.86
359.85
131.872
32.9793
312.431
197.298
212.537
282.906
245.794
386.608
402.017
147.432
417.014
404.084
396.064
303.399
415.5
1794.77
821.932
1050.62
957.248
1195.36
1082.7
957.249
966.532
530.693
634.066
419.02
540.976
687.369
451.449
565.312
344.994
417.417
215.322
148.123
-28.3791
250.386
248.623
311.15
147.247
560.003
256.433
463.009
373.362
343.4
254.899
433.834
149.561
748.084
430.638
707.561
315.167
635.622
397.817
548.172
474.945
341.564
419.189
466.132
290.482
510.019
495.961
292.08
592.424
419.978
681.118
370.332
52.292
442.626
293.58
119.74
337.242
277.349
-108.339
245.34
371.916
188.86
117.753
366.222
173.375
1404.56
1095.26
1412.6
739.07
1132.31
1127.82
1126.02
1425.59
798.8
643.301
1070.63
574.857
694.726
743.487
838.382
1104.58
1480.08
1135.64
1233.66
1036.51
1211.02
1196.44
1246.33
1274.31
500.003
572.675
651.429
554.512
530.893
611.824
638.439
617.329
809.587
1165.11
395.935
398.089
873.992
926.263
474.59
572.757
847.218
535.107
1039.85
1173.47
1155.7
807.774
1109.55
1099.01
1250.85
473.884
521.247
982.258
882.168
613.476
789.764
651.997
1429.74
1099.68
765.915
1234.29
1088.39
948.843
1097.41
1040.05
1312.21
1016.62
189.666
310.241
798.696
-125.447
661.446
189.868
97.5616
15.3797
-11.085
38.4713
55.9536
38.8353
42.3655
22.7078
82.9952
33.2598
109.901
423.204
49.9406
16.8344
74.4598
31.6403
-301.858
304.542
799.667
468.561
81.3658
-5.88755
628.522
480.668
84.4029
166.439
314.508
178.609
75.9772
256.483
163.971
78.0062
20.6158
113.126
-45.0044
-11.417
6.8346
68.5012
99.3841
41.9749
110.595
556.954
108.901
61.0602
83.4708
370.255
106.915
378.756
14.0554
79.3667
44.5577
-12.7833
15.2687
12.4478
-16.1617
258.747
-19.0167
159.676
122.962
77.1494
171.572
124.216
178.655
131.363
132.723
1613.93
1045.33
81.9184
392.124
1181.84
270.203
1581.82
146.963
532.436
-118.027
232.828
-74.2829
-343.149
192.091
-333.919
65.373
-17.1416
51.9469
22.9409
116.026
35.5846
156.958
94.8071
100.012
138.253
90.4834
-28.9224
44.0564
-47.4359
20.0997
148.939
230.439
-27.7964
340.468
126.063
148.622
-86.8803
124.457
199.996
106.499
123.597
216.124
96.8156
14.5143
91.9072
29.2188
-105.459
165.89
-27.7963
-22.5055
568.125
-9.13549
76.1464
239.448
58.4406
361.98
295.064
532.855
57.5415
331.602
481.702
279.869
284.618
117.343
92.3273
-92.0644
84.5433
-510.102
761.053
-246.505
-319.489
415.405
160.987
120.8
147.277
174.508
242.536
195.281
87.6848
81.9538
89.4822
108.477
53.3859
119.901
102.956
136.374
126.368
-100.936
323.373
93.0453
163.038
-8.53444
144.06
-63.7218
90.1204
753.447
39.6686
168.736
381.355
-16.5327
-77.1262
262.144
96.6221
174.217
232.584
148.964
161.747