/*--------------------------------*- C++ -*----------------------------------*\
| =========                 |                                                 |
| \\      /  F ield         | OpenFOAM: The Open Source CFD Toolbox           |
|  \\    /   O peration     | Version:  2506                                  |
|   \\  /    A nd           | Website:  www.openfoam.com                      |
|    \\/     M anipulation  |                                                 |
\*---------------------------------------------------------------------------*/
FoamFile
{
    version     2.0;
    format      ascii;
    arch        "LSB;label=32;scalar=64";
    class       surfaceScalarField;
    location    "1200";
    object      phi;
}
// * * * * * * * * * * * * * * * * * * * * * * * * * * * * * * * * * * * * * //

dimensions      [0 3 -1 0 0 0 0];

oriented        oriented;

internalField   nonuniform List<scalar> 
92768
(
1.26002e-05
-0.000153593
4.74178e-05
9.35757e-05
-8.31101e-05
3.38454e-05
6.96322e-06
4.23043e-05
1.93426e-05
-2.52641e-05
-3.42053e-05
4.01328e-05
2.64207e-05
-1.09166e-05
-4.31182e-05
2.76102e-05
4.92943e-05
-0.000116282
7.95885e-05
-8.13443e-05
4.75303e-05
4.61262e-05
-0.000135987
-1.58756e-05
5.88113e-05
-9.35264e-06
-4.02469e-05
-9.21082e-06
-4.05886e-07
-4.16311e-05
-2.41085e-05
6.6144e-05
-2.3782e-05
2.30182e-05
-4.9997e-05
5.07617e-05
-2.62909e-05
8.45118e-06
-2.95344e-05
4.73709e-05
2.69386e-05
5.33014e-05
-2.14313e-05
6.87943e-05
-4.22613e-05
1.25533e-05
1.44559e-05
5.75663e-05
-2.48663e-06
-1.99331e-05
-1.89981e-06
2.43194e-05
-9.5566e-06
-2.19142e-05
7.7782e-06
2.36831e-05
-8.92498e-06
-2.49227e-05
2.05213e-05
1.33185e-05
2.56003e-05
-2.48728e-05
-9.8509e-06
9.11605e-06
2.60966e-05
9.07589e-06
-3.7667e-05
-1.13234e-05
2.78581e-05
3.81883e-05
-3.5172e-06
1.79381e-05
-8.97236e-06
3.84914e-05
-3.91883e-05
9.66922e-06
-2.13908e-05
1.99986e-05
2.96076e-06
-1.56418e-06
-1.81731e-05
3.94312e-05
-2.23414e-05
1.08531e-06
5.01746e-05
-6.39947e-05
1.01855e-06
1.28035e-05
3.10436e-05
-4.2762e-05
2.74844e-06
-2.40225e-05
3.36751e-05
5.2934e-05
-4.55238e-05
1.07381e-05
-9.45191e-06
3.07689e-05
1.25319e-05
-1.69073e-05
5.53199e-07
-8.90804e-06
2.05807e-05
-3.7606e-05
6.10862e-06
-9.0531e-06
2.37598e-05
8.93847e-06
-2.3649e-05
2.30733e-07
-2.72771e-05
1.75899e-05
-3.25536e-05
-1.37225e-05
-2.26111e-05
-2.56955e-05
2.1409e-05
9.28876e-09
-8.64627e-07
3.30758e-05
2.18486e-06
3.48531e-05
-1.40301e-05
-2.40901e-05
9.36748e-06
1.52816e-05
1.2119e-05
2.68803e-05
2.57086e-05
-5.51467e-06
8.30363e-06
2.23735e-05
-2.80377e-05
4.15117e-06
1.4984e-05
2.13329e-05
-2.04478e-05
5.96062e-06
2.29774e-05
1.64298e-05
3.27832e-05
-9.78146e-06
-1.45684e-05
-2.43443e-05
1.08756e-05
-1.89308e-05
-2.0705e-05
1.27891e-05
-6.41854e-06
4.91935e-06
2.99215e-06
3.61411e-05
1.99132e-05
-2.04464e-05
3.33829e-05
-2.36255e-05
-2.04658e-05
-5.91806e-06
-1.85391e-05
1.16862e-05
5.40189e-06
-0.000158745
-2.50372e-07
-2.7914e-06
-1.78084e-05
-1.35979e-05
2.62434e-05
-5.06201e-06
-2.6001e-05
4.82713e-06
-4.84064e-05
1.07547e-05
-5.46289e-06
-0.000147065
1.64809e-05
5.10297e-06
-0.000154957
-3.92057e-05
7.28221e-06
-7.85813e-06
6.5447e-07
-6.74915e-06
4.19865e-06
-1.54875e-05
-2.29902e-05
1.35536e-05
-2.77104e-06
-1.14298e-05
2.44811e-05
-1.02785e-05
3.03453e-05
-2.68659e-05
-1.33295e-05
2.64855e-05
-2.93462e-05
-1.50355e-05
2.60353e-05
2.70085e-05
-2.60088e-05
9.20243e-06
-1.4557e-05
-2.9882e-06
1.22475e-05
5.32672e-06
7.48094e-06
-5.73925e-06
1.77872e-05
-1.95227e-05
5.08817e-06
-6.61097e-07
8.75009e-06
-1.31804e-05
6.44879e-06
1.5123e-05
-1.16772e-05
-9.90164e-06
-7.03723e-06
-1.71982e-05
9.67999e-06
-7.87877e-06
8.33682e-06
-8.14233e-06
-2.60531e-06
-1.0933e-05
4.07686e-06
-1.62161e-05
-2.7048e-05
-4.64107e-05
3.75863e-05
-1.35188e-05
5.56861e-05
-3.81358e-06
-5.13345e-05
-5.38476e-07
-2.14352e-05
-6.59307e-05
2.33731e-05
1.96491e-06
-4.34098e-05
-4.85742e-05
4.12685e-06
-6.72928e-06
-5.81163e-05
3.84601e-07
-2.97067e-05
2.68836e-05
3.98312e-06
-1.25273e-05
3.48758e-06
6.86983e-06
-1.65607e-05
2.00422e-05
2.51923e-05
-5.5016e-05
-3.72938e-06
-4.43467e-05
1.83706e-05
-7.60201e-06
-1.34281e-05
-1.41596e-05
-1.08585e-05
3.09967e-05
4.06171e-05
-4.22892e-05
-1.41606e-05
-2.87096e-05
3.14399e-05
2.46604e-06
-1.03017e-06
-1.39529e-05
-1.09944e-05
1.85082e-05
3.61374e-06
-1.63206e-05
3.72956e-05
-2.68675e-05
2.54305e-06
1.04174e-08
9.57498e-07
-4.49502e-06
-2.82788e-05
-4.06919e-05
2.32632e-05
3.87452e-05
-4.867e-06
-3.76961e-05
1.64128e-05
-3.72112e-06
-1.01476e-05
-2.24151e-06
3.88065e-05
-3.783e-06
-4.01292e-06
2.61846e-05
-1.59271e-05
-6.05049e-06
-1.29778e-05
-1.10012e-05
-2.34461e-05
-1.12755e-05
1.69407e-05
1.11269e-05
-2.09266e-05
-1.58474e-05
-4.84755e-05
1.6681e-06
2.80362e-05
1.87793e-05
2.76032e-05
-5.72184e-05
1.38756e-05
1.57485e-05
1.42017e-05
7.12611e-06
-1.73936e-05
-3.93211e-06
-7.49454e-07
-5.84955e-05
4.21022e-05
1.71497e-05
-5.3366e-05
-8.22281e-06
1.31203e-05
-2.65076e-05
7.45366e-07
-5.55688e-05
4.65976e-05
-6.78751e-05
-7.70829e-05
3.17738e-05
2.75996e-05
1.77116e-05
3.35022e-05
5.95225e-05
1.52731e-05
-0.000108295
2.44568e-05
2.48068e-05
-3.73642e-06
-4.55295e-05
3.00679e-05
4.16264e-05
3.3575e-06
-7.5045e-05
-4.9896e-05
-4.19417e-05
1.47609e-05
-4.31012e-05
2.67072e-05
-5.13606e-05
3.9487e-05
-7.00068e-05
1.88165e-05
2.38846e-05
-3.6031e-05
-6.66859e-06
-1.10076e-05
8.03374e-06
-1.11439e-05
1.4122e-05
1.30371e-06
-1.33823e-05
-1.52356e-05
2.73235e-05
-1.06976e-05
9.96747e-07
6.59517e-06
3.11659e-06
-4.46917e-06
1.18144e-05
1.14878e-05
1.06275e-05
-2.61067e-05
5.17578e-06
-4.05234e-06
1.71089e-05
-5.26608e-05
1.19471e-07
3.47431e-05
1.78076e-05
2.92735e-05
3.57255e-07
2.67755e-05
-5.64017e-05
2.1462e-05
-1.26197e-05
2.40721e-05
-3.2914e-05
-4.74276e-06
1.76432e-05
1.52901e-05
-2.81947e-05
-5.26343e-05
-2.07247e-05
2.07001e-05
-1.81597e-05
-5.20065e-06
-6.91014e-05
4.36337e-05
-6.57984e-05
-2.5676e-05
-4.48296e-05
1.32863e-05
3.25258e-05
-1.74373e-05
-7.96465e-06
-5.65086e-05
-2.06376e-05
1.86508e-05
6.11756e-05
-5.3878e-05
-2.5929e-05
1.86342e-05
3.87838e-05
-1.27507e-05
-5.17093e-05
3.43432e-06
3.48859e-05
1.35382e-05
-1.81884e-05
-3.00648e-05
1.70112e-05
1.22749e-05
-2.45266e-05
3.75289e-05
-8.3285e-06
-4.38919e-06
4.499e-06
1.12959e-05
-3.32315e-05
-6.74392e-05
-1.43331e-05
-1.56765e-05
-2.25648e-05
1.27341e-05
-7.11066e-07
1.14147e-05
-1.044e-05
-8.9428e-06
-6.65738e-05
4.6056e-05
5.02229e-05
-7.57956e-05
-6.56688e-06
-1.96952e-05
1.36376e-05
2.11556e-05
-2.30608e-05
1.33145e-05
-6.36059e-05
1.85837e-05
-4.82131e-05
2.47417e-05
-7.98312e-06
-1.07153e-05
-2.34982e-05
-7.6824e-05
-7.09995e-06
6.80757e-06
2.11974e-05
1.50327e-05
-3.49981e-05
7.22412e-06
-5.12724e-05
2.603e-05
-1.91196e-05
1.56831e-05
-2.4424e-05
-2.61076e-05
-8.50605e-06
2.30506e-05
-2.01169e-05
1.00055e-05
-7.27905e-06
1.71253e-05
9.65283e-06
1.45807e-05
-9.95568e-07
-9.46407e-06
-1.25216e-05
-3.12814e-05
3.20472e-05
4.93924e-05
-3.40594e-05
-3.64837e-05
3.68665e-05
-3.33087e-05
1.82715e-05
7.22221e-06
-2.92318e-05
6.89834e-07
-5.26268e-06
6.86506e-06
-1.61142e-05
2.91227e-05
-4.57328e-05
1.04813e-06
-1.44048e-05
7.82857e-06
-9.68261e-07
-5.42195e-06
-2.51116e-06
6.51972e-06
3.68443e-07
-2.37605e-06
-5.64876e-06
1.71037e-05
1.20363e-05
-2.34827e-05
-1.29757e-06
-4.74368e-06
7.08821e-06
1.15755e-08
-3.67298e-06
-6.71141e-06
2.8629e-06
6.92527e-06
-6.81255e-06
-3.6145e-05
-2.32511e-05
6.6676e-06
5.43794e-06
2.34113e-05
-3.44277e-07
1.53105e-05
-3.83676e-05
-3.98729e-06
1.28599e-05
-2.22556e-05
5.73043e-06
-2.49124e-05
-2.01215e-05
2.60197e-06
7.76917e-06
-3.66689e-05
1.10571e-05
-2.91282e-06
-4.49985e-06
-1.91049e-05
2.19702e-08
1.05807e-05
3.54194e-06
-2.67673e-05
1.34021e-05
-9.00778e-06
-8.78586e-06
2.03933e-05
-1.19468e-05
-1.13573e-05
-1.12331e-05
1.41896e-05
6.49956e-06
-3.39765e-06
1.11337e-05
-1.29206e-05
6.19476e-06
-2.43101e-06
-2.05948e-05
3.04564e-06
-3.07482e-05
1.59925e-05
9.50617e-06
-2.28114e-05
-7.11307e-06
-7.93453e-06
7.4692e-06
1.10476e-05
3.53151e-07
-3.39306e-05
1.71335e-06
-3.83006e-06
9.78346e-07
-7.99248e-07
-4.41508e-07
-1.32461e-05
-1.26925e-06
6.59393e-06
-6.39161e-06
2.07629e-06
-2.34945e-06
-3.89274e-06
1.29291e-05
3.37832e-06
-8.77782e-06
-7.96961e-06
2.55896e-06
-1.04145e-05
-5.45588e-08
3.24653e-06
1.05258e-05
-1.3069e-06
4.42901e-07
9.71721e-06
1.60858e-05
-5.986e-05
-3.0906e-05
-9.70835e-06
7.30644e-06
-1.75662e-05
-2.02299e-05
8.56075e-06
3.83682e-05
-2.02532e-06
-4.49327e-07
-3.58763e-05
4.56142e-05
-4.16987e-05
5.80129e-06
-3.10249e-05
3.2216e-05
-3.55465e-05
-1.63755e-05
-1.32429e-05
8.55831e-08
1.06549e-05
5.96736e-06
6.94839e-06
-1.25377e-05
1.60084e-05
1.51232e-05
-1.9088e-05
-5.80213e-06
1.18322e-05
1.44061e-05
-2.04266e-05
-1.36384e-05
-9.43902e-06
9.84132e-06
-4.80637e-06
-2.55989e-05
1.03684e-05
-1.43967e-05
-1.86587e-05
6.8504e-06
1.72401e-05
1.78201e-05
1.30205e-05
-1.55319e-05
1.00299e-05
1.26998e-06
1.56442e-06
-4.13382e-06
-2.40909e-06
-9.84369e-06
1.63949e-05
-2.85761e-05
2.84064e-06
7.07373e-06
3.00861e-07
-1.61498e-05
1.48581e-05
-5.81794e-06
-3.59444e-05
1.75168e-05
-5.11938e-06
2.35524e-05
3.05117e-05
2.37441e-06
4.6537e-07
-3.33479e-05
-7.87247e-06
4.5088e-06
-3.13663e-05
3.47356e-05
1.22226e-05
-1.05173e-07
-4.85873e-05
3.6474e-05
-2.55086e-05
-6.3039e-06
-4.12832e-06
-4.31585e-06
9.3203e-06
-3.9266e-05
4.5185e-05
-5.1454e-05
-1.58354e-05
-2.08493e-06
8.21324e-06
-8.26716e-06
-9.00557e-06
-2.95482e-06
5.75063e-06
-5.2958e-06
-2.46179e-06
2.01077e-05
-1.94345e-05
-5.57306e-06
4.90737e-06
5.70758e-06
-8.23254e-06
-1.33072e-05
-1.89332e-05
7.52699e-06
4.35593e-06
-5.65278e-06
-1.24113e-05
3.82468e-07
-7.98098e-06
2.07956e-05
-2.2917e-06
-1.0309e-05
-6.66309e-06
-1.98637e-05
-5.84863e-06
-9.11034e-06
-1.57114e-05
-4.02596e-06
-1.96645e-07
-1.35212e-05
1.07585e-05
-1.90387e-05
3.12631e-05
2.39966e-05
-2.71903e-05
-6.73259e-07
-2.7459e-05
3.2645e-05
-6.93254e-06
-1.99441e-05
2.66862e-05
-3.16222e-05
-1.69467e-06
-1.89185e-05
-1.33346e-05
-2.80428e-06
-2.70637e-05
-9.1419e-06
-2.60283e-05
2.71818e-05
-1.64526e-05
8.6633e-06
-1.49224e-05
-1.30593e-05
8.23355e-06
-1.3968e-05
-8.12721e-05
1.32327e-05
8.44866e-05
-1.6445e-05
-5.4481e-05
-0.000136787
3.07797e-05
0.000160488
0.000109017
-9.59229e-05
1.79579e-05
-3.10515e-05
2.56196e-05
-0.000123953
0.000137749
-3.94162e-05
-6.92036e-05
-0.000119657
0.000107588
-0.000151441
2.77568e-05
-6.81575e-05
-2.58799e-05
-0.000110582
-0.000172792
-8.66441e-05
5.29464e-05
0.000206489
-8.61908e-05
4.44822e-05
0.000147629
-0.000105922
0.000154331
-8.30623e-05
4.65296e-05
-0.0001178
9.60929e-05
-0.00016621
0.00031484
-0.000244724
-8.69366e-05
-0.000332446
0.000246591
-0.000228839
5.57117e-05
-9.93667e-05
-0.000136987
-0.000173875
-9.38084e-05
0.000100439
1.80682e-05
-2.46989e-05
-6.93001e-05
0.000147902
4.4279e-05
-0.000122883
0.000116171
1.74218e-05
-8.95721e-05
-4.40202e-05
5.40731e-05
0.000212517
-0.000168817
-9.77745e-05
-7.24105e-05
-0.000180111
0.000158714
-0.000180195
3.84871e-05
-7.60433e-05
-4.99955e-05
-0.000140067
-0.000160509
5.49307e-05
0.00017584
-7.02625e-05
-0.000188167
0.000111591
0.00039251
-0.000315935
0.000277589
7.23422e-05
-0.000221325
-0.000128606
6.42405e-05
0.000230731
-0.000179476
-0.000115496
-0.000129467
-0.000276251
0.000245208
-0.000414043
9.64092e-05
-0.000123072
-8.89379e-05
-0.000259526
-0.000244151
-8.91753e-05
0.000196538
0.00013025
-8.84395e-05
-0.000137735
-9.07013e-05
-0.000213912
0.00018066
0.000218459
-0.00013763
-0.000392903
0.000312072
-7.26153e-05
-7.06323e-05
-0.000100904
-5.29468e-05
-0.000107757
0.000255583
-0.000251404
-0.000225043
4.92233e-05
9.62672e-05
-0.000400109
8.34817e-05
-0.000225325
5.878e-05
4.61991e-05
-0.000172804
3.81669e-05
-0.000187577
-0.000138371
-0.000228297
-0.000116228
2.40559e-05
-0.000261044
-3.99045e-05
-6.30329e-05
-3.47984e-05
-9.6599e-05
-6.23821e-05
-0.00014312
-0.000138193
0.000266406
-0.000108215
-8.58504e-05
0.000157307
-0.000136736
-6.04747e-05
-0.000190697
0.000237407
-0.000107737
-0.000135399
0.000314249
-0.000209948
-0.000272524
-0.000265779
9.14112e-05
-0.000168835
-7.30992e-05
9.64142e-05
0.000133412
-7.32184e-05
-0.00021233
0.000238105
-2.54175e-05
-0.000282369
6.96754e-05
3.8237e-05
2.09177e-05
2.50915e-05
-8.42423e-05
-0.000220401
0.000185159
-2.58146e-06
3.78234e-05
7.13066e-07
3.77251e-05
-6.53436e-05
2.68998e-05
0.000174876
0.000238258
-0.000175031
0.000211801
1.31006e-06
0.000194251
4.4719e-05
0.00018565
-2.11503e-05
8.57099e-06
2.23689e-05
-9.79191e-06
1.33797e-06
1.39178e-05
-1.591e-05
-3.69253e-06
1.0382e-05
5.57011e-06
1.41429e-05
3.2466e-06
4.04872e-07
4.89809e-07
-1.5782e-05
-5.84065e-06
-6.02153e-06
7.86851e-06
1.37724e-06
-3.0069e-06
0.000169486
-0.000192281
-2.02052e-06
2.48164e-05
-3.58919e-06
-2.68874e-05
4.47835e-06
-0.000152075
-7.43404e-06
7.65048e-07
-8.89871e-06
-1.25983e-05
7.90819e-06
0.000160851
0.000173323
-0.000164685
0.000161526
-4.26185e-06
0.000145506
1.89186e-05
-7.60286e-06
-8.12312e-06
7.87462e-07
1.49126e-05
5.77407e-06
-1.61984e-06
2.03304e-05
3.11755e-06
-2.02259e-05
2.13105e-05
-5.62962e-06
-2.71855e-05
9.82371e-06
-9.68647e-06
-2.1857e-05
2.39472e-05
8.19771e-06
-1.21051e-05
-3.73506e-05
9.86485e-06
2.7907e-05
1.81356e-05
-2.51384e-05
-0.000193891
0.000172676
0.000206374
3.53273e-05
3.99366e-05
-3.75437e-05
2.41753e-05
-2.50719e-05
-2.70837e-05
2.7968e-05
2.03915e-05
-1.97218e-06
9.47991e-06
1.21498e-05
8.66576e-06
1.35326e-05
5.61439e-05
9.86352e-07
2.57164e-05
1.43318e-05
-3.61593e-05
8.63917e-07
5.06267e-06
4.45513e-06
-7.88529e-06
0.000183456
-2.89558e-06
-1.03968e-05
2.08523e-05
9.25998e-07
1.36888e-05
-7.25389e-07
1.54784e-05
5.21744e-06
0.000166651
3.45053e-05
1.22978e-05
1.9517e-05
-9.75588e-07
-2.7727e-05
-4.40868e-05
5.13304e-06
1.87343e-05
-4.52058e-05
3.26922e-05
1.77349e-05
2.32395e-05
-1.01588e-05
-1.2298e-06
0.000157827
2.35358e-05
-3.24459e-05
-3.57779e-05
-1.28428e-05
5.98577e-06
9.46358e-06
-1.43133e-05
-0.000354604
0.000334084
-2.36531e-05
4.41789e-05
0.000437485
-0.000444554
-6.82786e-05
7.53489e-05
3.39899e-05
-0.000127017
0.000121204
-2.81615e-05
-9.33861e-05
-0.000264284
0.000294719
6.29484e-05
-0.00049693
5.72748e-05
8.50539e-05
3.97236e-05
-9.91678e-05
-0.000293637
0.000257528
-0.000219922
-0.000525048
0.000520618
-8.13447e-05
8.57672e-05
0.000680821
-0.000681933
-0.000179906
0.000181013
1.46984e-05
0.00011373
-8.35963e-05
-4.48347e-05
-0.000126863
0.000343724
-0.000315085
9.82352e-05
-0.000773912
6.5628e-05
0.000183233
5.80688e-05
-0.00015116
-0.000369786
0.000308553
-0.000297023
-4.86842e-05
2.02293e-05
2.69479e-05
1.49067e-06
8.29843e-05
9.34757e-06
-9.10692e-05
-1.28187e-06
-4.02696e-05
0.000156822
-0.000155398
3.88487e-05
1.39618e-05
-1.96862e-06
-4.18822e-05
2.98939e-05
-4.40608e-05
6.83095e-06
-1.14771e-05
2.48799e-05
1.40425e-05
4.50247e-05
-2.42309e-05
2.96309e-05
-0.000175051
-7.27075e-05
0.000183585
6.41679e-05
0.000208747
-9.7213e-05
-0.0001754
6.38598e-05
2.70475e-05
-3.01018e-05
-0.000102033
0.000105084
-6.87256e-05
-7.96276e-05
0.000108121
4.0232e-05
-0.000280016
2.59998e-05
7.89579e-05
2.39247e-05
-9.51943e-05
-0.000228838
0.000186108
-0.000177867
6.14223e-05
-0.000602425
9.64487e-05
3.66244e-05
-0.000216388
5.27518e-05
-0.00037755
2.92257e-05
8.4033e-05
0.000295422
-0.000432022
3.90759e-05
9.75303e-05
0.000284713
0.000109613
-0.000332896
0.000101415
0.000313368
9.16657e-05
3.72329e-05
4.93662e-05
-0.000131173
-0.000116236
2.79389e-05
0.000174107
2.47912e-05
-8.51645e-05
-0.000188261
1.31327e-05
-4.12577e-05
-0.000239559
-4.39668e-05
-4.72418e-05
-0.000128767
-0.000103461
-1.89922e-06
-3.12124e-06
-2.69267e-05
8.28081e-05
-0.000245121
0.000201634
0.000259018
-0.000317153
8.01412e-06
-4.95865e-05
1.14667e-05
-2.22481e-06
-2.13505e-05
2.04669e-05
-0.000210114
4.62908e-05
-5.96218e-05
6.44574e-06
1.40881e-06
-5.29629e-05
-4.17866e-05
-0.000247425
1.22559e-05
2.1931e-05
-2.46693e-05
1.96719e-05
-8.28803e-05
3.00303e-05
-9.46361e-05
0.000162477
-0.000159925
8.27547e-05
-8.53057e-05
-3.60904e-05
5.87622e-05
-4.3922e-06
-1.82831e-05
-0.000297572
0.000304151
0.00017063
-0.000177212
0.00011396
0.000165719
-0.000192517
-8.71637e-05
0.000205381
0.000122236
-0.000165145
0.000116741
5.25471e-05
0.00031395
-7.77575e-05
0.000133118
-4.39526e-05
2.00194e-05
4.5479e-05
-2.15422e-05
4.22998e-05
0.000216288
-0.000101764
-8.18795e-05
-9.0456e-05
8.12625e-05
4.99364e-05
-4.96256e-05
-4.21925e-05
-0.000115261
2.53609e-05
4.59448e-05
-4.62066e-05
-2.67562e-05
9.84552e-05
-2.31628e-05
0.000605718
-0.00050378
0.00021189
-0.00031383
1.70933e-05
-0.000154717
5.40271e-05
-0.00061443
0.000257582
-0.000325089
0.000178534
-0.000359044
-0.000134574
0.000268541
0.000305585
3.15702e-05
0.000228586
5.70446e-05
0.000682867
-0.000198753
0.000149723
5.13757e-05
-0.000136211
-6.48941e-05
-6.02768e-05
1.42225e-05
-5.59787e-05
-0.000224736
0.000144352
-9.5016e-05
8.21961e-05
-0.000128411
-3.34127e-05
0.00011235
0.000152816
-0.000115451
7.18087e-05
-1.97389e-05
0.000330795
-9.57857e-05
8.823e-05
-1.74445e-05
-1.20189e-05
-0.000187439
0.000306675
0.000184911
0.000220285
0.000114026
-0.000168595
-8.57571e-05
0.00019431
-1.5076e-05
-9.34758e-05
-3.15853e-05
-6.49243e-05
0.000184741
-8.59071e-05
-4.83823e-05
-0.000102299
8.5994e-05
4.8857e-05
-4.62816e-05
4.69218e-05
9.77647e-05
-0.000307918
0.000109465
0.000108002
7.13654e-05
0.000125177
0.000110131
6.87832e-05
0.000164821
9.25451e-05
0.000163734
7.24547e-05
-5.16384e-05
-0.000136143
0.000432423
-0.000111374
0.000278505
-0.000113106
-4.46678e-05
4.3815e-05
-0.000246712
0.000533389
-0.000142321
-0.000271873
0.000287178
-0.000151451
9.26231e-05
-2.82164e-05
6.86763e-05
5.38127e-05
-7.308e-05
8.86175e-05
-2.33215e-05
3.48045e-05
5.05775e-05
3.04009e-05
-2.43823e-05
7.03209e-05
-6.74638e-05
1.98121e-05
-2.26676e-05
-2.35301e-05
7.50019e-05
-7.62011e-05
2.47294e-05
-7.34425e-05
6.82126e-05
3.09619e-05
-2.57292e-05
2.83709e-05
7.45553e-05
-7.68864e-05
-2.60393e-05
9.05068e-05
4.50561e-05
-6.52365e-05
5.15135e-05
1.5465e-05
9.76886e-05
-2.42582e-05
7.57595e-05
7.53897e-05
-2.47733e-05
-8.16746e-05
3.10562e-05
-2.74386e-05
6.91471e-05
-7.80059e-05
3.62946e-05
-7.95099e-05
-2.77547e-05
7.80654e-05
2.92009e-05
3.20895e-05
-2.78019e-05
7.26534e-05
-7.69404e-05
0.000106664
4.84576e-05
-7.97309e-05
4.8075e-05
3.11512e-05
0.000108255
-2.77059e-05
7.68201e-05
7.3646e-05
-8.15911e-05
3.73676e-05
-2.94242e-05
-2.4705e-05
-8.39625e-05
7.61492e-05
3.25158e-05
-0.000100694
8.33327e-05
4.5362e-05
-2.79979e-05
4.95116e-05
-0.000111223
8.30874e-05
-2.13772e-05
0.000108934
5.51592e-05
-9.04503e-05
4.85892e-05
3.56414e-05
0.000132159
-2.74844e-05
8.00551e-05
7.19618e-05
4.30314e-05
-0.000101259
-1.37324e-05
-6.53934e-06
4.34197e-05
7.76573e-05
-0.000114538
-0.000118296
4.97559e-05
8.03152e-05
-1.17709e-05
4.98731e-05
8.30372e-05
-0.000125954
-6.95668e-06
0.00011116
7.0641e-05
-0.000109835
6.4745e-05
3.98772e-05
0.000130952
-1.04324e-05
7.74015e-05
5.10241e-05
0.000101366
-7.73921e-05
-7.45258e-05
9.75427e-05
4.51927e-05
0.000100529
5.48136e-05
-8.07893e-05
-8.01907e-05
0.00011221
5.6775e-05
-8.87981e-05
-2.48382e-05
-2.618e-05
0.000102041
-2.36048e-05
-2.62202e-05
-8.01514e-05
5.07038e-05
5.16795e-05
2.49127e-05
2.90006e-05
5.54068e-05
-0.000105038
5.28533e-05
2.44268e-05
2.48286e-05
4.63345e-05
2.6379e-05
8.04626e-05
7.32558e-05
8.17559e-05
7.27235e-05
2.53599e-05
4.94408e-05
-4.03778e-05
0.000111032
-2.54627e-05
0.000114102
-1.62583e-05
-1.35022e-05
0.000113696
-6.30137e-05
0.000129795
-1.70252e-05
-9.31585e-05
7.8795e-05
-2.60153e-05
7.16471e-05
-9.80221e-05
0.000113801
7.5773e-05
-5.59451e-05
7.45155e-05
9.48766e-05
7.42255e-05
-0.00010929
7.81774e-05
-3.82429e-05
2.3565e-05
1.96131e-05
-3.62847e-05
7.82044e-05
-9.51966e-05
0.000108699
-4.33273e-05
2.98227e-05
9.9544e-05
-8.78282e-05
-3.52421e-05
2.3523e-05
2.62339e-05
-8.77246e-05
0.00010887
-4.73817e-05
-3.25438e-05
-8.63486e-05
8.99438e-05
2.89501e-05
-0.000127645
8.15301e-06
2.42925e-05
1.05346e-05
-3.86355e-05
-0.000118767
9.4376e-05
-8.19986e-05
-8.4829e-05
8.94111e-05
-2.78441e-05
2.32586e-05
8.36658e-05
-2.77423e-05
2.74076e-05
2.78085e-05
9.00028e-05
-4.16625e-05
-2.42464e-05
7.42625e-05
3.30674e-05
-0.000109526
-1.26214e-06
2.59563e-05
-5.531e-07
-2.53074e-05
-0.00010731
8.18019e-05
-8.6392e-05
2.60226e-05
0.000103323
-4.2954e-05
9.68436e-05
2.39723e-05
-4.27506e-05
1.87496e-05
7.43236e-05
-2.3927e-05
-3.0818e-05
2.49045e-05
7.85658e-05
-0.000123909
1.23121e-05
2.52033e-05
1.28434e-05
-3.99084e-05
-0.000108413
8.99068e-05
-8.00322e-05
-2.44797e-05
6.81839e-05
3.63281e-05
6.2019e-05
-2.27697e-05
4.10652e-05
4.03361e-05
-2.50652e-05
6.23881e-05
-2.31974e-05
5.88063e-05
4.74294e-05
-0.000101266
-1.80795e-05
3.93126e-05
-1.7196e-05
-2.20506e-05
-0.000100542
5.92654e-05
3.65262e-06
-0.000114745
2.32616e-05
2.43199e-05
-0.000125772
1.37258e-05
-0.000112887
-3.90423e-06
3.04462e-05
8.60166e-05
-0.000110498
-8.72921e-06
3.32046e-05
8.70749e-05
2.88622e-05
-0.000112287
2.93965e-05
8.17823e-05
3.30979e-05
-1.7078e-06
5.64146e-06
-3.09756e-05
-2.70661e-05
-9.1698e-06
0.00011782
1.04968e-05
-3.83139e-05
-9.6341e-05
1.45713e-05
-4.40028e-05
-8.25254e-05
-2.41207e-05
-2.77896e-05
-8.09889e-05
-3.9473e-05
9.04149e-06
3.63993e-05
-0.000121093
9.84205e-05
-0.000102435
7.40531e-05
6.59046e-05
-9.74064e-05
3.28977e-07
-0.000100722
7.53307e-05
2.91983e-05
-8.01706e-05
8.73706e-05
-7.49452e-05
3.10912e-05
-0.000110934
-8.05011e-05
-1.59235e-06
-3.20608e-05
0.000112643
3.2984e-05
-8.82842e-05
-7.95435e-05
3.34e-05
-0.00031709
8.32665e-05
0.000252957
-1.91282e-05
-2.07717e-05
-0.000251397
0.000124988
0.000147175
0.000154351
-0.000347534
0.000199304
-6.1166e-06
0.000194959
-0.000515511
0.000285167
3.5384e-05
-0.000153236
-0.000328899
0.000165058
-0.000446735
0.000272734
-0.000170903
3.69645e-05
-0.000463287
-0.000106419
-1.98205e-06
4.62618e-05
6.21423e-05
-3.24303e-05
-3.98396e-06
4.30721e-05
-6.65651e-06
6.42581e-05
-2.59405e-05
-7.03793e-05
3.20572e-05
8.13637e-05
-1.13986e-05
-0.000108225
3.82546e-05
-2.77257e-05
-0.000132812
5.4127e-05
-5.38579e-05
-6.27955e-06
-5.1972e-05
5.25762e-07
-4.15711e-05
-0.000366996
0.000175431
0.000228912
-3.73468e-05
-2.16792e-05
0.000102311
-0.000185674
0.00010504
9.5318e-05
-7.38567e-05
8.30465e-05
-0.000104503
0.000222451
0.000316249
-0.000564585
2.5885e-05
-0.00010708
-0.000445896
0.000185988
-0.000150849
2.2102e-05
-0.000191217
-3.22269e-05
-0.000246748
-0.000528269
0.000158368
0.00030961
6.02918e-05
1.96176e-05
0.000134852
-0.000312074
0.000157605
0.000456243
0.000266189
-0.000817528
9.5097e-05
0.000141634
-0.000462879
0.000285755
3.54931e-05
-0.000401334
-0.000489792
0.000362862
-0.000580277
0.000198563
-0.000406924
5.87698e-05
-0.000530957
-0.000266065
-9.84732e-05
0.000113132
0.000235683
-0.000134904
-0.000448314
-0.000349356
-0.000480722
0.000314569
0.000287413
-0.000177939
-0.000295201
0.000185722
-5.1993e-06
-0.000131183
-0.000129684
-0.000232802
2.55651e-06
0.000153673
-0.0005796
-0.000223407
0.000122951
0.000104946
-0.000294283
8.51824e-05
-9.21485e-05
-1.8974e-05
6.69134e-06
-0.000297004
0.000155407
-0.00023195
-0.00012114
-0.00012648
-0.000247486
0.000133039
-0.000288782
-0.000237324
-0.00023227
2.12852e-05
-0.000372952
5.05996e-05
1.81855e-05
-0.000178533
0.000660071
-0.000462141
6.82627e-05
0.000365297
-0.000648371
4.57527e-05
-0.000587255
0.000370506
-0.000358803
-0.000353843
0.000485565
-0.000631457
-0.000198459
-0.000274355
0.000154637
-0.000144473
-0.000154497
-1.3356e-05
-2.77348e-05
-0.000147501
-0.000373694
0.000418817
-0.00025471
-8.7461e-05
-7.66435e-05
-0.000218148
0.00039026
-0.000114265
-5.78445e-05
-3.84821e-05
0.000141189
-4.75469e-05
-5.516e-05
-0.000141471
0.000649736
-0.000313403
-0.000194861
0.000305682
0.00021666
-0.000103522
0.000140871
-5.3335e-05
0.000211364
-0.000136172
0.000313753
0.000293264
-0.000205797
-2.86137e-05
-5.88512e-05
-7.05469e-05
3.1082e-05
-3.43935e-05
-7.60369e-05
-8.33329e-05
-2.63034e-05
-0.000108141
-0.000332739
-0.000123706
0.000205622
0.000140272
-5.26294e-05
0.000145163
-1.0088e-05
0.000177622
-0.00014549
6.79484e-05
-2.65678e-05
-2.46573e-05
-1.67195e-05
-3.65751e-05
-3.19217e-05
-1.88571e-06
-4.70121e-06
-2.27775e-05
2.34982e-05
-1.81901e-05
-5.83203e-05
-3.17136e-05
5.83361e-05
3.13717e-05
-2.17543e-05
2.27403e-05
-9.76777e-07
2.3532e-05
-1.03488e-05
0.000639182
-0.000198576
-0.000258912
-0.000181693
-0.000325455
-0.000252612
-0.00023946
-8.83566e-05
-7.69759e-05
-0.00014674
-0.000189774
-0.000174787
-9.83178e-05
0.000446296
0.000343433
-0.000150547
0.000270478
-0.000149636
0.000348836
-0.000195175
0.000211349
0.000353907
-0.000174993
-4.54277e-05
9.6529e-05
9.00901e-05
0.000499323
0.00034335
-0.000192937
-0.000704137
0.000528684
0.000385221
-0.000209768
-0.000166018
0.000162688
0.000214682
0.000102308
-0.000337969
-0.000203479
0.000263663
0.00018604
-3.79252e-05
-0.000142983
0.000338928
-0.000132653
9.56551e-05
-4.63324e-05
7.06774e-05
5.39852e-05
-2.81356e-05
0.000348519
5.22024e-05
6.00463e-05
0.000181554
-5.86735e-05
0.000108949
7.682e-05
9.39313e-05
-8.06597e-05
0.000376235
-0.00023146
-0.000273129
0.000405738
-0.000174281
0.000204031
-0.000106722
-0.000104136
0.000322598
-0.00014164
0.000535762
-0.000112996
0.000261315
0.000121352
-0.000128643
0.00011321
-8.0738e-05
4.03592e-05
5.92414e-05
0.000173032
8.74529e-05
-6.45797e-05
-0.000209016
8.91717e-05
0.000184425
6.74683e-05
-4.04808e-05
-0.000183737
0.000156752
9.90499e-05
-4.34347e-05
-0.000113631
5.80172e-05
-0.000109168
-2.00422e-05
3.56807e-05
9.35308e-05
-0.00025209
1.6282e-05
0.000171229
1.15864e-05
-0.000196208
-0.000139235
4.63503e-05
-2.8598e-05
-1.94551e-05
4.33432e-05
-0.000168368
0.000144482
2.20737e-05
-0.000146641
0.000124319
6.12864e-05
1.94016e-05
-7.58599e-05
-7.66366e-05
9.95392e-06
6.12227e-05
-0.00017192
1.58642e-05
0.000136603
9.59189e-06
-0.000159437
-7.81605e-05
1.73898e-05
-1.01402e-05
1.04095e-05
-7.01365e-06
6.75239e-06
-3.13549e-08
9.98498e-07
4.37772e-06
9.54538e-06
-7.4025e-06
6.60739e-06
1.4166e-06
-4.86656e-06
-8.22962e-06
-8.19005e-06
1.57433e-06
-3.51762e-06
-6.08524e-06
-2.13592e-06
-8.5483e-07
3.83732e-06
3.28777e-05
-2.72381e-05
-3.12848e-05
2.56484e-05
-2.32978e-05
-1.99828e-05
1.62404e-05
-1.02171e-05
6.4295e-06
-4.75476e-05
1.60813e-06
-5.58621e-05
-1.1673e-05
1.21362e-05
6.44925e-06
1.43037e-05
4.73773e-06
-1.58972e-05
6.35957e-05
-5.55341e-05
1.75585e-05
-0.00021117
0.000153133
9.73942e-05
-0.000148079
7.25036e-06
-0.000121241
1.51315e-05
8.60685e-05
7.15081e-06
-7.29096e-05
8.87096e-06
5.68978e-05
3.55073e-05
9.80309e-05
-0.000115977
0.000104304
2.7083e-05
7.81004e-05
1.01456e-05
1.12957e-05
-0.000179122
-6.98846e-05
6.9299e-06
9.11617e-05
1.59233e-06
-7.33493e-05
-4.15677e-05
2.38982e-06
-0.0001089
-1.83392e-05
-8.63408e-05
-7.08337e-05
-1.90003e-05
-0.000108908
1.3284e-06
1.73558e-05
-7.67453e-06
-2.43183e-06
1.14157e-05
-2.35221e-05
-2.61853e-05
1.50777e-05
-1.16711e-06
4.20681e-05
-3.44713e-05
1.27532e-05
1.93325e-05
-1.47275e-05
3.43155e-05
7.76701e-06
1.04028e-05
5.13037e-06
-4.93801e-07
-6.27042e-06
3.56022e-06
-3.50282e-07
1.96778e-06
9.56043e-06
6.85754e-06
0.000210925
-0.000234756
-2.41551e-05
0.000228287
-0.000202545
-0.000184998
0.000184004
1.98512e-05
0.000128478
-0.000123239
0.000200658
0.000178021
-0.000167755
0.00017809
0.000199182
0.000192274
0.000230532
-4.42969e-05
-0.000184648
-5.62473e-05
-0.000151181
-0.000146748
-3.54003e-05
-1.60049e-06
-3.88844e-05
-7.31444e-05
0.000207689
0.000162948
-0.000140103
0.000153029
0.000189926
-2.85785e-05
0.000166501
-0.000166934
-1.46715e-05
-0.000152107
-0.000152488
-3.61676e-06
-6.77641e-05
0.000162263
0.000170623
-0.000166384
0.00014918
0.000162745
7.0353e-06
1.47312e-05
6.05605e-07
-1.45154e-05
1.34288e-05
-5.92605e-06
6.2563e-06
3.69364e-06
6.56468e-06
-4.30912e-08
1.62663e-05
-6.80393e-06
-2.42215e-06
-1.17507e-05
1.35031e-05
7.63037e-06
0.000184995
0.00020822
-0.000164928
-0.000187184
0.000182279
0.000188909
0.000136875
2.68119e-05
-3.52097e-05
-0.000132852
0.000151699
3.75334e-05
-5.6381e-05
-1.32369e-05
-6.06605e-06
0.000204297
-8.1466e-06
-3.61102e-05
-0.000102808
9.26185e-05
0.00016551
-3.15822e-06
0.000115973
-0.000187883
0.000154071
2.21595e-05
0.000161707
0.000202177
0.000167631
0.00017044
0.000191378
0.000173936
6.12264e-06
0.000179891
6.72593e-05
-2.76781e-05
7.86401e-05
-4.98564e-05
5.80055e-05
-9.79469e-05
0.000103344
6.19308e-05
-4.77558e-05
0.000101243
0.000174664
-8.31077e-05
8.5713e-05
-0.000177158
2.67368e-07
8.01369e-06
1.84033e-05
4.79136e-06
1.29674e-05
1.71614e-05
-3.01292e-05
-8.70665e-06
5.08915e-06
3.6201e-06
4.60828e-06
9.82107e-06
-1.44296e-05
-1.32781e-05
2.73697e-05
1.8402e-05
-3.24936e-05
5.08828e-06
-6.57864e-06
1.4459e-05
-3.61707e-06
1.57293e-05
-3.5584e-05
1.67204e-05
5.36091e-06
-1.03956e-05
5.03314e-06
-1.0612e-05
5.57893e-06
5.03078e-06
6.0719e-06
-1.38311e-05
7.75875e-06
-1.05854e-06
-3.57622e-05
1.29225e-05
2.3898e-05
2.97506e-06
-3.10101e-06
5.48386e-06
-7.63667e-06
1.13148e-05
-1.54748e-05
9.7502e-06
1.19325e-05
5.30693e-06
-1.7239e-05
-2.29397e-05
1.11834e-05
1.17556e-05
1.79935e-05
-2.7188e-05
9.19887e-06
-8.62664e-06
2.03971e-05
-3.03657e-05
1.85959e-05
1.12932e-05
-1.16724e-05
1.23117e-05
-1.1646e-05
6.46555e-06
-2.67643e-05
1.28135e-05
2.04269e-05
-1.03905e-05
1.71132e-05
-2.71504e-05
-3.11736e-05
-9.16468e-06
2.02633e-05
2.00732e-05
2.2847e-05
-7.67302e-06
-3.45776e-05
1.94034e-05
-1.07825e-05
2.42258e-05
-2.92291e-05
1.5785e-05
8.98333e-06
-5.87026e-06
1.73116e-05
-1.25818e-05
-9.60878e-06
7.22903e-06
-2.38832e-05
1.74943e-05
-5.08358e-06
4.20255e-06
5.96902e-06
1.32272e-05
7.79192e-06
-1.11953e-05
1.86223e-05
-7.55595e-06
1.63034e-05
-2.518e-05
2.1541e-05
-1.02534e-05
1.38922e-05
-2.3599e-05
2.78641e-06
1.57283e-05
6.34861e-06
-3.2827e-05
1.04332e-05
-7.85594e-06
-6.19319e-06
-2.07196e-06
-1.21496e-05
-5.7164e-06
-8.11375e-06
9.93307e-06
-2.13935e-06
1.40506e-05
-4.51591e-06
-3.4961e-06
5.41728e-06
-3.79436e-06
1.4153e-05
8.56058e-06
-3.39039e-05
8.99122e-06
-2.69376e-05
-3.44853e-05
1.50665e-05
1.3137e-05
9.62903e-06
-3.04378e-05
2.05683e-05
2.42641e-05
-3.06795e-05
2.17036e-05
2.23905e-05
1.50112e-05
1.17294e-05
1.32277e-05
1.6799e-05
-1.79956e-05
2.09127e-05
-1.24345e-05
1.55066e-05