/*--------------------------------*- C++ -*----------------------------------*\
| =========                 |                                                 |
| \\      /  F ield         | OpenFOAM: The Open Source CFD Toolbox           |
|  \\    /   O peration     | Version:  2506                                  |
|   \\  /    A nd           | Website:  www.openfoam.com                      |
|    \\/     M anipulation  |                                                 |
\*---------------------------------------------------------------------------*/
FoamFile
{
    version     2.0;
    format      ascii;
    arch        "LSB;label=32;scalar=64";
    class       volVectorField;
    location    "1200";
    object      U;
}
// * * * * * * * * * * * * * * * * * * * * * * * * * * * * * * * * * * * * * //

dimensions      [0 1 -1 0 0 0 0];

internalField   nonuniform List<vector> 
48448
(
(27.0592 -28.2386 9.32189)
(9.77097 -11.2824 18.0684)
(11.4162 5.08755 -7.8164)
(8.97464 -4.85758 -0.229037)
(22.4148 -30.7377 4.24655)
(20.018 -20.5852 1.15596)
(22.5284 -36.3814 3.20586)
(15.8124 -14.6083 1.58737)
(-11.3526 -0.993387 25.2511)
(-9.06121 1.58728 26.9785)
(-13.9985 0.262936 17.4762)
(-4.70412 4.66848 18.6039)
(-5.41175 2.26137 23.4784)
(-9.88505 -2.987 25.7703)
(-8.05857 0.975901 18.7001)
(-12.7235 -0.91246 22.4671)
(5.95719 14.7988 0.638482)
(2.84279 8.7818 10.6519)
(8.51718 1.32484 6.55822)
(10.3867 13.55 0.900737)
(2.1234 23.2819 -1.83065)
(8.09133 18.7267 4.1782)
(5.41633 13.3658 1.35219)
(12.8932 10.4439 5.17959)
(13.2407 4.30028 -3.79491)
(8.14781 5.50777 1.00921)
(12.731 15.6614 -0.356528)
(17.8176 4.85276 5.9517)
(13.577 9.99953 -2.57686)
(10.1166 11.481 1.03798)
(16.9072 7.55508 2.80441)
(14.0487 9.94467 3.83327)
(5.76163 5.38391 10.3702)
(3.92982 18.1507 -10.9601)
(11.8213 9.40231 -5.34475)
(0.167923 13.9837 4.02087)
(9.61529 12.4234 -0.076682)
(4.79431 15.4279 -13.124)
(6.2406 8.5987 5.12733)
(9.99147 8.84647 -7.9628)
(2.90889 2.42452 11.6297)
(-1.82304 19.4379 12.4337)
(-8.96741 0.712185 12.1489)
(-1.65762 11.6159 -0.463394)
(-3.42511 12.1346 4.26732)
(-2.57199 13.3141 5.2019)
(-2.46338 13.9091 -2.74782)
(-5.15584 12.7811 0.381913)
(5.20106 14.1303 -9.92508)
(11.3387 4.45409 -3.46416)
(4.2739 11.5631 -3.00008)
(10.9368 15.5977 -1.43163)
(5.10184 16.6993 -11.5307)
(7.59053 12.5123 -6.12076)
(7.92734 19.7368 -7.02541)
(6.61021 13.5803 -7.23342)
(2.81714 11.1948 -2.7258)
(9.80294 19.533 -2.77829)
(3.98143 19.0235 5.56871)
(-1.60513 5.30559 8.89341)
(0.653015 22.6263 -2.45381)
(4.88626 19.9208 -5.28668)
(4.31002 19.1072 1.50354)
(4.67814 18.026 4.95919)
(35.4583 -48.3082 -3.89251)
(12.2908 -9.38698 -5.26558)
(3.56748 -2.05993 1.00191)
(9.15669 -14.8946 1.32093)
(27.3399 -47.0813 2.65312)
(28.1293 -39.2927 2.79398)
(5.6701 -14.3907 -0.560713)
(6.34292 -9.14602 0.765335)
(5.10943 15.7629 -2.28608)
(2.95283 0.366335 1.86707)
(4.15897 7.784 -4.79574)
(6.89786 13.4362 -4.93003)
(5.9672 11.8987 1.50741)
(1.40253 12.3965 0.469926)
(6.72752 12.5219 -1.27662)
(1.23359 11.1487 2.66255)
(0.971476 2.00601 -3.02053)
(2.8318 0.907153 -6.67229)
(1.93307 -4.15889 -3.43055)
(6.68865 -0.707601 -4.37526)
(4.84979 1.21634 -5.64079)
(1.38174 0.207545 -5.30433)
(6.10126 2.04885 -4.34313)
(1.52471 -1.12002 -3.2199)
(11.8829 -2.62946 -0.735646)
(15.5524 18.2462 -4.44305)
(21.0699 7.79876 0.519275)
(21.2597 5.71502 5.47057)
(15.5052 9.11237 1.1585)
(17.8354 9.90225 0.025608)
(22.499 7.22908 2.25152)
(19.4256 9.57677 -1.1598)
(1.64886 12.1882 -7.01844)
(0.991391 -3.60482 -3.42661)
(4.55229 3.41263 3.08082)
(10.785 17.0471 -6.54513)
(2.87944 12.4074 -6.66711)
(2.61606 2.26049 -5.28189)
(5.99275 13.2313 -4.85809)
(1.44366 3.44963 2.35829)
(-5.94467 10.6465 -4.65313)
(8.47512 16.7638 -4.24792)
(6.81482 9.12789 -4.42951)
(1.29164 -4.10212 -1.47222)
(-3.89573 7.2367 -5.07525)
(5.80785 15.2398 -1.59632)
(2.40627 6.0239 -3.08322)
(4.02558 10.271 -4.96209)
(-1.79832 -1.18569 -1.55656)
(14.2053 1.11302 1.72595)
(15.1099 16.6228 -4.95126)
(15.7675 7.22108 -1.9056)
(4.08946 -0.18011 0.265686)
(7.77635 6.2517 0.820274)
(13.2286 6.21587 -2.52206)
(17.4289 9.06582 -2.18552)
(0.589526 1.20579 0.585129)
(7.09165 3.77991 -4.92486)
(6.69195 16.0454 -4.59929)
(1.90564 9.01157 -7.30101)
(7.09805 5.4199 -2.63553)
(7.56163 4.2376 -4.89899)
(6.69799 7.35502 -3.16382)
(7.99706 7.05 -5.25815)
(0.757851 8.2961 7.46983)
(-2.93672 10.0578 9.25097)
(3.14039 2.338 -9.73323)
(-1.77187 16.0313 5.62884)
(-4.3562 15.6872 2.79067)
(-1.3773 11.2163 10.1418)
(-7.06334 15.1836 2.78796)
(0.150225 14.8972 11.8008)
(-4.53495 9.58661 18.1191)
(-9.7004 9.09657 28.6122)
(2.84989 12.3528 7.73599)
(-11.0822 7.70483 16.6649)
(-3.89212 9.00729 17.9878)
(-5.46412 12.3952 19.4621)
(-3.5029 10.148 11.6108)
(0.233121 14.3968 11.1993)
(14.7108 0.298489 -4.76748)
(4.31826 -1.68637 1.28441)
(4.46626 -4.86182 -5.9788)
(-1.56857 3.27138 -3.56482)
(6.49095 3.35584 -2.53231)
(9.92983 -1.31119 -3.67954)
(2.68472 -0.720889 -5.74754)
(5.76535 -0.778068 -4.11622)
(-0.0869463 13.8895 7.73569)
(2.33614 11.6551 11.3152)
(0.973365 12.3541 -1.34685)
(1.46581 9.40375 3.43184)
(1.93897 11.8927 7.70601)
(1.68322 14.008 7.09033)
(2.51949 16.3306 7.2757)
(2.69983 18.787 6.30056)
(-4.9756 9.21786 11.3068)
(13.0288 3.73754 4.14673)
(0.480752 14.5583 7.4688)
(-5.39466 13.1784 11.2425)
(-5.68189 11.8107 7.04906)
(4.9749 17.4408 8.96995)
(-4.06722 9.87788 8.20451)
(-0.810383 13.7821 7.16865)
(-4.68635 11.7875 13.4308)
(-8.6772 13.5557 11.1643)
(1.13635 9.11323 7.14017)
(14.4015 3.27398 -4.68066)
(-2.66811 14.2282 7.81177)
(-3.86348 17.0096 8.0355)
(1.80279 0.346809 4.86776)
(0.627258 8.87645 5.67328)
(8.24282 -0.745208 0.168009)
(-1.04441 17.7533 7.27202)
(-0.509181 18.4688 6.84283)
(-1.14971 5.05819 -2.72863)
(3.98455 7.45831 2.09505)
(1.33502 16.4504 5.56595)
(1.87264 13.8847 -2.69533)
(-0.550094 19.4337 6.18825)
(16.067 5.27958 -4.09149)
(-2.10029 8.29263 -4.58965)
(-0.840501 21.2108 6.00118)
(1.73429 -2.6171 -0.0888366)
(9.69079 0.432594 -5.92621)
(2.22716 11.7078 -0.091086)
(3.95357 -1.88287 -4.07274)
(1.10616 15.9354 2.00868)
(5.03615 -12.0898 -2.80153)
(-0.993011 11.1199 13.8082)
(-8.96452 0.465696 7.25941)
(-3.81719 -4.65503 -12.3355)
(2.91009 -12.7577 -6.85915)
(-2.3021 -3.85951 10.79)
(-4.51545 -6.64313 -13.644)
(-9.08696 3.1838 6.89196)
(-2.90322 10.5724 16.8071)
(-9.0164 9.70917 28.1413)
(-3.26074 13.7026 20.8746)
(2.26248 12.5055 5.93112)
(-2.70874 12.847 16.2878)
(-7.99502 10.7059 28.1258)
(-3.02202 19.1539 17.2635)
(-8.20971 18.8646 24.9541)
(-3.75947 -0.434474 4.13029)
(2.45601 -0.0620859 6.37367)
(-0.301821 -0.129612 -2.77729)
(9.38399 -4.02449 -2.94822)
(2.8037 -1.49387 -1.24397)
(-0.364919 -0.185197 -1.21863)
(2.46171 -0.895874 -3.52354)
(-0.664741 0.138459 -4.1609)
(17.4814 -0.96521 -4.13272)
(11.9598 -2.5236 1.24786)
(16.6514 -7.30998 -1.46119)
(8.95837 -6.5609 -1.97776)
(16.4612 -3.65545 -2.48841)
(13.3288 -3.36294 0.109283)
(16.1681 -4.50972 -3.68583)
(15.7944 -5.7765 -1.61271)
(-1.8672 8.59327 10.6121)
(-4.97751 3.70682 9.95978)
(14.1296 -1.58053 -4.91011)
(2.62117 6.43904 2.6103)
(-2.30174 10.6933 9.17666)
(-3.78251 5.61848 7.53351)
(-3.00967 3.32995 6.80852)
(-4.6921 -0.637386 7.99077)
(-3.70885 11.5101 19.6938)
(4.32241 6.24676 3.38882)
(-3.69311 13.3187 21.0466)
(-1.37412 8.29874 11.6608)
(-0.46014 12.7596 14.0259)
(0.588725 12.1567 10.5824)
(-1.19158 8.54671 11.9759)
(-0.656842 8.58281 10.1506)
(-5.58074 -1.83052 5.51629)
(17.1373 -0.830186 -4.93996)
(5.51533 3.0523 5.20224)
(3.44369 4.63889 3.20268)
(-2.17233 0.107151 4.71444)
(-1.78358 0.866146 5.41839)
(-0.176024 2.48748 -1.99175)
(1.89928 5.28525 -0.0969602)
(-3.57691 -0.301763 4.42963)
(9.35731 -1.28191 -0.686821)
(5.55246 3.95584 2.56195)
(2.36887 3.26242 5.53791)
(3.37643 2.59376 -0.235555)
(7.85018 0.205108 0.267545)
(3.85454 2.52065 -0.21198)
(6.67765 0.709365 0.943691)
(-8.56106 9.93931 27.3096)
(-1.64441 9.17898 17.1401)
(1.66806 13.1621 7.58456)
(-9.43647 14.2137 19.1601)
(-10.3506 13.8662 28.2553)
(-7.3912 14.4265 22.3087)
(-6.90699 13.9614 19.3683)
(-2.97496 17.6632 14.0878)
(7.83154 -0.968489 7.12225)
(7.40371 -0.431274 4.46034)
(14.9691 -7.45939 -0.512581)
(12.9542 -3.40289 4.33043)
(9.58302 -2.37193 5.1457)
(5.95571 -1.86749 1.35535)
(12.5371 -4.32663 4.17743)
(12.9852 -7.34133 2.38086)
(11.8089 -2.68468 -0.632268)
(14.5519 -8.05254 -0.380828)
(5.05932 -5.24622 0.0581517)
(5.74174 -1.08532 -3.16348)
(12.0241 -4.4169 -1.5829)
(13.2915 -5.09626 -0.28295)
(7.66851 -2.6733 -1.55541)
(5.50305 -4.83581 -0.215539)
(12.4815 8.09637 7.25404)
(14.1608 1.10196 3.16122)
(15.4201 2.83373 0.291232)
(21.3558 4.16991 5.83327)
(14.6209 7.0919 3.5603)
(16.9025 5.79979 2.41399)
(22.6428 5.72267 4.09263)
(22.5175 6.39976 2.51665)
(6.91072 2.96933 10.8529)
(7.10968 4.82379 0.847558)
(0.967427 6.53645 6.15542)
(10.1472 1.34236 3.79301)
(9.2746 2.59428 7.10655)
(3.62239 7.08847 6.503)
(9.46801 2.18985 5.2208)
(1.89286 8.61073 6.11583)
(6.0035 3.99764 8.45377)
(13.2874 -1.71237 5.4745)
(11.5529 -4.05727 2.23123)
(6.36633 3.10498 4.53246)
(9.96192 0.543803 4.61221)
(11.7329 -0.651269 5.33325)
(9.99681 -1.82546 1.84747)
(9.88662 -2.91061 2.54304)
(6.97561 -0.744738 1.79354)
(12.0877 7.62424 0.775195)
(13.4199 -0.43554 2.60244)
(14.7079 1.58871 0.311782)
(10.6385 1.45338 -0.457579)
(11.9602 6.25031 1.79881)
(8.33233 -0.131601 -0.987813)
(14.1572 2.6168 2.08385)
(7.97484 -2.94164 1.93597)
(12.1104 0.108608 -3.1611)
(15.2774 -2.67059 2.97167)
(13.3801 -5.04647 -0.495902)
(10.5771 -3.9853 -0.872914)
(9.24043 -3.94081 -0.246494)
(11.9285 -4.56197 1.42947)
(11.227 -3.87606 1.27377)
(0.61359 -43.8583 -67.9541)
(2.10578 -50.2647 -119.74)
(9.88047 -51.2824 -79.1885)
(2.59013 -46.165 -104.27)
(0.317434 -42.3341 -85.9375)
(-0.512897 -45.7382 -103.621)
(-3.5286 -49.8585 -79.4068)
(-3.02208 -48.5283 -99.3163)
(1.38964 -24.0804 -155.656)
(3.62396 4.14491 -112.413)
(-9.17494 -10.7458 -114.961)
(7.43284 -9.43479 -246.309)
(5.40651 -14.6335 -189.165)
(-6.29141 0.557258 -126.386)
(3.55502 -19.1429 -212.016)
(-4.27729 -0.115817 -149.991)
(0.406913 -47.2277 -69.6264)
(-4.82072 -27.1486 -113.282)
(6.36821 -46.8918 -82.4407)
(-6.02831 -36.8757 -162.021)
(-11.9129 -38.13 -110.448)
(-3.78563 -31.9294 -118.506)
(-11.5163 -42.1951 -128.607)
(-15.8266 -35.0327 -118.423)
(-1.2543 -14.9017 -136.436)
(13.8624 -20.9451 -313.223)
(-0.0794324 -42.2254 -206.338)
(19.1136 0.995104 -162.587)
(15.4752 -29.8248 -181.491)
(-8.25776 -27.2494 -254.809)
(9.22836 -19.138 -153.674)
(6.03037 -29.994 -251.069)
(1.50503 -36.2017 -143.739)
(2.64503 -54.7454 -105.635)
(6.23262 -42.0795 -135.081)
(4.89021 -29.0805 -241.991)
(-8.44955 -34.5193 -165.293)
(-14.9878 -49.0121 -119.441)
(1.89725 -24.3719 -191.592)
(-8.92651 -28.5945 -147.802)
(-3.69543 -35.5164 -121.812)
(-7.12143 -15.4729 -244.253)
(-14.0401 -16.0764 -139.832)
(1.91422 -53.6226 -123.105)
(3.71395 -33.3898 -165.512)
(8.09149 -25.0411 -211.684)
(-3.79479 -43.9033 -67.1525)
(1.62564 -24.3727 -152.811)
(-14.1582 -32.2874 -82.0034)
(-4.62906 -34.2381 -137.902)
(5.38122 -33.724 -238.099)
(-8.7838 -31.7403 -171.262)
(-20.4822 -19.7821 -106.163)
(-1.20009 -35.7114 -169.403)
(0.119117 -39.1268 -164.611)
(8.92891 -34.072 -216.752)
(-15.4604 -46.6357 -112.505)
(-5.56982 -32.0906 -196.075)
(-7.18401 -17.0638 -243.265)
(-14.8449 -21.9641 -145.842)
(-5.15533 -34.0324 -160.186)
(-9.02054 -26.3651 -195.589)
(-1.04968 -31.798 -170.923)
(9.79263 -15.3942 -204.945)
(77.9978 -70.5882 -9.60139)
(31.1097 -13.1339 -14.8687)
(46.3182 -54.6798 -9.66553)
(16.6698 -13.8503 -12.9766)
(51.3416 -59.2289 -13.0831)
(42.7351 -45.792 -6.98658)
(48.7052 -59.2404 -11.2179)
(45.3311 -55.6445 -9.96843)
(-1.09358 -4.96926 -11.9768)
(-0.520567 -5.02194 -7.11737)
(2.34123 1.03336 -5.11559)
(-0.712646 0.537296 -6.61563)
(-2.6553 -0.243278 -8.21762)
(-1.89243 -1.87815 -4.25597)
(-0.810697 -1.49038 -6.61374)
(1.07623 -1.67964 -4.46283)
(39.6703 -49.7067 -5.43616)
(2.82694 -8.45641 2.9677)
(25.7361 -37.9383 3.15196)
(10.6113 -0.805356 -3.47523)
(33.9005 -46.5725 -5.60269)
(26.7707 -45.3092 1.85095)
(32.4828 -42.8146 -5.35286)
(29.0303 -42.4254 -2.00992)
(6.18934 4.67895 1.38196)
(0.845931 6.92378 -2.34189)
(15.4401 0.437798 0.802355)
(6.32589 -6.6422 2.79826)
(-1.62539 8.14831 1.15126)
(4.08534 -2.05526 5.27956)
(-0.900173 9.82456 -2.64548)
(2.51094 10.1114 1.66581)
(11.8282 -9.68936 -12.1487)
(42.5116 -52.5227 -8.06097)
(13.5581 -7.60584 1.1987)
(-5.94561 7.33917 -0.365461)
(9.84379 -4.16507 -11.9605)
(36.7448 -48.1213 -1.8976)
(-1.55141 5.92975 1.32039)
(15.4209 -13.8651 -0.819853)
(5.07282 -5.89365 -13.038)
(-5.19204 6.47096 -3.53735)
(2.28025 2.34784 -1.81951)
(34.176 -47.9565 -6.01415)
(-1.49735 -3.97071 -4.90905)
(-7.56518 0.0133251 -2.90494)
(0.186718 -12.1934 -3.72496)
(1.18724 -3.1356 -4.03307)
(40.6218 -50.7794 -9.29291)
(9.48637 -1.99826 -4.47976)
(-3.74492 7.06286 0.00635086)
(12.7804 -8.89551 -0.235679)
(15.8271 -11.1928 -4.31078)
(10.0025 -7.22604 -0.071356)
(6.46279 -6.5931 -0.820018)
(0.632172 0.249372 4.05033)
(38.3432 -48.6103 -8.35232)
(1.88909 5.14871 -2.18969)
(-6.40326 8.02731 -2.89404)
(1.43889 -7.77745 -1.56003)
(23.8264 -43.6706 -1.5182)
(-8.04 7.11495 -4.61375)
(2.03862 -12.6921 0.228173)
(-12.1581 8.65993 -4.26469)
(-56.8003 -22.8224 -121.813)
(-56.4921 -29.0224 -165.347)
(3.70749 -22.076 -38.9192)
(-14.5465 -19.8354 -98.5409)
(-60.5826 -41.5418 -156.196)
(-49.2573 -17.5471 -135.004)
(-25.4974 -30.4034 -83.7367)
(-25.3944 -20.7148 -81.7168)
(-51.6367 -29.69 -196.427)
(-41.2137 -42.16 -237.812)
(-23.0963 -41.6408 -31.1042)
(19.5265 -25.8263 -111.368)
(-54.8746 -47.1271 -220.237)
(-43.3446 -32.0337 -216.867)
(-21.3313 -15.6455 -109.456)
(-2.26483 -12.036 -95.5131)
(-2.22563 28.122 -34.9782)
(-36.8853 6.25233 2.05951)
(24.1218 -30.2356 57.7543)
(-35.676 8.6001 -7.95558)
(-52.6794 -2.02137 14.4686)
(-35.4659 -15.5863 -46.9373)
(9.46006 -24.1908 17.2328)
(-13.2008 -34.7436 14.2699)
(14.6657 0.931004 -61.3153)
(16.5757 -12.045 -63.6054)
(-21.4944 -23.5934 -40.4298)
(11.949 -10.9141 -32.2131)
(18.3995 -5.92384 -77.5342)
(7.88099 -1.35995 -71.7827)
(25.396 -2.24287 -60.7659)
(21.286 -6.4583 -54.6999)
(-58.8958 -40.1355 -186.466)
(-3.34562 -48.5338 -58.8886)
(-4.813 -17.5024 -108.32)
(5.13383 -25.5554 -117.684)
(-23.1835 -27.5492 -92.9388)
(-19.5145 -39.9063 -90.1074)
(-3.92262 -14.5213 -113.611)
(-14.2832 -26.0223 -97.2684)
(-46.848 -18.5422 -162.738)
(-2.0522 -17.4559 -113.75)
(-25.3197 -30.5297 -41.8381)
(-3.79021 -26.8849 -50.2093)
(-14.796 -26.4523 -91.5245)
(-17.2736 -27.2151 -97.018)
(0.211341 -44.0266 -58.065)
(17.7036 -21.5675 -49.4165)
(-10.6853 -42.5273 -19.2464)
(-5.31166 -0.249485 -61.6317)
(24.6329 8.70441 -96.2627)
(29.8081 20.8435 -18.2161)
(-48.2501 -37.7676 10.1515)
(9.48217 -2.37563 -75.7078)
(-20.4003 15.9746 -25.3252)
(16.2548 4.6156 -88.0611)
(-12.8359 20.5353 3.03686)
(1.82068 -0.845997 -6.20871)
(27.1092 16.9266 -70.7756)
(81.6299 -11.3947 37.787)
(-15.4146 42.5215 7.3885)
(-23.3033 8.09593 -21.2372)
(50.9517 74.5772 -36.0919)
(-13.2726 -3.85263 -48.8688)
(-17.8581 -17.2554 -66.1063)
(34.6215 -32.5437 -27.8238)
(-30.2318 -23.3236 -151.568)
(-33.1105 -3.52947 -71.1195)
(-5.40935 -4.60289 -56.2254)
(12.9756 -25.6386 -64.0937)
(-35.0177 12.691 -94.1497)
(-6.88744 8.40676 -63.657)
(1.669 -0.683313 12.9044)
(24.5945 -30.2642 64.8305)
(-22.5667 -11.9375 -77.5579)
(-25.3619 -5.74282 -28.1811)
(-4.18678 -11.1544 20.4143)
(6.12014 -14.5391 38.7525)
(4.49769 3.01328 -54.5641)
(-19.1614 -2.29685 5.53969)
(-27.7301 12.984 -273.076)
(-90.3004 -1.90753 -34.0954)
(-41.2755 -16.2485 -299.407)
(26.9711 -20.4551 -137.08)
(-83.2715 -16.6947 -216.819)
(210.658 147.178 30.6088)
(-84.9642 -57.7385 -200.474)
(-7.48834 -17.0699 -148.257)
(3.97697 -40.891 -61.2112)
(-31.0538 -48.2111 -36.6052)
(-11.4661 1.04616 -77.8309)
(-1.20139 13.9678 -31.6774)
(21.9946 -46.3691 -54.4381)
(-10.0891 -83.4437 -26.0537)
(13.6638 9.37533 -116.02)
(32.4251 -7.63934 -80.6983)
(41.4438 -25.3056 -17.3809)
(-37.5359 -5.9826 -79.8322)
(-13.5566 0.848288 -61.0543)
(-7.44351 -9.89963 -25.4998)
(8.27642 5.68497 -70.4216)
(-11.316 37.7924 -38.6635)
(-18.1971 -0.418193 -41.5054)
(-40.5272 19.7295 -46.3385)
(58.2919 -13.785 -0.220748)
(-10.9514 2.12466 -78.133)
(-45.8694 -16.9776 -116.594)
(-14.7264 -10.7043 -82.2927)
(7.36134 5.26795 -31.6756)
(21.6711 -1.72621 -26.4774)
(19.1305 -10.6636 -94.888)
(-19.8148 0.758499 -33.8492)
(-11.9648 -43.4597 -155.088)
(-1.22088 -75.9346 -91.7014)
(-43.2791 -75.4826 22.2186)
(-0.273205 8.28409 -173.727)
(-12.4252 -39.3582 -135.103)
(-14.7252 -23.0089 -72.4877)
(16.787 -72.6102 -110.608)
(-38.1564 -51.6194 24.611)
(-45.2373 -3.20181 -73.1791)
(31.6132 2.62647 -126.411)
(-18.1305 -11.722 -44.6704)
(-41.1026 1.93153 -35.5262)
(-121.269 -7.41255 112.665)
(8.11039 -47.6926 48.5669)
(-137.292 -56.8146 53.8576)
(-21.1633 -35.6524 -26.0011)
(9.9784 10.9582 29.1982)
(7.06129 5.75763 29.9914)
(-4.81438 4.31176 26.504)
(4.08455 -2.29404 30.3551)
(8.21152 11.0399 28.1712)
(10.4115 16.2346 30.9365)
(-0.668285 1.60194 25.6548)
(3.0821 6.08304 30.8665)
(4.68676 4.11954 30.5579)
(-8.14979 1.21738 28.1977)
(0.875958 5.03777 29.4545)
(-5.76898 -2.0081 27.3837)
(-3.06874 2.75217 30.1822)
(-3.05537 4.27766 29.756)
(-0.0488447 5.50808 30.807)
(-1.92387 3.83416 31.3371)
(-9.05041 3.01923 29.2038)
(-3.17259 -7.47506 25.3764)
(-6.52595 -9.84405 32.983)
(-2.26425 -23.0558 33.8672)
(-7.40877 -3.31278 30.2176)
(-8.20081 3.65087 28.204)
(-5.81217 -17.5036 35.4735)
(-6.42843 -13.1769 32.3969)
(0.350196 -21.6105 30.6646)
(6.75763 -37.2339 31.2393)
(3.99924 -34.7752 32.3542)
(8.90298 -41.4495 33.3208)
(2.31938 -29.3467 30.3769)
(2.66882 -30.6375 25.4254)
(5.78568 -38.3549 34.8897)
(6.41712 -36.2819 32.2057)
(5.07574 7.13056 30.8376)
(-0.295101 5.94973 28.4398)
(2.89367 2.50751 30.1826)
(0.852706 3.40194 31.6086)
(4.13092 7.85176 30.4519)
(6.03848 8.34536 30.8543)
(4.29666 8.91097 32.3409)
(4.31976 10.6368 30.2551)
(4.72898 9.47759 31.058)
(0.132904 11.8928 34.1791)
(4.84626 15.6166 32.6804)
(0.886727 9.94015 29.1108)
(4.54341 6.69607 31.3336)
(3.75778 8.95827 33.7696)
(2.23938 7.26816 27.1878)
(2.47422 6.74594 31.4557)
(-7.04332 -5.40526 28.2172)
(-2.94387 -21.8678 30.909)
(3.2632 -24.5158 29.6431)
(0.152688 -29.5718 34.7806)
(-5.5505 -9.66653 33.1477)
(0.273773 -7.60714 29.2584)
(-3.66285 -15.008 31.4138)
(1.23161 -19.5511 28.8817)
(-7.02596 0.277501 30.6359)
(0.0698913 -25.4751 31.8877)
(2.87242 -13.4822 30.6941)
(-0.810458 -2.1321 32.0932)
(-6.13977 -6.32924 31.353)
(-3.66207 -7.31934 28.276)
(-3.12586 -8.60914 27.3259)
(2.08248 -14.273 30.0073)
(-4.92515 2.77686 39.1888)
(-10.1478 -2.12673 36.644)
(3.31976 8.66403 36.8333)
(-2.79355 -7.42152 34.2913)
(-8.33317 -1.24768 37.6557)
(-5.81942 2.55647 37.3669)
(-3.64715 1.23087 34.3384)
(-2.8824 2.1508 33.8773)
(-8.74335 -7.02861 34.4529)
(-5.26496 -9.81849 34.2662)
(0.745306 -2.01869 36.0498)
(-2.48181 -22.744 33.1077)
(-6.76307 -8.71567 33.5609)
(-7.73377 -6.79524 33.6786)
(-5.69822 -10.6543 33.1045)
(-4.77041 -11.0448 32.8062)
(1.67033 7.04809 35.6733)
(2.34387 7.6704 33.6373)
(-8.45606 1.25604 27.7485)
(-3.91176 -2.63313 30.8296)
(3.47229 5.62001 34.2667)
(1.76608 6.80331 33.0802)
(-2.39067 3.47971 30.7588)
(-3.576 3.80457 31.0747)
(1.44036 -22.7379 33.1177)
(3.77624 -34.1489 32.4301)
(5.12328 -28.9961 31.3559)
(8.4725 -39.4752 33.5535)
(3.05431 -29.6612 31.8341)
(1.03978 -26.0498 32.2124)
(8.37075 -32.4418 31.8706)
(6.47838 -32.645 30.4493)
(-8.13295 -5.21981 34.03)
(1.56896 6.9149 34.2391)
(-3.43068 -13.4408 35.3993)
(-2.17294 -18.7281 33.2075)
(-4.09864 -3.40846 33.2142)
(-4.11007 -0.432101 32.3105)
(-3.4374 -17.6291 36.294)
(-2.58022 -9.63497 32.9267)
(-9.01298 -2.05629 35.507)
(-3.44281 -18.151 35.4029)
(0.314998 4.27839 30.0593)
(1.81682 7.93747 34.1086)
(-3.3721 -2.53457 32.8689)
(-4.79577 -8.02068 33.5478)
(1.10952 7.14332 30.9162)
(3.11388 0.69874 35.14)
(0.474883 4.25041 33.4828)
(-0.243216 -13.7752 30.0933)
(1.56529 -19.67 31.4342)
(0.726433 -10.636 29.643)
(2.03685 -1.71931 32.1061)
(0.743239 -12.7794 31.4269)
(3.10651 -8.75143 32.8881)
(0.461219 -18.5313 29.0686)
(1.07151 4.64709 33.592)
(1.03208 -8.75072 29.6752)
(1.34728 -20.8109 28.5991)
(0.15714 1.40835 31.3881)
(0.0982833 2.83854 31.418)
(1.43114 -5.71984 30.8633)
(-0.115943 0.471453 32.0792)
(3.49398 -11.8384 33.1157)
(44.0423 12.9049 -105.087)
(27.7416 -1.00488 -92.2731)
(39.6989 14.7182 -100.077)
(11.3142 -19.6265 -176.247)
(30.0338 6.75047 -114.511)
(46.6872 -3.95616 -144.872)
(37.8499 16.7634 -123.459)
(40.2255 -3.78237 -152.512)
(11.4409 -0.496493 -43.2424)
(6.73401 -16.5986 -1.00467)
(2.17483 -12.1564 -19.6392)
(17.8159 -1.99935 -42.9367)
(21.6054 -5.63453 -31.9268)
(7.3619 -26.2925 0.0287251)
(12.8987 3.30191 -49.673)
(4.05881 -11.6277 -14.8169)
(49.7434 -3.94132 -123.452)
(11.6912 -5.26273 -61.6874)
(46.7185 -19.4795 4.65649)
(27.874 0.344896 -193.157)
(38.0967 -7.94976 -136.549)
(13.5977 -34.9249 8.78339)
(34.2581 -11.9059 -160.168)
(21.3109 -18.1059 -74.1714)
(11.3858 -15.964 -175.543)
(13.9559 -12.2933 -111.42)
(17.9579 -21.4397 -288.386)
(13.0864 -22.1686 -152.907)
(9.34587 -21.8407 -189.986)
(18.1762 -22.3522 -209.075)
(10.0084 -18.7463 -179.637)
(17.0623 -28.6499 -216.896)
(23.0475 -3.88526 -81.7186)
(25.3678 -0.940303 -141.204)
(18.2199 -12.5505 -182.677)
(13.4375 -5.4217 -103.932)
(25.4362 -6.46757 -95.6274)
(37.162 -6.4341 -172.041)
(23.6171 -7.05739 -95.4419)
(29.7999 -13.9479 -205.387)
(21.3943 0.411523 -69.8691)
(19.7809 -15.9018 -97.2596)
(6.22822 -40.1693 18.5474)
(39.8474 10.0672 -84.8258)
(17.835 0.131749 -81.5223)
(16.8477 -2.62737 -80.2135)
(17.1495 -1.99985 -85.5928)
(16.9947 -3.47989 -90.398)
(31.414 -0.947954 -183.853)
(13.1248 -17.4817 -175.451)
(19.8043 3.77538 -113.117)
(17.0191 -12.309 -273.801)
(23.2107 -13.7445 -224.439)
(25.9295 -16.4586 -212.642)
(20.9076 -16.2666 -225.896)
(25.2596 -19.7426 -198.857)
(23.999 -5.26731 -111.737)
(14.2838 -10.6382 -213.743)
(15.4066 -8.9177 -105.166)
(7.10669 -5.54303 -54.9853)
(25.3096 4.09068 -132.134)
(12.1965 -18.3209 -149.224)
(15.3616 -1.68763 -118.602)
(14.8695 -5.33741 -131.335)
(1.01292 6.56515 -134.034)
(6.63435 8.94938 -98.26)
(-3.48144 -1.06314 -42.2833)
(31.5369 -8.58856 -211.176)
(5.12706 -5.07634 -157.529)
(8.85974 13.6025 -127.317)
(-3.77888 -16.5329 -119.186)
(1.77302 -2.23562 -115.804)
(14.1637 5.46572 -109.035)
(30.0146 -14.5054 -50.2974)
(13.3837 -9.59952 -71.5297)
(21.5386 -3.76684 -200.682)
(12.4775 -3.25711 -94.3078)
(23.6492 -10.4698 -82.7869)
(4.77461 -7.66419 -91.9585)
(9.28934 -12.6124 -94.4926)
(5.4469 -2.29634 -19.165)
(4.31191 -3.6365 -31.8884)
(5.27768 4.90629 -2.39804)
(6.85264 -2.20101 -34.5201)
(4.86824 -2.07122 -28.6354)
(5.49313 -2.37479 -22.7374)
(-0.61962 -1.83969 -12.2059)
(0.110306 2.03154 -13.6618)
(18.4591 -19.8669 -219.646)
(18.6815 -23.363 -286.017)
(6.97683 -5.00937 -104.359)
(2.88842 -23.4899 -170.353)
(26.2404 -26.4081 -228.262)
(27.1885 -17.8201 -202.32)
(13.3529 -23.7101 -187.822)
(23.6539 -12.5559 -153.893)
(23.8813 -2.79943 -178.55)
(8.21525 -8.41848 -56.6729)
(36.3501 -13.7009 -241.588)
(22.2557 -12.4183 -268.625)
(-10.9962 -4.54693 -124.978)
(-5.45545 -0.592741 -102.32)
(10.5032 1.05347 -224.488)
(34.003 0.11679 -195.596)
(16.8903 -1.42231 -138.212)
(22.0043 -5.88593 -235.073)
(6.69808 -7.45565 -56.1162)
(5.85109 -1.03108 -34.8611)
(-3.48638 -7.46696 -126.783)
(-4.5072 -2.74033 -113.19)
(4.36487 -2.09623 -50.9261)
(13.3522 -13.9145 -76.8807)
(-0.501488 -5.78623 -51.2459)
(13.6797 -27.1073 -199.468)
(0.951769 -24.1222 -226.587)
(10.9303 -10.0453 -88.958)
(6.6344 -4.66914 -97.0737)
(18.1693 -15.3702 -190.338)
(15.0529 -13.1233 -129.482)
(17.9854 -10.0471 -181.142)
(3.47354 -0.90528 -44.9746)
(25.3606 -3.00215 -86.3531)
(6.38868 -19.2155 -224.447)
(1.07287 -10.6929 -46.6023)
(2.32941 1.22553 -38.2239)
(20.5233 -3.17458 -109.423)
(3.06495 -6.0456 -47.4235)
(7.47806 -11.6239 -131.805)
(26.5831 -102.767 2.94089)
(33.9823 -90.5605 1.82734)
(16.5841 -57.3222 -0.1546)
(16.264 -45.1038 3.31375)
(28.5616 -95.3036 6.6508)
(29.672 -97.1716 4.66773)
(20.3721 -61.941 4.36134)
(16.1546 -46.8632 0.636738)
(39.6261 -82.6837 2.44884)
(41.4798 -69.5388 4.78264)
(17.5282 -36.5423 0.748297)
(15.5188 -27.9897 7.94917)
(38.419 -76.0943 5.02423)
(41.1235 -77.9799 2.51637)
(22.3166 -44.9029 5.92099)
(13.518 -27.1047 1.42246)
(-0.724081 -5.02792 -7.62816)
(-0.109201 1.44071 -3.24397)
(1.04484 -4.31902 -2.8827)
(7.687 1.19667 0.0882192)
(-1.20712 2.17486 1.02124)
(2.02491 -5.58538 -6.95597)
(-0.226323 1.18416 1.26807)
(2.3309 -4.46983 -0.0175736)
(20.8671 -4.82035 2.65033)
(16.682 -6.79756 5.97914)
(21.2278 5.19436 1.80615)
(24.2113 2.9827 10.2888)
(11.9754 -1.98167 4.04964)
(13.8104 -6.33291 -0.327158)
(25.3943 4.25448 3.50753)
(24.0904 2.92666 4.03758)
(34.827 -85.8139 4.92108)
(12.6127 -51.3074 -1.31397)
(15.4446 -46.9098 4.84812)
(13.4219 -27.9354 1.02416)
(23.3674 -57.0163 7.07287)
(16.893 -52.8122 3.43047)
(17.9664 -38.3503 3.75927)
(16.6577 -49.318 3.85921)
(36.9901 -87.9843 3.52055)
(17.1572 -34.0126 -0.973215)
(16.1549 -37.4211 -2.84501)
(13.5951 -52.9207 -1.20116)
(16.1323 -40.5088 1.19343)
(17.3701 -36.8353 -1.50218)
(18.5781 -49.9963 3.81524)
(16.4853 -35.2434 -2.241)
(7.02095 -15.098 5.43646)
(21.8461 -15.587 11.4676)
(21.354 -5.82449 9.59057)
(17.1376 2.42393 -1.06222)
(6.97433 -2.24204 0.383335)
(23.3881 -11.7465 4.26096)
(9.92703 -1.66305 2.97527)
(18.998 -9.84872 3.15213)
(4.66514 0.485178 0.693854)
(16.9563 3.70414 0.583859)
(13.9469 -12.9464 6.69094)
(1.69812 -4.62254 4.66113)
(1.02202 1.67389 -2.29499)
(6.56582 -2.60689 -1.26243)
(2.86567 -3.19445 1.52141)
(3.60443 -1.86552 3.10905)
(73.2098 -110.796 -5.31558)
(46.0107 -117.932 1.21081)
(53.2278 -89.5728 -2.65516)
(34.5886 -79.6973 -16.7518)
(54.9821 -100.881 -7.91768)
(50.9722 -93.1336 -5.63439)
(56.4431 -97.882 -5.78266)
(54.9859 -96.696 -2.68715)
(34.742 -121.26 2.5253)
(24.925 -106.086 0.933866)
(29.3889 -93.4417 0.465749)
(16.5659 -57.0589 -1.794)
(28.4369 -107.983 2.76907)
(26.6596 -102.491 1.75698)
(29.6329 -98.3031 5.25381)
(27.4958 -97.1278 4.14983)
(46.3804 -81.0424 -1.00735)
(36.7139 -84.7746 0.219336)
(41.786 -74.2315 2.29685)
(17.5888 -38.987 -0.22179)
(45.3893 -84.9902 1.35885)
(42.8103 -75.2872 -4.28437)
(46.0564 -84.3264 4.09205)
(43.4864 -80.308 1.2043)
(2.49566 -5.81435 -9.60015)
(6.23394 -6.63857 -11.87)
(-0.748484 1.15423 -2.94027)
(1.19117 -4.80723 -4.8164)
(1.70544 -6.74703 -7.78049)
(0.701402 -2.83542 -6.21623)
(0.945658 -2.07382 -3.03706)
(-1.40175 -1.02621 -5.03558)
(38.277 -108.953 1.10228)
(53.2244 -94.4741 -0.061173)
(12.9131 -57.1035 -14.0042)
(8.84295 -58.284 -5.16046)
(43.0122 -106.569 4.59833)
(54.7292 -95.4498 -1.1405)
(25.6484 -77.673 -8.27455)
(32.6681 -70.1655 -6.40574)
(41.3591 -97.3121 -4.46151)
(24.3649 -91.1368 0.476091)
(39.323 -90.7196 -1.78058)
(48.1436 -84.0206 -6.17437)
(40.9438 -101.724 0.935624)
(41.7703 -98.838 3.42886)
(38.6713 -95.1768 -1.63945)
(40.3295 -97.1552 1.95792)
(52.6677 -92.8068 2.64692)
(5.10553 -21.2259 -8.79751)
(4.75251 -17.3986 -4.81716)
(7.27035 -17.7219 -2.37757)
(34.7467 -57.4488 5.38371)
(18.3669 -42.0947 -0.522963)
(18.5909 -44.5342 -0.721806)
(3.18301 -23.1825 -10.125)
(48.9187 -88.1958 -0.527296)
(17.4994 -37.6621 -2.25386)
(17.9438 -58.8374 2.02603)
(36.7982 -89.3347 0.883719)
(47.4744 -85.7882 0.591076)
(28.0991 -55.8922 -0.429813)
(39.3236 -92.5448 5.6776)
(14.5195 -57.9449 1.59599)
(18.5397 -11.6328 39.8188)
(7.25836 -9.85063 4.43213)
(12.9947 -6.81573 10.4875)
(18.5092 -27.0075 52.6077)
(16.8678 -12.0327 29.1847)
(7.95046 -13.4744 25.7672)
(21.551 -32.117 59.0255)
(6.07525 -24.1238 25.1912)
(5.34769 -3.32173 9.31199)
(1.34934 -0.0460054 8.30042)
(2.40734 -1.68708 14.3945)
(1.43515 -17.9514 41.2262)
(3.22739 -1.58365 8.60231)
(-0.713072 5.35534 16.2209)
(0.577655 -11.9555 16.1674)
(-0.427787 -9.08179 19.1605)
(23.7907 -19.2426 24.5959)
(6.51287 -6.57167 24.3762)
(14.9824 -9.7663 38.9214)
(10.8539 -7.93725 40.8156)
(9.50475 -1.94694 36.2287)
(4.986 -4.50383 35.061)
(15.0195 -6.87689 41.7877)
(13.8135 -10.2739 37.7112)
(15.0959 -19.3758 41.3565)
(11.6901 -11.3551 45.7243)
(10.4215 -4.24199 46.8002)
(14.6508 -1.18735 42.2176)
(15.2653 -21.1966 38.5159)
(13.302 -8.44402 40.6443)
(18.8468 -13.3261 38.4995)
(11.7137 -5.11312 44.2646)
(5.53013 -6.21039 11.5548)
(15.0756 -9.25788 39.4928)
(12.5691 -27.2908 50.6914)
(4.94686 -24.3442 42.1862)
(3.43516 -18.5395 32.6679)
(5.96739 -19.5448 25.7036)
(3.35854 -24.3598 39.8215)
(11.5251 -24.5893 43.0834)
(1.71785 -1.92301 19.2092)
(5.78583 -19.1511 42.2689)
(1.19095 -1.79588 18.8855)
(7.45306 -8.66674 26.4831)
(1.61874 -14.4487 22.1304)
(0.774439 -12.7114 18.8418)
(8.3925 -9.43508 7.77044)
(3.4652 -7.24451 8.42353)
(21.7356 -21.9617 58.1044)
(17.5828 -22.0995 42.0445)
(15.7954 -19.8122 51.2276)
(12.709 -5.7403 43.6769)
(19.9769 -22.3716 51.3869)
(18.3915 -20.47 44.0371)
(14.3954 -16.3504 52.8607)
(16.1578 -16.2109 47.6385)
(9.74627 -22.2643 11.7999)
(10.4961 -2.83683 42.0291)
(9.34895 -11.3378 45.1789)
(5.22995 -9.79963 28.342)
(5.29669 -15.2091 20.0443)
(9.76116 -12.6674 42.4425)
(2.19531 -12.9626 26.1174)
(4.7501 -11.1394 41.2469)
(2.80035 -0.0296581 28.6502)
(2.86808 -0.369041 31.4631)
(4.92868 -1.84216 32.5568)
(4.23211 -0.21197 31.8462)
(4.22865 0.0119505 32.3107)
(4.32982 0.539701 31.8044)
(4.30639 0.426757 32.3494)
(4.50997 -0.549686 31.6721)
(2.61671 -1.40111 33.8835)
(2.49687 -1.22324 38.3906)
(8.30242 -0.457424 40.3026)
(4.76759 -0.146503 36.4649)
(4.3257 -0.911395 36.9619)
(4.84947 -1.13637 37.713)
(5.8669 -0.337936 36.8403)
(5.36771 -0.37155 38.1829)
(9.00149 -4.47216 37.0348)
(10.1042 -1.66189 40.9049)
(11.5063 -3.63289 46.2451)
(9.96174 -0.664519 37.1932)
(11.2021 -2.96185 40.8775)
(9.87247 -3.11015 39.6918)
(11.1437 -2.90319 38.9032)
(8.84791 -1.41836 38.0163)
(5.96762 -0.250107 31.9134)
(8.09122 -0.00380932 35.6489)
(12.1205 -2.20874 35.4686)
(11.2903 0.841194 31.9756)
(8.84531 0.146499 33.9699)
(9.97829 -0.508099 34.0995)
(10.6885 -1.34374 32.5027)
(11.2607 -0.639533 33.9213)
(4.44663 -0.830599 34.6204)
(6.8595 -1.48063 35.2393)
(6.06754 0.195442 33.8395)
(6.82457 -0.518338 36.0635)
(5.34548 0.00977817 33.8271)
(6.5573 -0.398834 34.2045)
(4.81368 -0.346259 33.4732)