/*--------------------------------*- C++ -*----------------------------------*\
| =========                 |                                                 |
| \\      /  F ield         | OpenFOAM: The Open Source CFD Toolbox           |
|  \\    /   O peration     | Version:  2506                                  |
|   \\  /    A nd           | Website:  www.openfoam.com                      |
|    \\/     M anipulation  |                                                 |
\*---------------------------------------------------------------------------*/
FoamFile
{
    version     2.0;
    format      ascii;
    arch        "LSB;label=32;scalar=64";
    class       volScalarField;
    location    "900";
    object      p;
}
// * * * * * * * * * * * * * * * * * * * * * * * * * * * * * * * * * * * * * //

dimensions      [0 2 -2 0 0 0 0];

internalField   nonuniform List<scalar> 
71680
(
-0.0487684
-0.0452056
-0.0626294
-0.0464642
-0.0471807
-0.0504661
-0.0524595
-0.0555117
-0.0408301
-0.0378954
-0.0566186
-0.045692
-0.0348892
-0.0431978
-0.0479118
-0.0448063
-0.0841703
-0.0854349
-0.120976
-0.0921087
-0.0836778
-0.0985385
-0.099156
-0.0990953
-0.0498834
-0.0534388
-0.0736861
-0.0503089
-0.0525181
-0.0584454
-0.0584614
-0.0656269
-0.0415526
-0.065126
-0.0476343
-0.047603
-0.0514655
-0.0547431
-0.0456246
-0.0536583
-0.0461649
-0.0546553
-0.0701536
-0.0682102
-0.0522835
-0.0537226
-0.0630168
-0.0582461
-0.0766913
-0.053843
-0.0567374
-0.0801706
-0.0685687
-0.0589349
-0.0641064
-0.0607726
-0.0770649
-0.089415
-0.0616757
-0.0733104
-0.0777032
-0.075823
-0.0715111
-0.0652731
0.00194493
-0.0030473
-0.00480855
-0.00385015
-0.00122148
-0.00232459
-0.00338445
-0.00459517
-0.00775755
-0.0113743
-0.0147274
-0.0130069
-0.0106069
-0.0114742
-0.0123757
-0.0141408
-0.0145234
-0.0181745
-0.0233882
-0.0193351
-0.0175126
-0.0183745
-0.0190214
-0.0217396
-0.00886072
-0.0132391
-0.0164739
-0.0138483
-0.0118233
-0.0128693
-0.0127507
-0.0155993
-0.00622156
-0.00893376
-0.00684319
-0.0118764
-0.00822453
-0.0071439
-0.00881432
-0.00828863
-0.00748419
-0.0126851
-0.0147879
-0.0100822
-0.00971871
-0.011962
-0.0104168
-0.0141186
-0.0108503
-0.00819071
-0.0125536
-0.0155071
-0.0110668
-0.010483
-0.0146026
-0.0120163
-0.0133977
-0.0181418
-0.0147214
-0.0175332
-0.0143144
-0.0153017
-0.0149909
-0.0153598
-0.113253
-0.118935
-0.0895415
-0.108527
-0.106966
-0.108704
-0.107254
-0.105068
-0.129634
-0.127251
-0.0882916
-0.106375
-0.132695
-0.124344
-0.105468
-0.111324
-0.0606997
-0.0606718
-0.0397591
-0.0511699
-0.0550582
-0.0508327
-0.0475643
-0.0450662
-0.0747651
-0.0756333
-0.0574116
-0.055402
-0.0733832
-0.075338
-0.0647123
-0.065887
-0.114849
-0.0864085
-0.101351
-0.0966198
-0.10864
-0.100278
-0.108802
-0.0967255
-0.11626
-0.0969056
-0.0837552
-0.0836223
-0.103933
-0.10194
-0.0926233
-0.0912634
-0.0770893
-0.0828732
-0.0827082
-0.0597893
-0.0713592
-0.0844429
-0.0694205
-0.0773949
-0.0757353
-0.0619753
-0.0838018
-0.0767354
-0.0699762
-0.0682265
-0.0778868
-0.0731147
-0.00486476
-0.00548748
-0.00346453
-0.00623216
-0.00518062
-0.00490965
-0.00522515
-0.00487061
-0.00767731
-0.0105737
-0.00671925
-0.0119921
-0.00881618
-0.00860089
-0.0090559
-0.00856497
-0.00138797
-0.00246228
0.00164913
-0.00307991
-0.00174787
-0.00127506
-0.00159891
-0.000980384
-0.00844687
-0.012225
-0.00763331
-0.0126583
-0.00992658
-0.00972239
-0.0100838
-0.00987383
-0.00622839
-0.00380509
-0.00705229
-0.00971224
-0.00636852
-0.00550222
-0.00842628
-0.00686524
-0.00608741
-0.00958094
-0.004916
-0.00339973
-0.00597431
-0.00764849
-0.00426178
-0.00513089
-0.0037888
-0.00713333
-0.00980922
-0.00585976
-0.00459753
-0.00686149
-0.00600345
-0.00846872
-0.0033316
-0.00562324
-0.00977614
-0.00475875
-0.00414784
-0.00569892
-0.00523234
-0.007369
-0.00578138
-0.00770476
-0.00641166
-0.00722188
-0.00626016
-0.00674066
-0.00643644
-0.00708999
-0.0102019
-0.0128713
-0.0121282
-0.0133509
-0.0114965
-0.0118123
-0.0118585
-0.0128079
-0.00824649
-0.0116546
-0.0110647
-0.012368
-0.0101787
-0.0109985
-0.0110065
-0.0122816
-0.0097863
-0.013828
-0.0128365
-0.013883
-0.0114688
-0.0119665
-0.0117749
-0.0133972
-0.00879376
-0.00784324
-0.00835277
-0.0115417
-0.00914128
-0.00834522
-0.010291
-0.00904299
-0.00915213
-0.0121537
-0.0113958
-0.00854952
-0.0099527
-0.0112747
-0.00935386
-0.0109261
-0.00852272
-0.00854505
-0.0120069
-0.011574
-0.00894441
-0.00981157
-0.0109214
-0.011428
-0.00911458
-0.0128941
-0.0132948
-0.0124005
-0.0109812
-0.011627
-0.011584
-0.0126599
-0.112801
-0.0883051
-0.0876527
-0.083447
-0.102455
-0.0935228
-0.0951981
-0.086719
-0.0699663
-0.0473441
-0.0490272
-0.0504191
-0.0633688
-0.0529971
-0.0591259
-0.0505807
-0.0731906
-0.0494136
-0.0505292
-0.0522743
-0.0606217
-0.0555618
-0.0591265
-0.0497692
-0.0572937
-0.0391879
-0.0463119
-0.0337431
-0.047133
-0.0463843
-0.0413287
-0.0400089
-0.0816894
-0.0818832
-0.0736882
-0.0562529
-0.0729247
-0.0804356
-0.0587284
-0.0676979
-0.0741501
-0.0537866
-0.0540312
-0.0761225
-0.0680739
-0.0624058
-0.0683639
-0.0599372
-0.0793887
-0.0656627
-0.0513724
-0.0557986
-0.0649166
-0.0615642
-0.0571122
-0.0548719
-0.0660982
-0.0486419
-0.0498548
-0.0505038
-0.0608371
-0.0547019
-0.056327
-0.0507205
-0.130069
-0.142147
-0.093126
-0.105199
-0.112712
-0.0985976
-0.0994527
-0.0932208
-0.183882
-0.181217
-0.103381
-0.0974019
-0.171055
-0.162201
-0.1266
-0.118596
-0.0683703
-0.0694394
-0.0538562
-0.0514639
-0.0630008
-0.06322
-0.0547319
-0.0526547
-0.0757734
-0.0689905
-0.0551328
-0.0534171
-0.0687627
-0.0699068
-0.0575751
-0.053496
-0.136397
-0.0883216
-0.0939985
-0.107986
-0.109244
-0.0985296
-0.109063
-0.0933106
-0.108556
-0.11159
-0.0875852
-0.0865852
-0.104086
-0.116789
-0.108814
-0.0905667
-0.0774068
-0.08047
-0.0869362
-0.056571
-0.0781634
-0.0723955
-0.0636679
-0.0683393
-0.0738612
-0.0530412
-0.0744272
-0.0727468
-0.0677191
-0.0636821
-0.0795786
-0.0690372
-0.00453124
-0.00290868
-0.00411577
-0.00533841
-0.00457641
-0.00398238
-0.00529448
-0.00439538
-0.000692662
0.00173791
-0.000655338
-0.00223799
-0.000605948
0.000219226
-0.00154251
-0.000289059
-0.00341131
-0.00197548
-0.00246255
-0.00376577
-0.00272743
-0.00245383
-0.00294962
-0.00226322
-0.00708629
-0.00598285
-0.00688588
-0.0104247
-0.00770205
-0.00644104
-0.00897528
-0.00751112
-0.00292541
-0.00403114
-0.0056807
-0.00438096
-0.00387142
-0.00415831
-0.00372188
-0.00468421
-0.00222572
-0.00314392
-0.0016169
-0.00360263
-0.00271617
-0.00221903
-0.00247036
-0.00203964
-0.00429067
-0.00651126
-0.00506682
-0.00480952
-0.00475312
-0.00527022
-0.0046651
-0.00525968
-0.00361551
-0.00402012
-0.00384478
-0.00165293
-0.0028531
-0.00404784
-0.00239129
-0.00354422
-0.109407
-0.0911361
-0.143085
-0.099051
-0.113705
-0.103105
-0.126022
-0.109968
-0.0681918
-0.0529802
-0.0767582
-0.0595401
-0.0568103
-0.0509539
-0.0650696
-0.0600714
-0.176624
-0.113309
-0.199584
-0.107403
-0.125616
-0.112217
-0.148626
-0.128629
-0.0705333
-0.0648497
-0.0797023
-0.0564962
-0.0770048
-0.073983
-0.0791407
-0.0738125
-0.0836391
-0.130504
-0.103128
-0.0646409
-0.089954
-0.0991434
-0.0729772
-0.0975065
-0.0785406
-0.0578478
-0.0713807
-0.117375
-0.0854947
-0.0652119
-0.11046
-0.0832884
-0.139316
-0.104254
-0.0718966
-0.0944997
-0.114232
-0.0901259
-0.0925959
-0.0825884
-0.121751
-0.0869178
-0.0645142
-0.0854847
-0.0924273
-0.0863504
-0.0991166
-0.0821777
-0.0126311
-0.0130398
-0.0154191
-0.0136856
-0.0136527
-0.0137549
-0.0145058
-0.0146723
-0.0132104
-0.013971
-0.0158199
-0.0143436
-0.0136652
-0.014132
-0.0144151
-0.0150303
-0.016438
-0.0169036
-0.0169366
-0.0176883
-0.0167711
-0.0167308
-0.0172738
-0.0170403
-0.0144362
-0.0151316
-0.0175268
-0.0154798
-0.0156487
-0.0157379
-0.0161988
-0.017046
-0.0132359
-0.0156366
-0.0143224
-0.014443
-0.0138543
-0.014583
-0.0141203
-0.0142537
-0.0136048
-0.0148615
-0.0156246
-0.0155335
-0.014571
-0.0146907
-0.0152437
-0.0152558
-0.0163811
-0.0149058
-0.0151412
-0.0175666
-0.0159226
-0.0153751
-0.0166349
-0.015989
-0.016082
-0.0175291
-0.0158571
-0.0163963
-0.016421
-0.0165146
-0.0160023
-0.0166603
-0.128965
-0.0576965
-0.0773886
-0.070863
-0.0873645
-0.0808364
-0.0843639
-0.0771582
-0.0265192
-0.00775726
-0.0239471
-0.0204199
-0.0225875
-0.0220413
-0.0248596
-0.0212682
-0.0547952
-0.035477
-0.0397983
-0.0382634
-0.045206
-0.0418791
-0.0428195
-0.0383744
-0.0546304
-0.0329567
-0.0397604
-0.0411847
-0.0443632
-0.0455529
-0.0441636
-0.0361773
-0.0449645
-0.0661208
-0.0604557
-0.0356085
-0.0465425
-0.0544566
-0.042082
-0.0567274
-0.0394627
-0.0360554
-0.0362542
-0.0588766
-0.0385976
-0.0312403
-0.044765
-0.0364044
-0.0611992
-0.0598623
-0.0370418
-0.0465922
-0.0534938
-0.0506416
-0.0477886
-0.0388557
-0.0558676
-0.0382256
-0.0316819
-0.0339483
-0.0391287
-0.0434523
-0.0376142
-0.0321931
-0.100115
-0.0857343
-0.0774562
-0.0746282
-0.10188
-0.0936356
-0.0873589
-0.0860439
-0.0694513
-0.0511288
-0.0522931
-0.0509742
-0.0633731
-0.0585868
-0.0596352
-0.0529285
-0.0529573
-0.0451435
-0.0320954
-0.0298873
-0.0443244
-0.0436231
-0.0357039
-0.0369993
-0.0475759
-0.0423554
-0.0296279
-0.0276252
-0.0401587
-0.042876
-0.0373705
-0.0351686
-0.0778011
-0.0698946
-0.071273
-0.0559335
-0.0715636
-0.070452
-0.0611484
-0.0654306
-0.0756231
-0.0549512
-0.0553892
-0.0679295
-0.0666573
-0.058253
-0.0630071
-0.0571013
-0.0619336
-0.0626845
-0.0519497
-0.0350952
-0.0514501
-0.0599613
-0.0440234
-0.0469429
-0.0588059
-0.0359679
-0.0472318
-0.0485272
-0.0476924
-0.0432241
-0.0505544
-0.0444715
-0.0242872
-0.0200083
-0.0206212
-0.0218141
-0.0214683
-0.0207694
-0.0210509
-0.0204552
-0.0168198
-0.0139537
-0.0161195
-0.0147146
-0.0148751
-0.0152936
-0.0149706
-0.0151473
-0.0184183
-0.0168782
-0.0169958
-0.0181976
-0.0173826
-0.017353
-0.0175356
-0.0170462
-0.0197178
-0.0155073
-0.0184475
-0.0171743
-0.017113
-0.0167892
-0.0176945
-0.0171308
-0.0175214
-0.0190357
-0.0191134
-0.0156474
-0.0175718
-0.0194855
-0.0177126
-0.01852
-0.0172367
-0.0153986
-0.016717
-0.0188989
-0.0171106
-0.0166548
-0.0181386
-0.0165672
-0.0191163
-0.0192012
-0.0160325
-0.018241
-0.0193851
-0.018622
-0.0178332
-0.0178596
-0.018628
-0.0176679
-0.0156136
-0.0163795
-0.0181557
-0.0175847
-0.0169103
-0.0168608
-0.178472
-0.122476
-0.129607
-0.118156
-0.0858568
-0.141672
-0.0949478
-0.109382
-0.135566
-0.118243
-0.100784
-0.118814
-0.143291
-0.138551
-0.105595
-0.132115
-0.148516
-0.0858566
-0.129336
-0.131049
-0.168883
-0.136872
-0.146981
-0.16731
-0.072219
-0.085811
-0.0768934
-0.0575071
-0.0810257
-0.0851733
-0.0721147
-0.0785404
-0.134871
-0.116143
-0.114582
-0.111535
-0.110579
-0.111853
-0.121174
-0.113596
-0.135439
-0.123686
-0.123977
-0.161751
-0.121969
-0.123747
-0.123145
-0.140147
-0.114138
-0.103129
-0.103664
-0.0823564
-0.133674
-0.122162
-0.120708
-0.113288
-0.141553
-0.10361
-0.102691
-0.16878
-0.141546
-0.144164
-0.129612
-0.140501
-0.0987742
-0.0979796
-0.0887252
-0.0756677
-0.0911966
-0.109461
-0.0797398
-0.0814631
-0.100291
-0.127036
-0.113899
-0.079661
-0.0977947
-0.131751
-0.0849871
-0.0976733
-0.0944429
-0.099992
-0.0993255
-0.0784077
-0.0957002
-0.109507
-0.0886733
-0.0834939
-0.0613814
-0.0535726
-0.0556395
-0.0395856
-0.0538737
-0.0541525
-0.0375616
-0.0462709
-0.0924206
-0.0864943
-0.0654082
-0.0531968
-0.081273
-0.0906701
-0.0808973
-0.0850168
-0.117332
-0.0720798
-0.123028
-0.114046
-0.0824426
-0.0915835
-0.0944013
-0.0898829
-0.0803247
-0.0495525
-0.0426123
-0.0509682
-0.0787882
-0.0530374
-0.054922
-0.0451289
-0.0824219
-0.058377
-0.054078
-0.0791924
-0.0976891
-0.0765468
-0.082652
-0.0780781
0.00905841
2.98164e-05
-0.00290081
0.00550068
0.00671089
0.00241851
0.0050636
-0.000871982
-0.00748073
-0.0143835
-0.0170542
-0.0146713
-0.0112441
-0.0131229
-0.0140476
-0.0157568
-0.0151272
-0.0198732
-0.0235644
-0.0239451
-0.0195858
-0.0207092
-0.0230049
-0.022915
-0.00204592
-0.0149137
-0.0217279
-0.0163224
-0.00971886
-0.0135262
-0.0155742
-0.0191317
-0.00347933
-0.00738104
0.000990428
-0.0104586
-0.0062091
-0.00425019
-0.00605038
-0.00400571
-0.00610317
-0.0129445
-0.0163474
-0.010054
-0.00935525
-0.0123342
-0.0112593
-0.0153186
-0.00986772
-0.00229347
-0.0138461
-0.0206511
-0.0105112
-0.00777342
-0.0158706
-0.0123711
-0.0136321
-0.0219486
-0.0165434
-0.0186858
-0.0166142
-0.0179725
-0.0176246
-0.0181901
-0.0484898
-0.0453748
-0.0613762
-0.0517098
-0.0531496
-0.0535051
-0.0534382
-0.057685
-0.0451668
-0.0446524
-0.054366
-0.0479042
-0.0521204
-0.0589104
-0.050524
-0.0521968
-0.0843082
-0.0827839
-0.146561
-0.0871352
-0.102247
-0.0960743
-0.107416
-0.116251
-0.0560011
-0.0515697
-0.0640663
-0.0576261
-0.0562149
-0.0573305
-0.0562381
-0.058224
-0.0518188
-0.0760086
-0.0548562
-0.0537412
-0.0493195
-0.0532193
-0.0501103
-0.0519547
-0.0566867
-0.0554423
-0.0826282
-0.0750121
-0.0610158
-0.0531892
-0.0600667
-0.0740931
-0.0714601
-0.0550049
-0.057115
-0.0788095
-0.0622859
-0.0641952
-0.0740522
-0.0572699
-0.0887038
-0.0947858
-0.0508305
-0.0811847
-0.0780252
-0.0759168
-0.0734222
-0.0641047
-0.121361
-0.0839372
-0.0858233
-0.0837144
-0.0935616
-0.0921487
-0.0930052
-0.0909162
-0.0472942
-0.0256667
-0.0391366
-0.0235273
-0.0301124
-0.0336063
-0.0331141
-0.0304989
-0.0623054
-0.0448535
-0.0488422
-0.0485496
-0.0546524
-0.0463791
-0.0512665
-0.0454507
-0.0534128
-0.026977
-0.0430736
-0.0293779
-0.032415
-0.033935
-0.0349076
-0.0325714
-0.057638
-0.0684927
-0.0590624
-0.0377255
-0.0597119
-0.0767825
-0.0534199
-0.0582208
-0.0591922
-0.0342
-0.0393078
-0.0594871
-0.0560693
-0.0453138
-0.0575443
-0.0440645
-0.0649771
-0.0624844
-0.0364424
-0.0459627
-0.0634214
-0.0584789
-0.0481854
-0.0503207
-0.0596035
-0.0413305
-0.0314176
-0.0385822
-0.0523521
-0.0412244
-0.0414436
-0.0382912
0.00342239
-0.00329395
0.00467694
-0.00249726
0.000914709
0.00121064
0.00082318
0.00125414
-0.0131883
-0.0227078
-0.0133062
-0.0188363
-0.0166654
-0.0179354
-0.0165857
-0.0178334
0.00679567
-0.00154423
0.00884432
0.000731244
0.00395397
0.00449043
0.00449281
0.00485689
-0.00769961
-0.0158377
-0.00642323
-0.0130104
-0.0101061
-0.0107326
-0.00954395
-0.0101646
-0.00669708
0.00209685
-0.00480983
-0.013026
-0.00643358
-0.00223822
-0.0103445
-0.00520201
-0.00734445
-0.0137313
-0.00719417
0.00239589
-0.00705684
-0.0118106
-0.00250242
-0.00642596
0.00215279
-0.00424115
-0.0127001
-0.00328246
-0.00108914
-0.00456769
-0.00399218
-0.00810164
0.00257757
-0.00358083
-0.013514
-0.00695295
-0.0016248
-0.00434403
-0.00615559
-0.00972745
-0.0794126
-0.0362229
-0.0750137
-0.0617313
-0.0482205
-0.0707058
-0.02634
-0.0377374
-0.0262964
-0.0319611
-0.0447861
-0.0353079
-0.0413694
-0.0400133
-0.0487248
-0.0445287
-0.0874328
-0.0709827
-0.0978397
-0.0859243
-0.0692503
-0.0667163
-0.0711243
-0.0675295
-0.0476508
-0.0247276
-0.0507807
-0.0321048
-0.0354809
-0.0375511
-0.0383128
-0.0382285
-0.0469244
-0.0656091
-0.0509464
-0.0307405
-0.0470632
-0.066663
-0.033012
-0.06081
-0.0437155
-0.0393875
-0.032811
-0.066434
-0.0407142
-0.0537215
-0.0438901
-0.0487397
-0.0593934
-0.0474162
-0.0304558
-0.0534375
-0.0792488
-0.0547435
-0.0532698
-0.0319452
-0.0620557
-0.0551546
-0.0397961
-0.0427118
-0.0714501
-0.055457
-0.0525241
-0.0515876
-0.013642
-0.0155349
-0.016337
-0.0163955
-0.0148752
-0.0155249
-0.0158018
-0.0161693
-0.0155386
-0.0228439
-0.022985
-0.0218098
-0.0192397
-0.0225596
-0.0202316
-0.0247268
-0.0189025
-0.0236031
-0.023541
-0.0218303
-0.0203216
-0.0213929
-0.021325
-0.0224389
-0.0183232
-0.020601
-0.0215001
-0.0202316
-0.0196064
-0.0190973
-0.0196926
-0.0198921
-0.0148298
-0.0179299
-0.0177702
-0.0184339
-0.0160767
-0.0170657
-0.0169139
-0.0166368
-0.0175459
-0.0193735
-0.0212149
-0.0182318
-0.0184932
-0.0197357
-0.0180871
-0.020138
-0.0183493
-0.017448
-0.0192844
-0.0205526
-0.0187969
-0.0171675
-0.0202345
-0.0197292
-0.0186501
-0.0209078
-0.0209819
-0.0229521
-0.0199724
-0.0198857
-0.0211741
-0.0221457
-0.133157
-0.116124
-0.148524
-0.121051
-0.123471
-0.124713
-0.131956
-0.13246
-0.0877769
-0.0746709
-0.0974403
-0.080666
-0.09235
-0.0879637
-0.0897535
-0.0932489
-0.175636
-0.109384
-0.164495
-0.12817
-0.162641
-0.171962
-0.161867
-0.167552
-0.0791726
-0.0624018
-0.0792683
-0.0291149
-0.0618512
-0.0830688
-0.0473586
-0.0636222
-0.119295
-0.145168
-0.103811
-0.0847962
-0.111745
-0.125046
-0.0893533
-0.111657
-0.111576
-0.085142
-0.0985097
-0.152174
-0.107244
-0.102724
-0.108806
-0.107259
-0.146624
-0.104497
-0.0828531
-0.0984672
-0.121894
-0.10752
-0.108397
-0.0935988
-0.155397
-0.113988
-0.0819939
-0.102293
-0.143617
-0.122356
-0.114587
-0.0895883
-0.0728057
-0.130139
-0.0380623
-0.0658479
-0.0727615
-0.124013
-0.0971684
-0.0761014
-0.142637
-0.105244
-0.0657949
-0.087205
-0.108645
-0.0878187
-0.0969926
-0.0805519
-0.0337084
-0.0451948
-0.0341609
-0.0348862
-0.0303526
-0.039814
-0.0360878
-0.0374721
-0.0347477
-0.0520456
-0.0297924
-0.0247886
-0.0355228
-0.0429585
-0.0278707
-0.0318895
-0.0895076
-0.0367571
-0.0519655
-0.0595399
-0.0946734
-0.0656869
-0.0725874
-0.0722108
-0.0807156
-0.0778702
-0.0596274
-0.052381
-0.0813211
-0.0767321
-0.053859
-0.0497546
-0.0472758
-0.0447634
-0.0603371
-0.0389791
-0.0280974
-0.0458893
-0.034031
-0.0415818
-0.0492334
-0.0403482
-0.0564279
-0.0553183
-0.0503601
-0.0419337
-0.0564266
-0.0455579
-0.0342215
-0.0542998
-0.0551553
-0.0580913
-0.0503575
-0.0551059
-0.0560371
-0.0584927
-0.0592051
-0.056461
-0.0744898
-0.0605896
-0.0609565
-0.0646318
-0.065278
-0.0683191
-0.0903159
-0.104546
-0.130184
-0.114967
-0.104457
-0.110836
-0.116306
-0.117302
-0.0745045
-0.0656989
-0.0914065
-0.0738928
-0.0749359
-0.0757832
-0.0803171
-0.0825359
-0.0623423
-0.0809926
-0.0720748
-0.0656869
-0.0684641
-0.0681783
-0.0668436
-0.0750329
-0.0658699
-0.0667201
-0.0851728
-0.0847986
-0.0701006
-0.0673961
-0.0744557
-0.0821219
-0.0875638
-0.0776557
-0.0687474
-0.0987283
-0.0797866
-0.0801445
-0.090241
-0.0745049
-0.0892275
-0.101665
-0.0699906
-0.0880644
-0.0916769
-0.0932737
-0.0891282
-0.0826339
-0.113233
-0.0994172
-0.0900469
-0.0909253
-0.113055
-0.106381
-0.0979401
-0.0935008
-0.074099
-0.0551201
-0.0574499
-0.0533525
-0.06619
-0.0622594
-0.0611016
-0.0559011
-0.0523713
-0.0492779
-0.0281266
-0.0277685
-0.0509686
-0.0498107
-0.0332171
-0.0335808
-0.0526176
-0.0440978
-0.0261188
-0.0274104
-0.0474887
-0.0450544
-0.0349373
-0.0336476
-0.0876152
-0.0871791
-0.0865385
-0.062307
-0.0784337
-0.0867924
-0.0684026
-0.0776966
-0.0812271
-0.0590001
-0.0621407
-0.0811687
-0.0707365
-0.0659106
-0.0718705
-0.0640614
-0.0650036
-0.0601221
-0.0531686
-0.0350058
-0.049016
-0.0548557
-0.0492941
-0.0481253
-0.061842
-0.0339866
-0.0498546
-0.0528269
-0.0518939
-0.046516
-0.0552557
-0.0453509
-0.0137425
-0.0385826
-0.0372129
-0.0311271
-0.0286978
-0.0349843
-0.0317652
-0.0383198
-0.0830138
-0.15006
-0.0845823
-0.0823168
-0.108269
-0.0937536
-0.0837248
-0.0836072
-0.0492262
-0.0608698
-0.0485772
-0.0490529
-0.0581434
-0.0571267
-0.0520996
-0.0525378
-0.0427786
-0.064184
-0.0488124
-0.0483342
-0.0516478
-0.0559888
-0.049865
-0.0531978
-0.0522111
-0.0503524
-0.0418131
-0.07375
-0.0514198
-0.0456531
-0.0553734
-0.0457378
-0.063475
-0.0769505
-0.0737379
-0.0474382
-0.0699176
-0.0790503
-0.0644919
-0.0791754
-0.0454821
-0.0414938
-0.0665124
-0.0506218
-0.0471418
-0.051173
-0.0540055
-0.0561169
-0.0538359
-0.0526476
-0.0708009
-0.070218
-0.0593969
-0.0572613
-0.0681164
-0.0649698
-0.0140744
-0.0406806
-0.0411988
-0.0299651
-0.0213725
-0.0341411
-0.0275647
-0.0389625
-0.0521572
-0.0530329
-0.0654295
-0.0546956
-0.0482535
-0.0517671
-0.0559056
-0.052671
-0.0877827
-0.0904548
-0.130702
-0.0982197
-0.0804895
-0.0924464
-0.0991183
-0.102884
-0.0474291
-0.0589807
-0.0763164
-0.062446
-0.0507466
-0.058949
-0.0601977
-0.0631844
-0.0427132
-0.0482229
-0.037365
-0.0524824
-0.0519501
-0.0500903
-0.049825
-0.0503392
-0.0529653
-0.0563679
-0.0664321
-0.0636467
-0.0582515
-0.0592349
-0.0738429
-0.0646395
-0.0565213
-0.0452777
-0.0599722
-0.0766713
-0.0615623
-0.0566329
-0.0621761
-0.0600772
-0.0714844
-0.0761176
-0.0582314
-0.0703405
-0.0690609
-0.0691045
-0.0720203
-0.0691057
0.0113908
-0.000526279
0.00833107
0.00995029
0.00834185
0.00492848
0.00958422
0.00635111
-0.0134104
-0.0230613
-0.0127388
-0.0219296
-0.018119
-0.0181242
-0.0170171
-0.0173789
0.00637496
-0.00266405
0.00416848
0.00512473
0.00409277
0.00177804
0.0051245
0.0029029
0.00187908
-0.0193107
0.000520767
-0.0122957
-0.00744318
-0.00874535
-0.00530053
-0.00725267
-0.00528473
0.00584232
0.00331867
-0.0145486
-0.00367701
0.00328944
-0.00776084
0.000233654
-0.00700463
-0.0145726
-0.00715203
0.00299319
-0.00575801
-0.0102231
-0.00151293
-0.00550176
0.00683497
0.00534656
-0.0130109
0.00389768
0.00722051
0.00185318
0.00199829
-0.00375526
0.00437212
0.000690535
-0.013583
-0.00606357
0.00175535
-0.000742934
-0.00414967
-0.00770918
-0.0876322
-0.0728343
-0.0649846
-0.0774592
-0.0798856
-0.0765083
-0.0791843
-0.0722958
-0.0585363
-0.0518389
-0.0412734
-0.0448278
-0.0608118
-0.0573409
-0.0502686
-0.047582
-0.0445914
-0.0341803
-0.0290081
-0.0341532
-0.0361178
-0.0338793
-0.0343812
-0.0317361
-0.0587941
-0.0449549
-0.0396179
-0.0427799
-0.060008
-0.0492063
-0.0489178
-0.0443594
-0.0792239
-0.0613517
-0.0783081
-0.0580762
-0.0618718
-0.0689374
-0.0599161
-0.0640127
-0.0644669
-0.0482431
-0.0422338
-0.0554935
-0.0587683
-0.0497935
-0.0489912
-0.0440935
-0.0559816
-0.060815
-0.0469907
-0.0408073
-0.0497541
-0.0596427
-0.0451588
-0.0498097
-0.050525
-0.0377036
-0.0423819
-0.0384571
-0.0415922
-0.0419416
-0.041108
-0.0393061
-0.0280404
-0.0293692
-0.0413587
-0.0333788
-0.0288254
-0.0329706
-0.0333431
-0.0354089
-0.0305738
-0.0373983
-0.0552149
-0.0405587
-0.0302489
-0.0367786
-0.0414018
-0.0423919
-0.0648009
-0.0755897
-0.0940575
-0.0794904
-0.0670642
-0.0803813
-0.0822098
-0.0858443
-0.038764
-0.0458337
-0.0593862
-0.0432764
-0.0415862
-0.0484588
-0.0487559
-0.057007
-0.0304951
-0.0425957
-0.0352143
-0.039538
-0.0367314
-0.0381007
-0.0379302
-0.0404008
-0.0349397
-0.0447762
-0.0581191
-0.0504192
-0.0405507
-0.0429298
-0.0467697
-0.048855
-0.053111
-0.0405234
-0.0469026
-0.0653872
-0.0478628
-0.0460822
-0.0522667
-0.0479337
-0.0599052
-0.0735348
-0.0518632
-0.0621454
-0.0617489
-0.0594568
-0.059083
-0.0548921
-0.125422
-0.121214
-0.109491
-0.0787869
-0.0973367
-0.0955493
-0.102447
-0.0870445
-0.132257
-0.152226
-0.123997
-0.0830161
-0.108232
-0.119634
-0.100431
-0.100718
-0.1115
-0.111279
-0.11168
-0.0727537
-0.0899627
-0.0900246
-0.0867868
-0.0839111
-0.0569131
-0.0616854
-0.0605567
-0.043071
-0.0529419
-0.0656623
-0.0391162
-0.0506046
-0.104803
-0.0898676
-0.0600554
-0.0586073
-0.0984241
-0.0865947
-0.0822379
-0.0792008
-0.105026
-0.0804497
-0.0973512
-0.0905422
-0.0973172
-0.0880227
-0.114257
-0.0947244
-0.092999
-0.0529374
-0.0587921
-0.0532933
-0.0802402
-0.0601215
-0.0566742
-0.0575362
-0.0866763
-0.0558176
-0.0559919
-0.0921237
-0.0835243
-0.07766
-0.094405
-0.0805304
-0.103334
-0.0654921
-0.070375
-0.0638901
-0.0925222
-0.0667847
-0.0869137
-0.0854599
-0.0455225
-0.0342037
-0.0332038
-0.035394
-0.0446912
-0.0272818
-0.0427798
-0.0385089
-0.0525652
-0.0337114
-0.0321652
-0.0369645
-0.043013
-0.0255354
-0.0367507
-0.0374881
-0.0463706
-0.0347211
-0.0416719
-0.0383087
-0.049158
-0.0438542
-0.0460075
-0.0449572
-0.0598561
-0.0709177
-0.0628911
-0.0452538
-0.0550211
-0.0594407
-0.0452859
-0.0621088
-0.0384316
-0.0404625
-0.0261303
-0.0411145
-0.0548091
-0.0367252
-0.0468252
-0.0433012
-0.0552699
-0.0552492
-0.0377963
-0.0423989
-0.0427141
-0.0579186
-0.0523866
-0.0437664
-0.0704955
-0.0441431
-0.0389222
-0.038945
-0.0412404
-0.042886
-0.0405786
-0.0374018
-0.0463735
-0.0457079
-0.0387778
-0.0463279
-0.0467281
-0.0440429
-0.0447315
-0.0424133
-0.0447556
-0.0468675
-0.0394936
-0.0474805
-0.0455645
-0.043136
-0.0443874
-0.0420919
-0.0330576
-0.0333192
-0.0282223
-0.0293045
-0.0340721
-0.0317794
-0.0306971
-0.0308841
-0.0406276
-0.0391278
-0.0297711
-0.0287065
-0.0357148
-0.0354497
-0.0326199
-0.0303006
-0.0454876
-0.0397345
-0.0460578
-0.0466523
-0.0437922
-0.0418316
-0.0479303
-0.0444227
-0.0428541
-0.0437417
-0.0368737
-0.0372103
-0.0405692
-0.042555
-0.0375909
-0.0391616
-0.0384738
-0.042343
-0.0424302
-0.0331533
-0.0383151
-0.0408588
-0.0373503
-0.0404409
-0.0369441
-0.0316111
-0.0384637
-0.0363718
-0.0355294
-0.0361973
-0.0373673
-0.0371219
-0.134029
-0.0790437
-0.0725927
-0.0852504
-0.0917244
-0.0854004
-0.0886822
-0.0749084
-0.056696
-0.043274
-0.0376595
-0.0412081
-0.0484044
-0.0477456
-0.0445279
-0.0393981
-0.0376362
-0.0265184
-0.0136604
-0.0273935
-0.0285297
-0.026485
-0.0252933
-0.019212
-0.0534634
-0.0383656
-0.0372186
-0.035606
-0.0425255
-0.0416615
-0.0381857
-0.0343014
-0.067965
-0.0573559
-0.0642049
-0.0444166
-0.0633699
-0.0705911
-0.0602714
-0.0601231
-0.0630243
-0.042922
-0.0414671
-0.0551669
-0.0505579
-0.0491667
-0.055112
-0.0397898
-0.0517025
-0.0576243
-0.0432352
-0.0370124
-0.0495055
-0.0486024
-0.0376965
-0.0485018
-0.0397081
-0.0308653
-0.038164
-0.0319612
-0.0428458
-0.0366073
-0.0388306
-0.0355982
-0.0944832
-0.0725836
-0.0601169
-0.0697074
-0.0830852
-0.0796708
-0.0791555
-0.0690061
-0.0477791
-0.0285631
-0.0253955
-0.0289052
-0.0194514
-0.0260395
-0.0287104
-0.0217731
-0.0356956
-0.0259729
-0.0255176
-0.025766
-0.0323337
-0.0288453
-0.0300645
-0.025474
-0.0423061
-0.0318783
-0.0249745
-0.0241444
-0.0190446
-0.0259038
-0.0276356
-0.0211986
-0.0457639
-0.0479425
-0.0423085
-0.0213594
-0.0478526
-0.0609888
-0.0443303
-0.0495434
-0.0491369
-0.0272252
-0.0287661
-0.0421428
-0.036038
-0.041289
-0.0374875
-0.0333804
-0.0439685
-0.0464112
-0.0325281
-0.0302482
-0.0400477
-0.0391659
-0.0321999
-0.0407614
-0.032792
-0.0238048
-0.0226265
-0.0241732
-0.0388242
-0.028057
-0.0296977
-0.0247716
-0.0270156
-0.0329806
-0.0421474
-0.0288762
-0.0274984
-0.0332661
-0.0327564
-0.0361798
-0.0406759
-0.0485373
-0.0599681
-0.0464321
-0.0424461
-0.0528308
-0.0483153
-0.0553081
-0.0660963
-0.0781725
-0.0940378
-0.0750196
-0.0687663
-0.0804617
-0.080808
-0.087811
-0.0309184
-0.0394326
-0.050408
-0.036392
-0.0290918
-0.038806
-0.0345876
-0.0343348
-0.0357638
-0.0412116
-0.0278732
-0.0367874
-0.0397136
-0.0391913
-0.0360074
-0.0363331
-0.0413162
-0.0465747
-0.0662228
-0.052885
-0.0431895
-0.0487627
-0.0492939
-0.0497189
-0.0486502
-0.0358947
-0.0434776
-0.0522796
-0.0515952
-0.0397517
-0.051086
-0.0442782
-0.0586071
-0.0576655
-0.0478176
-0.0808374
-0.0644108
-0.0579494
-0.059523
-0.0545304
-0.134242
-0.151889
-0.121775
-0.120002
-0.147336
-0.140939
-0.132266
-0.135122
-0.148971
-0.147763
-0.114236
-0.119342
-0.136662
-0.157459
-0.127342
-0.130106
-0.0810227
-0.0835782
-0.0423634
-0.0751261
-0.0800008
-0.0716473
-0.0650759
-0.0610715
-0.102116
-0.107061
-0.0830224
-0.0769859
-0.0936609
-0.0958625
-0.082612
-0.0867151
-0.14
-0.118517
-0.11342
-0.111711
-0.123344
-0.12517
-0.115629
-0.110763
-0.141155
-0.109641
-0.106677
-0.11224
-0.125407
-0.121026
-0.123182
-0.11545
-0.0989665
-0.0998494
-0.0984659
-0.0828597
-0.0979736
-0.0999413
-0.0960756
-0.0991113
-0.0951696
-0.0834801
-0.10271
-0.0938991
-0.0908571
-0.0895408
-0.095298
-0.106059
-0.105073
-0.10033
-0.0903416
-0.0976659
-0.114811
-0.103783
-0.0970436
-0.0966607
-0.109507
-0.120049
-0.0887762
-0.104197
-0.121194
-0.115333
-0.103198
-0.105574
-0.0626874
-0.0583624
-0.0380652
-0.0511061
-0.0588785
-0.052259
-0.0482194
-0.0466871
-0.077768
-0.077336
-0.0585357
-0.0562393
-0.0674696
-0.0707246
-0.0627215
-0.0648063
-0.109832
-0.0806577
-0.0912264
-0.0963775
-0.0972312
-0.0920172
-0.10174
-0.0920428
-0.101525
-0.091434
-0.0843946
-0.0788296
-0.0968877
-0.0971574
-0.0893571
-0.0889127
-0.0755604
-0.0809652
-0.0823444
-0.0583408
-0.070213
-0.0801325
-0.0658509
-0.0751792
-0.0739199
-0.0601145
-0.0839652
-0.0777801
-0.0690856
-0.064505
-0.0770587
-0.0709079
-0.0132106
-0.0246022
-0.037093
-0.025455
-0.0183766
-0.0225789
-0.0301928
-0.0289872
-0.0340469
-0.0424797
-0.0626047
-0.0612331
-0.0446556
-0.0489099
-0.06487
-0.0484594
-0.0726743
-0.0922806
-0.127137
-0.090522
-0.0921885
-0.097861
-0.102239
-0.0739099
-0.0374598
-0.0443334
-0.0542826
-0.0360329
-0.0384873
-0.0426281
-0.0426482
-0.0467589
-0.0298624
-0.0437637
-0.0315091
-0.0505348
-0.0451512
-0.04216
-0.0360341
-0.036481
-0.0337277
-0.0580343
-0.0735048
-0.0512847
-0.0407732
-0.0616358
-0.0523746
-0.0671082
-0.0559717
-0.0421452
-0.0598355
-0.0631429
-0.0498651
-0.0434582
-0.05861
-0.0514982
-0.0585468
-0.0769165
-0.0650367
-0.0579511
-0.0802455
-0.063449
-0.0862064
-0.0661812
0.0925022
0.0643175
0.0801123
0.0430527
0.072891
0.0766085
0.0649357
0.0620894
0.0343729
-0.00260155
-0.0241641
0.0053263
0.00849172
-0.00120728
0.00040025
-0.0113983
0.0268823
-0.0387511
-0.0765673
-0.00318924
-0.0292316
-0.0295127
-0.0422258
-0.0355645
0.0186352
0.00241724
-0.000130763
0.00142132
0.00590002
0.00565809
0.00153825
0.00249148
0.0355231
0.0352531
0.0276116
0.00626889
0.0281588
0.0258703
0.0203699
0.0296213
0.0363887
0.00783373
-0.0244361
0.0240305
0.0233104
0.00776203
0.0331515
-0.00303197
0.019195
0.0227058
0.00288005
-0.00208888
0.0248023
0.0250142
0.00281635
0.000294962
0.00879876
-0.00108461
0.00531613
-0.0371294
-0.0122578
0.00223772
-0.0148309
-0.00335298
-0.00400114
-0.008782
-0.00909195
-0.00874974
-0.00630041
-0.00810414
-0.00783413
-0.0090538
-0.0141842
-0.0192114
-0.0172924
-0.0176192
-0.0163504
-0.0176303
-0.0167804
-0.0177744
-0.0131259
-0.0162641
-0.0158586
-0.0156238
-0.0146594
-0.0155311
-0.0149394
-0.0157146
-0.0140529
-0.0176895
-0.0164746
-0.0186787
-0.0162492
-0.0162261
-0.0165519
-0.0171158
-0.0113577
-0.0114337
-0.0114584
-0.0157979
-0.0125703
-0.0111887
-0.0135014
-0.0121858
-0.0129364
-0.0161134
-0.016423
-0.0123575
-0.0137384
-0.0152817
-0.0132743
-0.0152616
-0.0123105
-0.0126098
-0.0162268
-0.0154465
-0.0128972
-0.0134621
-0.015136
-0.0150673
-0.013177
-0.0159815
-0.0167656
-0.0162664
-0.0148624
-0.0155514
-0.0155795
-0.0162116
-0.0358631
-0.0304394
-0.0329716
-0.036332
-0.0377724
-0.0347885
-0.0400303
-0.0355036
-0.0256062
-0.020677
-0.0223779
-0.0231252
-0.024228
-0.0234842
-0.0235627
-0.0231336
-0.0297588
-0.0238971
-0.0245789
-0.0290727
-0.0291239
-0.0252629
-0.0291018
-0.0261662
-0.0343336
-0.0279736
-0.0331448
-0.0343584
-0.0348509
-0.0320508
-0.0348987
-0.033621
-0.0303127
-0.033141
-0.0380092
-0.0282083
-0.0300077
-0.032108
-0.0291572
-0.0330113
-0.0288667
-0.0261629
-0.0246938
-0.0301043
-0.0286601
-0.0251049
-0.026826
-0.026237
-0.0348247