/*--------------------------------*- C++ -*----------------------------------*\
| =========                 |                                                 |
| \\      /  F ield         | OpenFOAM: The Open Source CFD Toolbox           |
|  \\    /   O peration     | Version:  2506                                  |
|   \\  /    A nd           | Website:  www.openfoam.com                      |
|    \\/     M anipulation  |                                                 |
\*---------------------------------------------------------------------------*/
FoamFile
{
    version     2.0;
    format      ascii;
    arch        "LSB;label=32;scalar=64";
    class       surfaceScalarField;
    location    "1600";
    object      phi;
}
// * * * * * * * * * * * * * * * * * * * * * * * * * * * * * * * * * * * * * //

dimensions      [0 3 -1 0 0 0 0];

oriented        oriented;

internalField   nonuniform List<scalar> 
80800
(
0.00097388
-0.000442007
-0.00135145
0.000819544
-0.000897676
0.000816584
-0.00026538
0.000346462
0.000330925
0.000551678
-0.000387222
-0.000495829
-0.000356347
0.000661305
-0.000499966
0.000194919
0.000504971
-0.000290825
0.000759688
-4.48217e-05
-0.000348037
0.00044843
-0.00109561
0.000734512
0.000482961
-0.000137598
-0.000174929
-0.00017172
0.000321257
0.000408515
-0.000731674
-0.000982092
0.000741133
0.000239618
0.000344872
0.000268159
-0.000614791
0.000355163
0.000426075
-0.000299561
0.000584124
9.1368e-05
0.000397968
0.000371881
0.000262158
-0.000737065
-0.000173466
0.000647245
0.00115953
-0.00137022
0.000209697
-0.00174327
0.000307755
0.00143489
0.000306911
-0.00132726
0.0010195
0.000331197
0.00129603
-0.0013657
0.00127797
0.000212309
0.000465303
0.00113725
0.000374516
-4.22041e-05
0.000186446
-0.000520324
0.000635191
0.000194707
-0.00083126
-0.00114368
0.000149632
0.000993213
0.000116869
0.000719203
-0.000836688
0.00034155
0.000892402
-0.000860333
0.000862348
0.000113467
0.000281332
0.00072767
0.000198313
0.000313829
0.000304075
-9.5165e-05
6.38919e-05
0.000582015
0.000334109
0.000459523
-0.000133587
-0.000425673
0.000537855
0.000661045
-0.000774481
-0.00041433
7.78649e-05
0.000533832
0.000224714
-0.000100137
-0.000248636
0.000458218
0.000488604
-0.000312569
0.000203584
0.000601073
-0.000283819
0.000881576
0.0001427
-0.00033435
0.000743777
-0.00034645
0.000475162
0.000546979
0.00105042
0.000382372
-0.000170087
0.00114868
0.000140333
0.000295953
0.000144996
0.000352543
6.41751e-05
0.000427754
0.000426973
-0.000958389
0.000367037
0.000740263
-0.000405697
0.000351305
0.000194207
0.000405025
-0.000946246
0.000338468
0.000302653
-0.00096067
0.00102743
-0.000488876
-0.000167828
-0.000895909
-0.00079088
-0.000236549
0.00644059
-0.00814181
0.00172362
0.00280339
0.00995036
-0.0126913
-0.0129867
0.016585
-0.00356976
0.00172511
0.00773324
-0.00350353
-0.00595384
0.00913639
0.00441322
-0.00707298
0.0119604
0.0119179
-0.00576329
0.0109033
0.00766774
0.00632478
-0.0139669
0.0106764
0.00683637
-0.0175009
-0.0223276
0.0114199
0.0109691
0.00417343
-0.00253879
0.0112683
-0.0128575
0.00978199
0.0135
-0.0155908
0.0204824
0.0113846
0.00632277
0.00955573
0.0307071
-0.0251061
-0.00555716
0.0136033
-0.0310096
0.0174479
-0.0578647
0.0400935
0.0178223
0.011135
-0.00677927
0.00641359
-0.0108211
0.0311814
0.0274214
-0.0278651
0.0447932
0.0362177
0.00236327
0.0231356
0.00250794
0.00197271
0.00214125
-0.0066542
-0.0052733
0.00353183
0.00322732
-0.00149956
0.00238163
0.00251546
0.00157436
-0.00649885
0.000288277
-4.44667e-05
0.00464104
-0.00492404
0.00405276
-0.0034329
0.00184767
-0.00389997
0.00264891
0.00182395
-0.00499679
0.000296802
0.0118861
0.00936001
-0.0112697
-0.0162833
0.0190048
0.0139198
0.0110156
3.38291e-05
-0.00329259
-0.00939854
0.0154832
0.00210974
-0.00817313
0.00193833
-0.00394954
0.0139285
-0.00344007
-0.00339389
-0.00993099
0.00418849
0.0157036
0.00462625
0.00831087
-0.0174021
0.0288732
-0.00159097
0.0206327
0.0109599
0.0187086
0.0219351
0.0171345
0.0216857
-0.00367469
0.0200329
-0.00241339
0.00989134
-0.00787937
-0.00555862
0.0111853
-0.00153519
0.00847343
-0.00450052
-0.00487877
0.0112077
-0.0100155
0.0091954
-0.00628569
0.0159185
0.015567
-0.000962426
0.00253348
0.0102524
0.00928038
-0.0211989
0.019096
-0.00674728
-0.00553502
0.0082238
-0.00504686
0.0134245
0.000228741
0.000177945
-0.000683866
0.000922247
-0.000257084
0.000657612
-0.000401386
0.000399635
-0.000135342
-0.000439574
0.000667162
-0.000347751
-1.7013e-05
0.000757877
-0.000706537
0.000483436
0.00114288
-0.000933823
-0.00116115
0.00146835
-0.000295399
-0.00102965
0.00132466
0.000274168
-0.000669488
0.0002213
0.00137394
-1.94584e-05
0.000212402
0.00113235
-0.000878241
0.0010492
0.000805005
-0.000337484
-0.000468276
-0.000825241
-0.000322407
0.00114704
-0.000496462
0.00115481
-0.000658594
0.000418949
0.000160122
-0.000126549
-0.000453165
0.00109403
-0.000107778
-0.000181927
0.000268612
0.000842374
-0.000531523
0.000614419
-0.00110942
0.000707951
0.000135985
-8.16802e-05
0.000623564
-0.000929382
0.000115853
0.000292859
-0.0004138
4.44318e-06
0.00092584
-0.00186167
0.000493778
-0.000368798
-0.00108884
-0.00104814
0.000597609
-0.000477111
0.000314022
-0.00140937
-7.09251e-05
0.00113549
-0.000110505
0.000874048
-0.000106722
0.000385632
-0.000833804
-2.0798e-05
0.000497538
-0.000823928
-0.000760068
-0.000251621
0.000940202
-0.000387151
-0.000442808
-0.000444399
0.000201299
0.000284456
-0.000456813
-0.00123829
0.000208131
0.000697365
0.000175936
0.000841369
0.000299583
0.000247436
0.000996493
5.41478e-06
-0.000412137
0.000855099
-0.000550252
0.000121929
-0.000247905
-0.000576137
0.00037527
0.000611437
8.08117e-05
-0.000399768
4.61246e-05
8.01662e-05
-0.00053899
-0.000276526
0.000255054
0.000436124
0.00069293
0.00054813
-0.000307579
-8.40565e-05
1.91609e-06
-0.00102802
0.000913373
-0.000277998
0.000788672
0.000706065
-0.00023395
0.000387728
-0.0345046
0.0261424
0.00485008
0.00351395
0.0332678
-0.0563606
0.0112591
0.0118231
-0.0155555
-0.0203276
0.0194593
0.0163813
0.0147921
-0.00405143
0.0047348
-0.015465
-0.0319161
-0.00716066
0.00457104
-0.00740538
0.00875244
0.00530683
0.00232267
-0.0176655
-0.0620197
0.0333115
0.015995
0.0126697
0.00986304
-0.0480868
0.0100455
0.0281633
-0.0177619
0.0109137
-0.0335413
0.0404608
0.0647676
0.0228171
-0.0824306
-0.00514158
-0.0161485
-0.0514804
0.00560897
-0.0708695
0.0645932
-0.00976758
0.0230696
-0.0983919
0.020831
-0.0274472
-0.00294296
0.0096217
0.00294396
-0.0390743
0.0444185
-0.00813315
-0.0374603
0.0952193
-0.0240217
-0.0334678
0.0198526
-0.0525127
0.0509585
-0.0182572
0.0336388
0.0269881
-0.0397606
0.0360615
0.000527924
0.0693296
-0.0224331
0.067939
-0.00348149
0.00987238
-0.000167336
-0.00623067
0.00536053
0.0236978
-0.01793
-0.0111748
-0.0104029
0.0196668
-0.0110263
0.00176693
0.0127033
-0.00981415
0.0015795
-0.0045207
0.00883677
-0.00501326
-0.00733137
-0.00523404
0.0194096
0.00661737
0.00102775
-0.00905439
-0.026648
-0.0383728
0.00865099
-0.0197815
-0.00217885
0.00163569
0.00491682
0.00156364
-0.0105384
0.0356191
-0.00652335
-0.0179962
-0.011105
0.0163521
-0.0331302
-0.00987066
-0.0210973
0.0117519
-0.00926949
-0.0044343
-0.0308711
0.0257964
0.0667414
-0.050443
-0.0114933
-0.0287612
0.0511988
-0.0254833
-0.0129406
0.0362674
-0.0701538
0.0294287
0.0196677
-0.0365369
0.0405029
-0.028354
-0.0127702
0.00788144
0.00653069
0.00878941
0.00263366
0.0116655
-0.00597545
-0.00324514
0.0318745
-0.00906235
-0.0168389
0.00864297
-0.00460967
-0.0124944
-0.0185807
0.0239607
-0.0325007
-0.00525443
-0.0154496
0.0269323
-0.0833578
-0.00376625
-0.0640284
-0.043258
-0.0289912
-0.0245683
-0.0611161
-0.0587685
0.0205842
-0.013721
-0.00791834
0.0299201
-0.0219015
-0.0177155
0.0287788
0.00552076
0.0123248
-0.00655793
0.0249321
0.00921401
-0.0135001
0.0170443
0.0243279
0.0236966
0.0330865
-0.0054884
-0.0274675
-0.000672279
-0.0249928
0.0256553
-0.0395132
0.00338589
0.0359129
0.00860735
-0.0289443
-0.0180178
0.0384371
0.0404064
0.0219198
-0.0291569
0.0397558
0.0475856
-0.0170367
0.0476917
0.0347125
-0.0172287
-0.0452971
-0.0562929
0.101708
-0.00702528
0.0471232
0.00383823
0.00846906
-0.00601576
0.0451316
0.00972679
-0.0201522
-0.000151648
0.036718
0.0296541
-0.00376085
0.00395054
0.00304743
-0.00102426
0.00244259
0.00852989
-0.00993931
0.00795103
0.00219657
-0.00859553
0.000256463
0.00510377
-0.0054117
-0.00284028
-0.00640078
0.00549111
-0.00789512
0.00404459
-0.00583614
-0.00579823
0.0158172
0.0353025
-0.0211609
-0.0129303
0.0310924
0.010719
0.018255
-0.00223699
-0.00365975
-0.0186579
0.0221435
-0.00274908
-0.000670208
-0.0151444
-0.00665001
0.0376876
-0.0043763
-0.0157777
-0.00951393
-0.0018679
0.0298534
0.00508651
-0.0118003
-0.0498901
0.0534173
0.011587
0.0195366
0.0357814
0.0317725
0.0238251
0.0433539
0.0173433
-0.00737559
0.0372125
0.0110341
-0.008989
0.00886957
0.00399378
0.000701595
-0.00275653
0.00889515
0.00644264
-0.00149823
0.0144815
0.0395425
0.012121
-0.00299507
0.00126169
-0.00382063
-0.058114
0.0552677
-0.0044818
0.0239125
0.0221849
-0.0168497
0.00661043
0.00163122
-0.00162749
-0.00135496
-0.000941118
0.00149559
-0.00105012
0.000500366
0.00136555
-0.000904696
-0.000961022
-0.000929452
0.00165316
-0.00122335
0.000390691
0.000145769
0.000421534
-0.000971592
0.000651323
-0.00143442
0.00157326
0.00157926
-0.000239768
-0.000693634
-0.000701939
0.00021304
0.00192164
-0.00130827
-0.000161328
-0.000178225
0.00164581
0.000291365
-0.000877065
0.0016024
0.00170952
0.00100513
0.00100772
-3.42072e-06
0.00201637
-0.000721736
0.00171573
0.000862241
-0.000457063
-0.000268457
-0.000136709
0.000223669
-0.00119568
-0.000315731
0.00128756
-0.0010475
-0.000926224
0.000819165
0.00115438
-0.00033599
-0.000795555
-0.000204757
0.00133591
0.000552165
0.000923108
-0.000613345
0.00122734
-0.0004515
0.00088061
-0.000293634
0.00106049
0.00154139
-0.000569517
-0.000786022
-0.000842631
0.000320393
0.00151442
-0.00118716
-0.000323383
-5.97239e-05
0.0015697
0.000493394
-0.00102808
0.00125395
0.00141928
0.000849485
0.00105577
-0.000479886
0.0018258
-0.00048284
0.00169433
0.000778513
0.000861365
0.000190421
0.000548811
0.00062735
0.00100873
0.000707595
-0.00147314
0.00151052
0.000701201
-0.000886019
0.000416706
0.00124809
0.000877239
-0.000862733
0.00102231
0.00114957
-0.000529314
-0.000245806
0.000876575
-0.000956531
0.00115093
-0.000355729
-5.57903e-05
0.00131027
-0.000706262
0.00165244
0.000745028
0.000684942
0.00145997
-0.000771115
0.0011882
0.000896021
0.000628374
-0.000896507
0.000765887
-0.000628088
-0.00087673
0.00189708
-0.000862392
0.00120986
-0.000671033
-0.000193461
0.00164246
-0.000552918
0.00159464
-0.00023802
0.00101781
0.00148169
-0.00112628
0.00154018
0.00108713
0.00168636
-0.00148831
0.00144344
0.000733468
0.000134454
0.000624741
-0.000165975
0.00154588
0.00114007
-0.000214363
-0.000925922
0.0009106
0.000785405
-0.00372826
0.00203176
-0.000561208
0.00146122
-0.000900541
-0.0012539
0.00144598
-0.000193206
-0.000588416
0.00145955
0.000268335
0.00227384
-0.00195174
0.000205346
0.00191775
-8.16036e-05
0.000820996
-0.00211534
0.00137567
0.00083552
-0.00011559
-0.00260698
0.00188708
0.00106522
0.000575879
0.000389494
-0.00203084
-0.00204239
0.000572212
0.00034096
0.00112936
-0.00267509
0.000908053
0.00168545
0.000977682
-0.00281728
-0.00170415
0.00056983
0.000338699
0.00163489
-0.000805112
-0.000830453
0.000304911
0.000333968
0.000921635
-0.00156113
-0.000980759
0.00186609
-0.000885622
-0.00113085
-0.00103073
0.0021613
0.000493247
0.00203396
-0.000892834
0.0020343
-0.00123637
0.000902889
0.00195628
0.00180708
-0.00148757
-0.000319712
0.000306802
-0.00188939
0.000982106
0.000600272
-0.000759755
-0.00147418
0.00223396
-0.00149637
0.00226533
-0.000768944
0.000267563
0.00199546
-0.000455825
0.00207749
-0.00150312
0.000499122
0.00181686
0.00171222
-0.00278746
0.00186019
-0.00050083
-0.000107224
0.00206857
-0.000308403
0.00176212
-8.14415e-06
-0.000896943
-0.00136831
0.00127273
0.000991991
0.000577291
0.00266245
-0.00152788
0.00199415
0.00055589
0.00120931
0.0022416
0.00145422
-0.00342078
-0.00208933
0.00129309
0.00145855
0.00145874
-0.00234179
-0.000554916
0.00216505
-0.00171766
0.000723065
-0.000797083
-0.000796621
0.000912257
-0.00226441
0.0015741
0.00141036
0.00065775
0.000274465
0.000336194
-0.000952941
-0.00232671
0.000852401
-0.000657037
0.00206724
0.00185901
-0.000692085
0.000432455
0.00201743
-0.00222416
0.00204574
-0.000582396
0.000922379
0.000832966
0.000959473
0.00143445
-0.000309923
-0.000357272
0.00209707
0.00115735
-0.0156188
0.0100587
-0.0119441
0.0136844
-0.0171216
-0.0105037
0.00843097
-0.0204012
0.0141214
-0.00214301
-0.00465382
-0.0354736
0.0272596
-0.0241399
-0.00705297
-0.00440271
-0.00605006
-0.0354449
0.023797
-0.0313823
-0.0209261
0.0146407
-0.00636351
0.0166774
-0.0204648
-0.00429303
0.00693087
0.0169566
-0.0200643
-0.00376968
-0.00139644
0.02258
-0.0246488
-0.0244384
-0.00352836
-0.00231803
-0.00543916
-0.0269926
0.0221441
-0.0223696
0.00160038
0.00290219
-0.00994168
0.0054597
0.00178252
0.00490153
-0.00730388
0.000663091
-0.00715524
-0.0346018
0.0357788
0.00598126
0.00420298
0.00189305
0.00280395
-0.00888245
0.000627438
-0.00321668
0.00422635
-0.00114862
0.00355708
-0.00326218
0.0042652
-0.0115605
-0.0169768
0.00282467
0.0126164
0.00879103
0.00463442
-0.0112784
-0.000298251
0.00387177
0.00564396
-0.00923241
0.00592283
0.000326162
-0.00163765
-0.0109865
-0.00414679
-0.00558598
0.0033909
-0.00249176
0.00420416
-0.00838287
-0.00341225
-0.0249408
0.00881724
-0.02255
-0.00664988
-0.035166
-0.00845476
0.0325671
-0.030217
-0.00558866
0.0263068
0.00293691
-0.0325752
0.00374497
0.0255909
-0.0058281
-0.00214957
-0.00814711
-0.00219816
-0.00543439
0.0219332
-0.00417247
-0.000779093
-0.0174726
-0.00630569
0.00124298
-0.0263951
-0.00830565
-0.00644717
-0.0205329
-0.00523139
-0.00504613
-0.0016949
-0.014723
0.00977074
-0.0229532
0.0173616
0.0170725
-0.0179947
0.00440949
-0.00758691
0.00704849
0.00448695
-0.0170843
0.0109369
-0.0242823
0.00381888
-0.0164944
-0.0181147
0.0051458
-0.0108382
-0.0035446
-0.0198714
0.0180561
-0.0173115
-0.000659095
-0.0132211
-0.0119936
-0.000208788
-0.0157395
-0.000930063
-0.000702998
0.00163293
-0.000940543
-0.0010082
0.00194866
0.00014373
-0.000824932
-0.00103261
0.00171408
0.00169433
-0.00107144
-0.000623427
0.000797503
-0.00172768
-0.00203732
0.0018944
0.000719804
-0.00075316
-0.00117382
-0.000908353
-0.00108064
0.00198873
-0.0014633
-0.000904609
0.00236783
0.000109545
-0.00126851
-0.000589079
0.00174805
0.00218454
-0.0011577
-0.00102697
0.00129468
-0.00220319
-0.00216297
0.00199434
0.00100325
-0.00102192
-0.00105016
-0.000740441
0.000112623
-0.00103776
0.00166546
-0.00107249
6.85852e-05
-0.000594303
0.00159832
8.93122e-05
-0.000982336
-0.000632053
0.0015251
0.00170707
8.00511e-05
-0.00102898
-0.000758176
0.000957064
-0.00179574
9.82883e-05
-0.00171942
0.00160408
0.000946025
-0.00103465
-0.000684068
-0.00121378
0.00188004
-0.000666862
-0.000936347
0.00215673
-0.0012207
4.64328e-05
0.00189309
-0.00124703
-0.000692563
0.00204721
-0.000692762
-0.00135468
0.000850091
-0.00206416
-0.00215129
0.00206477
0.000761341
-0.000778393
-0.00134358
-0.00207968
0.00107148
0.000148782
0.00101369
-0.00198742
0.00078045
-0.00185209
0.00109698
0.0010154
-0.00211275
-0.000942795
-0.00204426
0.000907215
-0.00196788
-0.000947326
-0.00213482
-0.00197288
0.00196373
0.00193328
-0.00207566
-0.0011606
-0.00180213
0.00169427
0.00111502
-0.00179567
0.00169452
-0.000971152
-9.45278e-05
-5.97869e-05
-0.000639375
0.00165992
-0.00185966
-0.00182645
0.000958888
-0.00111982
0.000792358
-0.000764482
-0.000914309
0.000958185
0.00196042
0.00110911
-0.0011764
9.61584e-05
-0.00080281
-0.00111982
-0.00124638
9.59219e-05
0.00106171
-0.000724143
0.00189196
-0.000702671
-5.20829e-05
-0.00106541
-0.00107666
-0.000656842
-0.00178087
0.00115513
0.00117285
-0.00178112
-0.000660323
0.000498286
-0.00162993
-0.00869027
-0.0131911
0.00230743
-0.00706699
-0.00272503
0.0121332
-0.0205983
0.0102416
0.0100531
-0.00355248
-0.0168265
0.0132305
-0.0141783
0.00134035
-0.00905797
0.0152308
-0.0192085
0.00341233
-0.0157393
-0.0640538
-0.00263378
-0.105096
0.0225343
0.0344747
0.00226705
-0.0206811
-0.0150985
0.124347
-0.156037
0.0230205
0.00865768
0.0986923
-0.141088
0.026659
-0.104793
0.104799
-0.121543
0.00226821
0.0498001
-0.0519035
0.0531868
0.0142939
-0.0156307
0.0459105
0.0102955
0.0606189
0.0243196
-0.108508
0.236105
0.00934877
-0.13698
0.0344405
-0.0279299
0.0432607
0.116725
-0.0324866
-0.103819
0.0945487
-0.0189052
0.0559292
-0.0131065
-0.0239974
-0.162651
0.140221
0.0187289
0.00369345
0.0119352
0.0679279
0.0181815
-0.097951
0.219358
0.0207985
0.00910401
-0.249285
0.163511
-0.203826
0.0213985
-0.157677
0.158529
0.157794
-0.142274
0.0120334
-0.0511007
0.0586814
-0.00528512
-0.0172003
0.0245932
0.00471014
0.0394297
-0.0157362
-0.0136667
0.0227639
0.124928
-0.179192
0.0314884
-0.039514
-0.0984266
0.086828
-0.0533248
-0.074655
-0.00101818
-0.0885464
-0.0887435
0.124852
-0.155967
-0.0422073
-0.0425045
0.00632876
0.00269269
-0.0293769
0.0274443
-0.0260684
-0.024996
-0.0932673
-0.0541159
0.0331675
0.0257125
0.0602497
-0.0200911
-0.148068
0.109098
0.073569
-0.0602732
0.0549192
-0.00381933
-0.046846
-0.00336399
-0.0321132
0.0216515
0.00508773
-0.0160184
0.167115
0.008723
-0.0739194
0.0270235
-0.0374771
-0.0206374
-0.0562289
0.0835115
0.115978
-0.0472266
-0.00516983
-9.15732e-05
-0.000926257
0.00029323
0.000724706
-0.00143341
-0.000108131
0.000346349
0.00119531
0.000366719
3.31393e-05
-0.00175409
0.00135427
0.00133639
-0.000110039
-0.00154084
0.000314662
0.0010487
-0.00136998
0.000229825
-0.00159526
0.0012106
0.00121024
-0.00124373
-1.82777e-05
-3.64237e-05
-0.00174644
0.000354626
0.00142846
-0.00214609
0.000138281
0.00200799
0.000371357
-0.00213743
0.00176629
0.00182257
-0.00181643
-6.23516e-06
0.00188185
-0.00203157
0.000113716
-0.00211956
0.00185544
0.0017482
-0.00195704
0.000212486
0.000408599
-0.002226
0.00160502
-0.00190658
0.000329124
0.00157763
0.000128413
-0.00126188
0.00113355
0.00122229
7.32751e-05
-0.00129546
0.00174152
-0.00188151
0.000352731
-0.00166874
0.00150372
0.00154033
-0.00219944
-0.000138088
0.00158608
-0.0016655
0.000217557
-0.00162878
0.00178529
-0.00015659
0.000206246
0.00147097
-0.0016774
0.00154112
-0.00144693
-9.42024e-05
0.00132957
-0.00155042
8.27181e-05
-0.00177384
0.00147459
0.0015676
-0.00157699
-0.00176474
0.00134486
0.000312096
0.000346347
0.0015639
-0.00187685
0.00130852
-0.00181827
0.000400318
5.37793e-05
0.00164584
-0.00187194
0.000172261
-0.00174977
-0.00150986
0.00149536
-0.00142155
-0.0016887
0.00023299
-0.00180164
-0.00187365
0.00147216
0.00174137
-0.00191189
-0.00167054
-0.00210528
0.00163862
0.0020284
-0.00204876
0.00158436
5.13326e-05
-0.000429562
-0.000164275
4.46043e-05
0.0015543
-0.00179014
-0.0016674
0.00182748
-0.00203657
0.00149003
-0.00172205
-0.0019392
0.00185256
0.00196082
0.00138693
-0.00187654
0.000339616
0.000100249
-0.00210695
2.80063e-05
0.000436599
0.00162464
0.000187342
0.0014603
-5.92461e-05
-0.001776
-0.00184606
0.00238632
0.00123896
-0.00117972
-0.000134706
0.00181393
-0.00102723
-0.00061781
0.00146655
-0.000465075
9.5201e-05
0.00169277
0.00119843
-0.00167154
0.00116829
-0.0013098
-0.00144744
0.00158823
0.000937251
-0.000976071
-0.000450018
-0.000822588
0.000957007
-0.000907174
-0.000575042
0.000556009
0.000784763
-0.00113397
-0.000638913
0.000988326
0.000650485
-0.000108922
-0.000809519
0.000195771
-0.00109622
-0.00152435
0.000813084
-0.00018956
-0.000255989
-0.00092888
5.93443e-05
-0.000469858
0.00155638
-0.000845202
0.000655812
-0.00113751
0.00132629
-0.000851865
0.000479636
0.00152654
0.00125215
0.000841012
-0.00222024
0.00108877
-0.00132167
0.000290667
-0.00131548
0.00155872
0.00054454
-0.0016231
-0.00302199
0.00104245
0.000497847
0.000837289
-0.00223968
0.0012327
0.000950545
-0.00259691
0.00104941
-0.00453848
-0.00158833
-0.00240506
-0.00214922
0.00105877
-0.00276493
-0.00368134
-0.00149387
0.000518734
0.000312305
0.00113818
-0.0013569
-0.000192695
-0.00200964
0.00156838
-0.000688562
-0.00158579
-0.000546969
-0.000954332
6.83803e-06
-0.00121086
-0.000157233
-0.00156125
-0.00157396
0.00126984
0.000980135
-0.00177752
-0.000591634
-0.0017447
0.0012014
0.00111859
-0.00157001
0.00158904
-0.00136785
-0.000200298
-0.000644204
-0.000495615
0.00141341
-0.00173172
-0.00124478
0.000800621
-0.000965934
0.000314996
-0.00106326
0.00193286
-0.00129004
0.000668781
-0.00152632
-0.00185856
0.000484795
-7.84576e-05
-0.00123953
0.00184964
-0.00229858
-0.000733026
-0.0021069
0.000170194
-0.00125941
-0.00141328
0.000464361
0.000358093
-0.00109706
-0.00147122
8.94122e-05
0.00425063
-0.0057527
0.00141243
-0.00441242
0.000456094
0.00333601
0.000619485
0.000368201
0.000654166
0.00340854
-0.00443111
0.00398351
0.000418749
-0.00522883
0.000826031
0.00420003
-0.00507548
0.000964651
-0.00393045
0.00371792
0.00418296
-0.00527491
0.000620678
0.000557848
-0.00324424
0.00263869
4.67224e-05
-0.00284825
0.00263392
-0.000489211
-0.000607405
-0.00258835
0.00216345
0.00297936
-0.00324755
-0.000355831
0.00341939
-0.00245536
-0.000406817
-0.00210498
0.00267565
0.00346554
-0.00294209
0.000869747
-0.000395627
0.00246482
-0.00293931
-0.00241259
-0.000606643
0.00198182
-0.000735667
0.00191066
-0.00215737
0.00226335
-0.000567273
-0.00272508
0.00313488
-0.0017785
-0.000486348
-0.00138506
0.00210774
0.00315538
-0.0026704
0.000363581
0.00333066
-0.0040391
0.000344182
-0.00333414
0.00305296
-0.000386178
-0.000589981
0.00229632
-0.0029535
0.00355437
-0.00377994
-0.00046732
0.00400109
-0.00320936
-0.000428408
-0.00226297
0.00292946
0.00363135
-0.00328636
-0.00327154
0.00344955
0.000277624
0.000120935
0.00377745
-0.00324415
0.00408017
-0.00411602
0.000454147
-0.000549074
0.00369217
-0.00276062
-0.000383095
-0.00380237
-0.00306181
0.00359207
-0.00306089
-0.00378197
0.000170748
-0.0027629
-0.00256419
0.00276914
0.00267187
-0.00222792
-0.00321296
-0.00156786
0.00219277
0.00310878
-0.00206446
0.00273335
0.000817936
0.000209923
0.000547751
0.000839243
0.00247971
-0.00182595
-0.00291026
0.00347124
-0.00380489
0.00374202
-0.00452765
-0.00325661
0.00354848
0.00206739
0.00346775
-0.00323885
-0.00018886
0.000905391
-0.00362708
0.000790216
-0.000463061
0.00343567
0.00101119
0.00172381
0.000556063
-0.00329431
-0.00229571
0.00282041
0.00286365
-0.0022999
0.00339549
0.000823817
-0.00557425
0.000128549
0.00348371
-0.00457326
0.000614526
0.00240264
3.12647e-05
-0.00304905
-0.00388178
0.00290061
-0.000242479
-0.00140465
0.00336558
0.00286784
-0.00414405
-0.000961338
0.000444782
0.00252109
0.00168567
-0.000383451
-0.00143875
-0.000508147
-3.33954e-06
0.00133046
0.000156944
-0.000463191
-0.000445616
0.000751352
-0.00124443
-0.000626965
0.00166647
0.000406884
0.000985045
0.000643149
-0.000744528
0.000790165
-0.00104954
0.00159032
0.00171045
1.56748e-05
-0.000681602
-0.00104464
-0.00121478
0.000168744
-0.000567164
0.00161295
-0.000389906
-0.00113419
-0.000343684
0.00186795
-8.22687e-05
-0.000455158
-0.001675
0.00221215
0.00128628
0.000738781
-0.000314805
0.000627266
-0.000555742
0.00170788
-0.00105112
0.00194533
0.00267514
-0.00254287
-0.000918754
-0.000459634
-0.00200067
0.00239951
-0.000219808
-0.000665956
-0.00169059
0.00257438
-0.00144703
-0.00224549
0.00266332
0.000781455
0.00141034
0.00143304
-0.00111193
0.00134785
-0.00138541
0.00256106
0.00310631
-0.000518996
0.000216763
0.000115632
0.00207019
-6.58952e-05
0.00233829
-0.00317797
0.000143626
0.00236317
-0.000426223
0.00349835
3.43323e-05
0.00231192
-0.000232177
0.00201372
0.000897027
-0.00179945
-0.00144766
0.000964364
-0.000257703
0.000700612
-0.000906195
0.000834213
0.00118335
-0.00190223
0.00181273
-0.000881374
-0.000684522
0.00191196
-0.0019591
0.000969792
0.00152541
0.000688215
-0.000143654
0.000154784
-0.000360154
-0.000715287
0.00107726
-0.00114378
0.00168394
-0.00120669
0.000119119
0.00214611
-0.000740512
0.00228742
-0.000460201
0.00146194
0.00188716
-0.00108422
0.00231304
-0.000231437
0.0022732
-0.000938901
0.00180833
0.00061612
0.000956397
0.000993883
0.000987318
0.00174985
-0.000837975
-0.00026484
0.000527721
0.000417369
-0.00128768
-0.000201135
0.00107164
-0.000117439
-0.00212967
0.0016083
0.000893224
-0.00149345
-0.00020876
-0.000437539
-0.000153217
-0.000247149
-0.00130279
0.0012826
-0.000188789
-0.00160889
-0.002544
0.000955577
-0.000352086
0.00194071
0.000955486
-0.00287225
-0.00034751
0.00226442
-0.000697325
0.00125397
-0.00311015
0.00255345
0.00213719
0.00131083
-0.00261549
-0.000832645
-0.000570521
-0.00141026
-0.000563175
-0.00196135
0.00234632
-0.000603141
0.00133008
-0.00326179
-0.00208174
-0.00135385
0.00229754
0.000309629
-0.000810161
-0.00167484
0.0021752
-0.00105942
-0.000521067
0.00205968
0.00309022
-0.00274344
-0.00256714
0.000674817
-0.00077933
-0.00197732
-0.00149586
0.00248002
0.000687653
-0.00186779
-0.00134771
0.00263611
-0.00352817
0.00185627
0.00180382
-0.00176982
-0.00189075
-0.0038647
0.00330705
-0.0020393
0.00382564
-0.00150031
-0.00686389
0.000464998
0.00146422
-0.00327689
0.000396487
0.0019247
0.00160845
-0.00185989
-0.000815014
-0.000374037
-9.86365e-05
-0.00068664
-0.000605316
-0.000837631
-0.000257164
0.000104633
-0.00134035
0.00166784
1.17099e-05
-0.000566337
-0.00111335
0.000684937
-0.0012288
-0.000270915
-0.00161041
0.00108145
-0.000641942
-0.000786066
-0.00142064
0.00200211
0.00217008
-0.000847561
0.000523701
-0.00164201
0.00237221
-0.00134982
-0.00150016
0.00224418
-0.00233344
0.000641798
0.00116672
-0.0027952
0.00208717
-0.0011048
-0.00171664
-0.000380428
0.000633875
0.001062
0.000175474
0.000140081
0.000868537
-0.00136718
-0.0018204
-0.00151937
-0.00146733
-0.000213113
-0.00323434
0.00069751
-0.00257248
0.00208342
-0.00275559
0.000227407
-0.00267952
-0.0030989
-0.00211288
-0.0026145
-0.00299027
-0.00352131
0.00218633
0.00652973
-0.00883164
-0.000601056
0.00168834
0.0040913
-0.00517877
0.00391023
0.00210895
-0.00563019
-0.0049815
0.00186718
0.0034549
-0.00317391
0.0013353
0.00402476
0.0014327
-0.00520771
-0.00330765
0.00203527
0.00121486
-0.00078019
0.00236132
-0.0027962
-0.00062398
0.00113258
-0.00136911
0.00086037
0.00139946
-0.00107928
-0.00163979
0.00131934
-0.0018626
-0.00114412
0.00159945
0.00140702
-0.00058722
0.000415522
0.00138628
0.000298982
-0.00151016
-0.000380146
-0.0010671
0.00131826
0.00223415
0.00349209
-0.00480509
-0.00135552
0.0020642
-0.00261778
0.00190835
0.00171421
-0.00226622
0.00241706
-0.00259305
0.00241008
0.00234334
-0.000922407
0.000693793
0.00246211
0.000550085
-0.00282821
5.6116e-05
0.00232036
0.00175927
-0.00426192
0.00348474
-0.00139567
-0.00252789
0.00226248
0.00166135
0.00317418
-0.00328862
0.00234834
-0.0037432
0.00382864
0.00217992
-0.00161319
0.000760099
0.00261208
0.000504487
-0.00351356
-0.00116627
0.0025124
0.000784292
-0.00151738
0.00242129
0.00330162
-0.00209581
0.000902869
-0.00255726
0.000986189
0.003438
-0.00171811
-0.00100723
0.00068064
0.00204485
-0.000850099
0.00333737
-0.00170263
0.00448658
-0.00105147
0.00267104
0.000877805
0.000718976
-0.00301626
-0.00262852
0.000477298
0.000520495
0.0003092
-0.00190912
0.00120289
0.000944328
-0.0042432
0.00185848
-0.00284203
-0.00183725
0.00181747
-0.00345652
0.000500654
0.00414124
-0.00227937
-0.00235353
-0.00109775
-0.000749549
-0.000672688
-0.000570426
0.00332253
0.00197583
0.00184677
0.00276454
-0.00146178
0.00215703
-0.000589312
0.00242888
-0.00192815
0.00165574
0.000655962
0.00171706
0.00339519
0.00122366
0.00134407
0.00238015
0.00179606
-0.00114362
-0.000477244
0.000694968
0.000708826
-0.00162092
-0.000841587
0.00154485
-0.00123045
-0.00125321
0.000939449
-0.00135556
-0.00166601
0.00148116
-0.00202611
-0.000360682
-0.000462118
-0.000854649
-0.00257745
0.000861883
-0.00149468
-0.00166919
0.000608144
-0.00116442
0.0015503
-0.00139917
-0.00141325
0.00142463
0.00112084
-0.00178088
-0.000767014
-0.00127344
0.00133567
-0.00135848
-0.00313759
-0.000731844
-1.72616e-05
-0.00157038
-0.00274189
0.000735457
-0.00133455
-0.000575588
0.00232505
-0.00348892
0.00174003
0.00157763
0.00253449
-0.00344296
-0.000669578
0.00287362
-0.00458938
0.00122929
0.000486313
-0.00303878
0.00240473
0.00129696
-0.000662825
-0.00396949
0.000899506
0.00249475
0.000802445
-0.00319389
-0.00384146
0.00170238
-0.000165509
-0.00196378
-0.00109615
0.00139454
0.00118209
-0.00137855
-0.00148216
0.00100575
-0.000752251
0.000586333
-0.000840256
1.34669e-05
-7.60938e-05
-0.00138415
-0.00252881
-0.00101233
-0.000490461
-0.000856945
-0.00196516
0.000966308
-0.00144994
-0.0010903
-0.00256627
0.00186407
-0.00293878
-0.000154904
-0.00269234
-0.000695408
0.00184004
-0.00295341
-0.000764415
0.000707584
0.00106514
-0.0028624
0.00107714
0.000798391
-0.000816818
-0.000857421
-0.00110043
-0.00121275
-0.000405796
0.00264708
-0.000193389
-0.00133275
-0.00121443
0.000117988
-0.00184165
-0.00160775
-0.00211209
-0.00208505
-0.00147343
-0.00185284
-0.000911322
0.00230129
-0.00348018
0.00102469
-0.0030199
0.0012285
0.000522523
-0.00266734
0.000654386
-0.00263944
0.00123308
0.00212174
-0.00142947
0.00160918
-0.00171509
0.00204951
-0.00282476
-0.00103698
0.0002894
-0.00052415
-0.00159593
-0.00147732
0.00308851
-0.000747469
0.00232758
-0.000869713
-0.000207962
0.0013073
-0.000496845
-0.0398005
-0.0090956
0.0203118
-0.0342395
-0.0133976
0.0169437
-0.0212412
0.00142489
0.00439425
-0.0405842
-0.0423401
-0.0265603
-0.0126017
-0.00942591
-0.0445674
-0.0401974
-0.0232226
0.0146965
-0.0133074
0.0115445
-0.015193
0.00385209
0.00810102
0.00218129
0.00465156
0.0160106
-0.0284218
-0.00829254
-0.0017856
-0.0150939
-0.0258635
0.0222208
0.00727065
0.00741029
0.00478394
-0.0141212
0.00229999
0.0018779
0.000808096
-0.00926643
0.00676217
0.000775891
0.0114517
-0.00847946
0.00429872
-0.00568505
0.00301271
0.000611757
-0.00712039
0.0173885
0.00279667
0.0128236
-0.00130964
0.00677834
0.00700273
0.00191834
-0.00358793
-0.00729951
0.0120121
0.00440499
-0.0170722
-0.0382896
0.00936069
-0.0136601
-0.0169424
-0.0280241
-0.0132107
0.0327198
-0.0227831
-0.0135998
0.0246559
-0.00700308
-0.0346914
-0.00617651
0.0162406
-0.0179571
-0.0083009
-0.0152958
0.00329441
-0.0100674
0.0109167
-0.00742913
0.00460817
-0.00448266
-0.0125879
0.00340386
-0.0319908
-0.0110138
-0.00647645
-0.0171343
0.00162817
-0.0126958
-0.00757268
-0.00280878
-0.00486313
0.010093
-0.010844
0.00930638
9.65367e-05
0.00227364
-0.0144538
-0.0205338
-0.00157133
-0.00356408
-0.00799967
0.00792415