/*--------------------------------*- C++ -*----------------------------------*\
| =========                 |                                                 |
| \\      /  F ield         | OpenFOAM: The Open Source CFD Toolbox           |
|  \\    /   O peration     | Version:  2506                                  |
|   \\  /    A nd           | Website:  www.openfoam.com                      |
|    \\/     M anipulation  |                                                 |
\*---------------------------------------------------------------------------*/
FoamFile
{
    version     2.0;
    format      ascii;
    arch        "LSB;label=32;scalar=64";
    class       volScalarField;
    location    "600";
    object      p;
}
// * * * * * * * * * * * * * * * * * * * * * * * * * * * * * * * * * * * * * //

dimensions      [0 2 -2 0 0 0 0];

internalField   nonuniform List<scalar> 
57792
(
-0.0219742
-0.0224524
-0.018491
-0.0185317
-0.0207808
-0.0212632
-0.0194087
-0.0193839
-0.0234978
-0.0259717
-0.015844
-0.0166427
-0.0222216
-0.0221546
-0.0176562
-0.0183379
-0.0121936
-0.00909164
-0.00404099
-0.00659824
-0.00839825
-0.00748487
-0.00730257
-0.0055889
-0.0145207
-0.0127133
-0.0089845
-0.0107606
-0.0127093
-0.0123533
-0.0112821
-0.0101276
-0.0211354
-0.0162559
-0.0166531
-0.0157349
-0.018616
-0.017597
-0.0175104
-0.0165701
-0.021454
-0.015074
-0.0137991
-0.0164978
-0.018754
-0.0161894
-0.0168837
-0.0140457
-0.0145137
-0.0151946
-0.0133132
-0.0093392
-0.0134081
-0.0146849
-0.0113356
-0.0129673
-0.0139146
-0.00804395
-0.0127357
-0.0105685
-0.0111377
-0.0100604
-0.0121353
-0.0114148
-0.0222738
-0.0210975
-0.0220816
-0.019079
-0.020885
-0.0217691
-0.020513
-0.021087
-0.0202794
-0.0194584
-0.0208306
-0.0170437
-0.019239
-0.0200485
-0.0188427
-0.0197305
-0.0236228
-0.0227298
-0.0271754
-0.0178057
-0.0222282
-0.023546
-0.0213382
-0.0237189
-0.0154004
-0.014533
-0.013927
-0.0117407
-0.0140212
-0.0145765
-0.0128672
-0.0134942
-0.0200626
-0.0209755
-0.0173953
-0.0166103
-0.0196387
-0.0201392
-0.0177844
-0.0182911
-0.0208411
-0.0172997
-0.0214336
-0.022011
-0.0203393
-0.0194501
-0.0214465
-0.0204798
-0.0207803
-0.0165524
-0.0158561
-0.0157836
-0.0181496
-0.0171555
-0.0167211
-0.0161199
-0.0220292
-0.0166863
-0.016536
-0.0214021
-0.0205512
-0.0178806
-0.0199545
-0.017794
-0.00626551
-0.0122328
-0.013905
-0.00893588
-0.0078848
-0.0105363
-0.00924232
-0.0112908
-0.018759
-0.0248779
-0.0198194
-0.0164788
-0.0197739
-0.0219207
-0.0177833
-0.019848
-0.0163021
-0.0177184
-0.0163393
-0.0147645
-0.016393
-0.0170359
-0.0154668
-0.0162384
-0.0104845
-0.0126301
-0.0129781
-0.0106265
-0.0109688
-0.0121805
-0.0110549
-0.0120607
-0.0137389
-0.0142812
-0.00998953
-0.0137443
-0.0133811
-0.0129677
-0.0127893
-0.0123286
-0.0164661
-0.0154578
-0.01845
-0.0159763
-0.0160445
-0.0164839
-0.0168366
-0.0174639
-0.0136169
-0.0105358
-0.0134412
-0.0137242
-0.0132824
-0.0119154
-0.0139853
-0.0127446
-0.0153393
-0.0145178
-0.0149028
-0.017552
-0.0156026
-0.0150615
-0.0163188
-0.0155421
-0.00258145
-0.00903774
-0.0027316
-0.00577534
-0.005372
-0.00558097
-0.00490503
-0.00528472
-0.0177633
-0.0259001
-0.0178041
-0.0161503
-0.0181824
-0.0214335
-0.0163649
-0.0184801
-0.00259703
-0.0100999
-0.00283295
-0.00659231
-0.00570734
-0.00583499
-0.00530396
-0.00602777
-0.00800185
-0.0116385
-0.00921257
-0.00956011
-0.00971281
-0.00979896
-0.00913944
-0.0099587
-0.0114128
-0.00523245
-0.0081317
-0.0122423
-0.0106255
-0.00726987
-0.0106993
-0.00816641
-0.0128779
-0.0130754
-0.0130948
-0.00553944
-0.0116463
-0.0138917
-0.00971674
-0.0120305
-0.00463601
-0.00762126
-0.0117278
-0.00769624
-0.00652986
-0.00809593
-0.00851278
-0.00955313
-0.00533896
-0.00873203
-0.0125315
-0.0121268
-0.00741147
-0.0085116
-0.0111453
-0.0110702
-0.0200458
-0.0207693
-0.0218656
-0.0173212
-0.0196375
-0.020642
-0.0192589
-0.0205129
-0.0216739
-0.0229844
-0.0240887
-0.0189852
-0.0216078
-0.0228522
-0.020961
-0.0227209
-0.024665
-0.0257169
-0.0289881
-0.0191204
-0.0234729
-0.0259906
-0.0228416
-0.0254383
-0.0142063
-0.015273
-0.0143232
-0.0116985
-0.0137611
-0.0146489
-0.0128402
-0.0137433
-0.0205496
-0.0215447
-0.0168012
-0.0177751
-0.0198368
-0.0200981
-0.0181462
-0.0179204
-0.021715
-0.0188561
-0.0240961
-0.0228644
-0.0216931
-0.0209606
-0.0227158
-0.0224475
-0.0211974
-0.0163318
-0.0169114
-0.0169554
-0.0183635
-0.017381
-0.0174793
-0.0168754
-0.0227075
-0.018093
-0.018286
-0.0242639
-0.0221874
-0.0187655
-0.0218517
-0.0191528
-0.00130419
-0.00126876
-0.00078324
-0.00570761
-0.00226378
-0.0017343
-0.0026821
-0.00279532
-0.00138591
-0.00126521
-0.000883155
-0.00525976
-0.00166255
-0.00198508
-0.00403006
-0.00254403
-0.000773739
-0.000914663
-0.000748154
-0.0033877
-0.0018863
-0.00135565
-0.00198345
-0.00244165
-0.0075486
-0.00695902
-0.00606581
-0.00851415
-0.00778239
-0.00743973
-0.00783423
-0.00701032
-0.00252155
-0.0020654
-0.00576405
-0.00561233
-0.00354418
-0.00288317
-0.00513303
-0.00519424
-0.00194765
-0.0056829
-0.00117771
-0.00151631
-0.00270511
-0.00351025
-0.00104521
-0.00150457
-0.00196714
-0.00591399
-0.0068255
-0.00524995
-0.0042515
-0.00533701
-0.00517222
-0.00603874
-0.00264238
-0.00478211
-0.00570081
-0.00237752
-0.00269564
-0.00469711
-0.00295363
-0.00436486
-0.0028677
-0.00263285
-0.00265347
-0.0105435
-0.0048996
-0.00262985
-0.00671899
-0.0049842
-0.00229831
-0.00210613
-0.00227918
-0.00835926
-0.00386113
-0.0020263
-0.00545045
-0.00375411
-0.00266287
-0.00254391
-0.00278756
-0.0108096
-0.00480305
-0.00256361
-0.00683951
-0.0051094
-0.0148579
-0.0134634
-0.0151171
-0.0166176
-0.0156153
-0.0143087
-0.0165667
-0.0158762
-0.0042904
-0.00491167
-0.0118907
-0.0104901
-0.0059554
-0.00682592
-0.00940916
-0.0101272
-0.00228385
-0.00887493
-0.00228884
-0.00257772
-0.00425067
-0.00583192
-0.0025432
-0.00424806
-0.00673887
-0.0134116
-0.0119713
-0.0133869
-0.0106998
-0.0120645
-0.011971
-0.0129615
-0.00497466
-0.012265
-0.0105722
-0.00422483
-0.00665763
-0.0102113
-0.0059291
-0.0095289
-0.00362888
-0.00866123
-0.0116877
-0.00617244
-0.00536742
-0.00801012
-0.00677959
-0.00955717
-0.0165953
-0.0274831
-0.0256113
-0.0180947
-0.0199543
-0.0240941
-0.0193379
-0.0239728
-0.018717
-0.0239876
-0.0228905
-0.0185724
-0.0199725
-0.0225891
-0.0197319
-0.0218099
-0.00881984
-0.013305
-0.0145838
-0.0109091
-0.010503
-0.0122819
-0.0115311
-0.0130069
-0.0114489
-0.0131954
-0.00861993
-0.013671
-0.0117209
-0.0115295
-0.0114941
-0.0107246
-0.0148707
-0.0166734
-0.023415
-0.0170941
-0.0163018
-0.0181208
-0.0183356
-0.0197329
-0.0145722
-0.00965803
-0.0142314
-0.0154751
-0.0134764
-0.0116395
-0.0148009
-0.0133141
-0.0170904
-0.0173118
-0.0170082
-0.0227323
-0.0185189
-0.0173591
-0.0195864
-0.0185569
-0.00247894
-0.00262569
-0.00890734
-0.00518863
-0.00311217
-0.00426748
-0.00554477
-0.00619291
-0.00302097
-0.00351213
-0.0112943
-0.00616884
-0.00385558
-0.00582335
-0.00672938
-0.00810989
-0.0137739
-0.0153557
-0.0166824
-0.0144087
-0.0144495
-0.0157313
-0.0146994
-0.0156529
-0.00760598
-0.00824458
-0.0121793
-0.00980203
-0.00828399
-0.00939207
-0.00995925
-0.0104785
-0.00333632
-0.00965683
-0.00587675
-0.00635805
-0.00613112
-0.00725585
-0.0056034
-0.0070249
-0.00480437
-0.00792721
-0.0124323
-0.0108057
-0.00699516
-0.00825459
-0.00981844
-0.0106796
-0.0111015
-0.00790503
-0.00855441
-0.0124461
-0.0108006
-0.00850653
-0.0114749
-0.0095545
-0.0118127
-0.0131301
-0.00954886
-0.0131543
-0.0127981
-0.0125509
-0.0120873
-0.0117724
-0.00809215
-0.0180542
-0.0153533
-0.0145067
-0.0123074
-0.0157381
-0.0131849
-0.0165317
-0.0216791
-0.0217458
-0.0201025
-0.0224002
-0.021777
-0.0216577
-0.0215317
-0.0215389
-0.0172074
-0.018399
-0.0169142
-0.0186043
-0.018276
-0.0179276
-0.0178717
-0.0176594
-0.0219021
-0.0242224
-0.0210472
-0.0272126
-0.0239703
-0.0237275
-0.0241233
-0.0235494
-0.0204056
-0.0170923
-0.018598
-0.0227315
-0.0205579
-0.0183234
-0.0225694
-0.0207879
-0.021142
-0.0222995
-0.019794
-0.0185414
-0.0212301
-0.0210664
-0.0187006
-0.0199002
-0.0171098
-0.0192555
-0.0225167
-0.0195649
-0.0182904
-0.020965
-0.0197863
-0.021669
-0.0185692
-0.0197874
-0.0220498
-0.0197105
-0.0188915
-0.0197789
-0.0195843
-0.0206772
-0.0224459
-0.0210206
-0.0188969
-0.0228299
-0.0228444
-0.0211472
-0.0219545
-0.0201484
-0.0160949
-0.00526573
-0.00432321
-0.0135859
-0.0133917
-0.00800519
-0.0118543
-0.00631551
-0.0119257
-0.0038761
-0.00360759
-0.00859018
-0.00814744
-0.00589279
-0.00729792
-0.00494063
-0.0244439
-0.02102
-0.0156679
-0.027585
-0.0251361
-0.0212001
-0.0239711
-0.0197056
-0.0203983
-0.0172392
-0.02387
-0.0194562
-0.0192441
-0.0191965
-0.0211384
-0.0209867
-0.0170298
-0.0153468
-0.00641396
-0.0147846
-0.0156098
-0.0139712
-0.014059
-0.00998735
-0.0161245
-0.0226139
-0.0180977
-0.0139515
-0.0168699
-0.019926
-0.0147627
-0.0182595
-0.0137202
-0.010974
-0.0136995
-0.00499013
-0.0113792
-0.0124113
-0.00886203
-0.010934
-0.715694
-0.183834
-0.259584
-0.925343
-0.215675
0.120283
-0.462966
-0.132691
-0.0890498
-0.0143506
-0.0604272
-0.0607069
-0.0548081
-0.0233055
-0.082489
-0.0531879
-0.135822
-0.12067
-0.061971
-0.0863633
-0.0287307
0.0112606
-0.165051
-0.0218563
-0.822596
-0.130054
-0.125164
-0.459189
-0.157875
0.11092
-0.38008
-0.0920597
-0.10849
-0.0935866
-0.158854
-0.118588
-0.17779
-0.0803636
-0.166849
0.151216
-0.0494943
0.00896603
-0.00760046
-0.0478051
-0.1249
-0.0811598
-0.172986
-0.0844236
-0.215508
-0.383984
-0.218868
-0.203389
-0.154202
-0.0184198
-0.0309823
-0.0417224
-0.0809293
-0.0535456
-0.109611
-0.0903319
-0.0277787
0.00143351
-0.159245
-0.142698
-0.535402
-0.206826
-0.204953
-0.828188
-0.206909
0.0808778
-0.374424
-0.13802
-0.0896382
-0.0128521
-0.0607865
-0.0698193
-0.0540319
-0.00991219
-0.0831015
-0.0457481
-0.135359
-0.126611
-0.076868
-0.0905516
-0.0827966
-0.070207
-0.164906
-0.0754904
-0.712192
-0.122053
-0.130734
-0.427366
-0.171809
0.0535843
-0.330985
-0.0993162
-0.102721
-0.131127
-0.188662
-0.116796
-0.168848
-0.136682
-0.137193
0.0682742
-0.0422205
-0.0376428
-0.0338099
-0.113205
-0.0919239
-0.0959769
-0.145988
-0.0909022
-0.207717
-0.352094
-0.181275
-0.195595
-0.160053
-0.0552131
-0.0699482
-0.0727594
-0.111109
-0.0790052
-0.103249
-0.0812876
-0.0810296
-0.0536065
-0.127427
-0.149289
-0.563264
-0.125923
-0.459686
-0.205486
-0.152598
0.0564165
-0.285322
-0.0703548
-0.0268488
-0.000721244
-0.013853
0.0133529
0.00228116
0.012989
0.00332722
1.12845e-05
-0.337143
-0.0728706
-0.247823
-0.124926
-0.118703
0.00619075
-0.179717
-0.0859451
-0.0891454
0.0118782
-0.0826127
-0.0461516
-0.144766
-0.00251483
-0.0896501
-0.104192
-0.0313265
-0.130882
-0.116228
0.00710001
-0.0443564
-0.102842
-0.0234048
-0.0548895
0.0358551
0.000414644
0.0258623
0.0355085
-0.0095165
-0.018159
-0.1155
-0.00988437
-0.21549
-0.140319
-0.00084802
-0.134131
-0.150408
-0.0802912
-0.108994
-0.0440498
-0.0892831
-0.0804837
-0.00406431
-0.0198731
-0.0862622
-0.0487932
-0.0287947
-0.0193656
-0.33586
-0.589917
-0.112369
-0.15013
-0.302978
-0.169707
-0.105431
0.0758632
-0.649483
-0.938652
-0.0793705
-0.266554
-0.443116
-0.285106
-0.147246
0.000885275
-0.0546578
-0.0478525
-0.0140626
-0.0487946
-0.0571529
-0.0422382
-0.0379535
-0.0412956
-0.102046
-0.192722
-0.115129
-0.0779537
-0.162198
-0.0863602
-0.0522192
-0.0645795
-0.333415
-0.179533
-0.191729
-0.310397
-0.0737366
-0.0689715
-0.189266
-0.0759043
-0.14801
-0.146719
-0.156293
-0.121734
0.0118661
-0.170254
-0.160373
-0.21623
-0.109239
-0.0839135
-0.13989
-0.11311
-0.148398
-0.0484947
-0.121491
-0.0621683
-0.0340566
-0.082485
-0.118739
-0.0589849
-0.0940794
-0.104554
-0.145619
-0.186601
-0.413555
-0.102223
-0.0943411
-0.497032
-0.172151
0.169265
-0.359736
-0.263992
-0.0134837
0.000371633
0.0218157
-0.0157748
0.00298303
0.0447283
-0.00409423
-0.003475
-0.0425506
0.000970692
-0.0861821
-0.184669
-0.0387002
0.0337364
-0.0207215
-0.0100339
-0.359587
-0.0739266
-0.242496
-0.241233
-0.139057
-0.0524432
-0.135636
-0.1153
-0.0150054
-0.119098
-0.13689
-0.0281216
-0.0329089
-0.0597321
-0.121502
0.0907295
0.0859696
0.00264605
0.0291343
-0.0232813
-0.0154012
0.00641104
0.0308996
-0.00320712
-0.0694997
-0.251631
-0.0208684
-0.0281559
-0.134633
-0.171977
-0.126731
-0.121445
-0.0786672
-0.0806354
-0.0200051
-0.00241043
-0.0384997
-0.117983
-0.0260471
0.00104028
-0.233061
-0.307318
-0.143873
-0.0926236
-0.115268
-0.179258
0.0339206
-0.144106
-0.324678
-0.398156
-0.247887
-0.0502927
-0.171979
-0.206887
-0.0104367
-0.0987106
-0.123054
-0.149575
-0.102714
-0.00161405
-0.0705539
-0.0581902
0.011101
-0.0137225
0.00467493
0.0213699
0.0199206
0.0175356
-0.00360286
0.0157192
0.0148856
0.0179894
-0.159608
-0.103965
-0.0453741
-0.0338823
-0.00223928
-0.107103
-0.0649638
-0.0110223
-0.243624
-0.015731
-0.116435
-0.105095
-0.174367
-0.147778
-0.204165
-0.12794
-0.0480999
-0.0154142
-0.00646411
0.00367648
0.0215028
-0.0161159
-0.0124057
-0.012415
-0.0902462
0.0073938
0.00959432
-0.0800789
-0.0644822
-0.00748526
-0.109623
-0.00620376
-0.0143446
-0.0134785
-0.0155055
-0.0134172
-0.0139555
-0.0142985
-0.0141215
-0.0145487
-0.0104956
-0.00430461
-0.0117104
-0.00720473
-0.0087527
-0.00844545
-0.00931048
-0.00926168
-0.0169694
-0.0164314
-0.0182592
-0.0159636
-0.0167771
-0.0174507
-0.0169821
-0.0176522
-0.012296
-0.00917688
-0.0132419
-0.0107431
-0.0114528
-0.0114269
-0.0119248
-0.0118541
-0.0125223
-0.0153529
-0.0128882
-0.0103693
-0.012844
-0.01397
-0.0117179
-0.0129003
-0.0126679
-0.0101442
-0.0146118
-0.0157888
-0.0132547
-0.0118802
-0.014698
-0.0141388
-0.0154957
-0.0131422
-0.0109128
-0.0144697
-0.0146545
-0.0132616
-0.014084
-0.0125821
-0.0159739
-0.0146713
-0.0106464
-0.0149512
-0.0156327
-0.0143798
-0.0144788
-0.0127567
-0.0183856
-0.0169689
-0.0165923
-0.0161752
-0.017435
-0.0173032
-0.0167477
-0.0165273
-0.0155123
-0.0143598
-0.0135241
-0.0134873
-0.0147949
-0.0146972
-0.0142031
-0.0139791
-0.0122833
-0.0107859
-0.00501731
-0.00788359
-0.0108169
-0.0102088
-0.0079424
-0.00698131
-0.013621
-0.0122672
-0.00953475
-0.0108669
-0.0123291
-0.0118696
-0.0109445
-0.0104876
-0.0159796
-0.0152784
-0.0149745
-0.0138502
-0.0153313
-0.0155328
-0.0146878
-0.0146419
-0.0158158
-0.0135543
-0.0134937
-0.0149732
-0.0150732
-0.0143558
-0.0149906
-0.0137882
-0.0136203
-0.0138962
-0.0127831
-0.00962698
-0.0132887
-0.0135888
-0.0117236
-0.012573
-0.0130505
-0.00897707
-0.0123881
-0.0117994
-0.0120129
-0.0111718
-0.0122632
-0.0115607
-0.0102601
-0.0184437
-0.0188265
-0.0160739
-0.0144661
-0.016888
-0.0155404
-0.0179034
-0.0211457
-0.0215549
-0.0216884
-0.0200992
-0.0217036
-0.0218877
-0.0209006
-0.0213056
-0.0221621
-0.0218762
-0.0224226
-0.0205744
-0.0216175
-0.0219889
-0.0211896
-0.0216833
-0.0174524
-0.0183653
-0.018708
-0.0170999
-0.0178423
-0.0185275
-0.0176763
-0.0179791
-0.0205992
-0.0199444
-0.0175495
-0.0195233
-0.0199981
-0.019727
-0.0187397
-0.0189761
-0.021414
-0.0201115
-0.0218277
-0.0213092
-0.0208964
-0.0212036
-0.0215949
-0.0214062
-0.0198899
-0.0178283
-0.0191613
-0.0192918
-0.0197218
-0.0188623
-0.0195484
-0.0191056
-0.0213506
-0.0198348
-0.0196064
-0.0213866
-0.0209388
-0.0201837
-0.0208529
-0.0201487
-0.00311529
-0.00918293
-0.00617811
-0.00650496
-0.00593679
-0.00745564
-0.00540221
-0.00707951
-0.0122958
-0.0136194
-0.0127248
-0.0128594
-0.0132826
-0.0135341
-0.012881
-0.013194
-0.0083296
-0.0115598
-0.0100182
-0.00994024
-0.00994847
-0.0107726
-0.00942108
-0.0103221
-0.00831728
-0.0117409
-0.00995434
-0.0100518
-0.00976345
-0.0104625
-0.00945306
-0.0102601
-0.0108177
-0.00813803
-0.00827519
-0.0114566
-0.0105922
-0.00876257
-0.011276
-0.0093159
-0.0117285
-0.0121795
-0.0122934
-0.00932807
-0.0112608
-0.0122349
-0.0104214
-0.0117685
-0.00762407
-0.007798
-0.0111929
-0.00924025
-0.00832737
-0.00901049
-0.00960268
-0.0100154
-0.0089507
-0.0101532
-0.0119957
-0.0119025
-0.010535
-0.0103954
-0.0112402
-0.0114353
-0.0222448
-0.021042
-0.0201413
-0.0184007
-0.0212032
-0.0212043
-0.01989
-0.0199478
-0.0200469
-0.0192005
-0.0181108
-0.0169645
-0.0190876
-0.0191299
-0.0178591
-0.0180094
-0.0181957
-0.017163
-0.0166082
-0.0153126
-0.0171439
-0.0171953
-0.01622
-0.0162898
-0.01506
-0.0142247
-0.0135496
-0.0118956
-0.0140154
-0.0142558
-0.0130276
-0.0134052
-0.0199431
-0.0189649
-0.0175833
-0.0165921
-0.0188082
-0.0187286
-0.0177196
-0.0177482
-0.0199881
-0.0167714
-0.0179562
-0.0190071
-0.0188647
-0.0177842
-0.0189646
-0.0178978
-0.01794
-0.0163199
-0.0154758
-0.0148426
-0.0167452
-0.0165481
-0.0157694
-0.0154576
-0.0179742
-0.0150709
-0.0157669
-0.0169332
-0.0169716
-0.0158975
-0.0168141
-0.0158738
-0.00329899
-0.00313702
-0.00368536
-0.0144244
-0.0067939
-0.00339542
-0.00956724
-0.00663705
-0.00282607
-0.00224524
-0.00271028
-0.0107927
-0.00518111
-0.00252902
-0.00729178
-0.00476938
-0.00313446
-0.00290227
-0.00312353
-0.0149059
-0.00582758
-0.00298333
-0.0079613
-0.00562299
-0.0202231
-0.0181562
-0.0206802
-0.0221766
-0.0205955
-0.0193326
-0.0217086
-0.0210421
-0.00578218
-0.00634426
-0.0161994
-0.0140145
-0.0080298
-0.00893678
-0.0126784
-0.0137505
-0.00302865
-0.0115999
-0.00264647
-0.00327188
-0.00560005
-0.00782375
-0.00310807
-0.00531052
-0.00880495
-0.0178904
-0.0160353
-0.0181537
-0.0143304
-0.0163616
-0.0166762
-0.0180081
-0.00620146
-0.0172144
-0.0143278
-0.00483989
-0.00836451
-0.0142204
-0.00723827
-0.0130418
-0.016501
-0.0169
-0.0180474
-0.0154492
-0.0162311
-0.0168006
-0.0162393
-0.0168076
-0.0178884
-0.0190354
-0.0196603
-0.0167024
-0.0177267
-0.018777
-0.0176272
-0.018711
-0.0197716
-0.020476
-0.0216514
-0.0190482
-0.0196237
-0.0204387
-0.0196881
-0.0204248
-0.0137245
-0.0143211
-0.0154595
-0.0121212
-0.0132375
-0.0142037
-0.0129739
-0.0138776
-0.0167345
-0.0177859
-0.0149983
-0.0156089
-0.0166751
-0.0166371
-0.0157729
-0.0157031
-0.017633
-0.0165519
-0.0195844
-0.0186177
-0.017546
-0.0174686
-0.0186539
-0.0185689
-0.0177652
-0.0148901
-0.0153831
-0.0163484
-0.016583
-0.0156118
-0.0164655
-0.015308
-0.0186026
-0.0171728
-0.0164144
-0.0195953
-0.0184353
-0.0173784
-0.0185295
-0.0174058
-0.00436908
-0.0126512
-0.00412457
-0.0104003
-0.00838284
-0.00912121
-0.00747631
-0.00826456
-0.0163978
-0.0177074
-0.016487
-0.0191017
-0.0176731
-0.0177105
-0.0177056
-0.0178065
-0.00412007
-0.0123981
-0.00438482
-0.0110699
-0.00820268
-0.00905207
-0.00712347
-0.00823915
-0.0179462
-0.0216789
-0.0194242
-0.0261209
-0.0226181
-0.0216387
-0.0225661
-0.0225165
-0.015019
-0.0079955
-0.0154408
-0.0194416
-0.0150025
-0.011036
-0.0171422
-0.0157502
-0.0151857
-0.0192703
-0.0151803
-0.00914537
-0.0150862
-0.0166645
-0.0127198
-0.0150387
-0.00680136
-0.0149185
-0.0194268
-0.0144519
-0.0107978
-0.0154574
-0.0157073
-0.0175899
-0.00821814
-0.0152773
-0.0196312
-0.0151122
-0.0108199
-0.0152613
-0.0149939
-0.0174972
-0.0165727
-0.0149945
-0.0136289
-0.0143445
-0.015821
-0.0154717
-0.0148441
-0.0140519
-0.0107697
-0.00359245
-0.00327141
-0.00683729
-0.00811357
-0.00572304
-0.0072621
-0.00422765
-0.00890246
-0.00293463
-0.00265208
-0.00517988
-0.00609089
-0.00431278
-0.00546955
-0.00328746
-0.0121311
-0.00820804
-0.00750311
-0.00960294
-0.0108437
-0.00927844
-0.00992297
-0.00811337
-0.0131183
-0.0118538
-0.0134869
-0.0100177
-0.0120794
-0.0127237
-0.0115213
-0.0123334
-0.0121668
-0.00787599
-0.00479154
-0.0106925
-0.0102698
-0.00843745
-0.00967625
-0.00711193
-0.0110431
-0.0124601
-0.0086729
-0.00798492
-0.0105338
-0.0110405
-0.00873677
-0.00962443
-0.0094845
-0.00588141
-0.00658712
-0.00366043
-0.00725411
-0.00698229
-0.00609817
-0.00580525
-0.00546999
-0.0126496
-0.0134217
-0.0122134
-0.00941572
-0.0108605
-0.0113251
-0.0130789
-0.0216359
-0.0288222
-0.0224968
-0.0277788
-0.0245925
-0.024309
-0.0242316
-0.0256164
-0.0170395
-0.0197737
-0.0181056
-0.0198711
-0.0190531
-0.0185447
-0.0190977
-0.018842
-0.0212506
-0.0279109
-0.022635
-0.0287356
-0.0256881
-0.0242528
-0.0249256
-0.0255295
-0.0171573
-0.0167113
-0.0181915
-0.0249138
-0.0184631
-0.0169735
-0.020557
-0.0182246
-0.0183093
-0.0239994
-0.0206331
-0.0169201
-0.0198818
-0.0216033
-0.0187169
-0.0210681
-0.0172314
-0.019123
-0.0246198
-0.0215373
-0.01843
-0.0197066
-0.0217624
-0.0218791
-0.0176666
-0.0212339
-0.0252601
-0.0209364
-0.0197925
-0.0207917
-0.0210183
-0.0221466
-0.005158
-0.0174749
-0.00380709
-0.0121152
-0.0106027
-0.0115094
-0.0082981
-0.00918127
-0.0220568
-0.0230892
-0.0185801
-0.0248677
-0.0234331
-0.0226979
-0.0227356
-0.0222672
-0.00360445
-0.0112016
-0.00294376
-0.00869349
-0.00693079
-0.00757616
-0.00529266
-0.00640114
-0.0196628
-0.0264321
-0.0168328
-0.0298058
-0.0244681
-0.0235392
-0.0237641
-0.0234631
-0.0198476
-0.00841385
-0.0175137
-0.0238396
-0.0189016
-0.0129652
-0.0225821
-0.0175233
-0.0197434
-0.0232123
-0.0167164
-0.00919258
-0.018661
-0.020646
-0.0138141
-0.0168593
-0.00670666
-0.0160674
-0.022586
-0.0125181
-0.0096398
-0.0166119
-0.0143686
-0.0190753
-0.00791135
-0.0132849
-0.0222534
-0.0159193
-0.0112969
-0.0144312
-0.0156201
-0.0186855
-0.0164369
-0.0137557
-0.0144293
-0.0142298
-0.0152372
-0.0144754
-0.0148206
-0.0141163
-0.00889483
-0.00298183
-0.0058056
-0.00559303
-0.00652415
-0.00526093
-0.00638428
-0.00517011
-0.0122544
-0.0079663
-0.0100878
-0.00974821
-0.0105407
-0.00971023
-0.0103446
-0.00944057
-0.0122215
-0.00784234
-0.00974424
-0.0100002
-0.0108183
-0.00949379
-0.0105484
-0.00926207
-0.0116423
-0.0128872
-0.0130934
-0.00886907
-0.0113939
-0.0126257
-0.0107017
-0.0120182
-0.0107272
-0.00752879
-0.0074365
-0.0121107
-0.010391
-0.00825846
-0.0108912
-0.00878213
-0.0125648
-0.0127147
-0.0086045
-0.0103203
-0.0119721
-0.0116999
-0.010583
-0.0101283
-0.0118654
-0.00916653
-0.00719755
-0.0072722
-0.0100417
-0.0093926
-0.00851328
-0.00774906
-0.00619397
-0.0140706
-0.0154754
-0.00971118
-0.00910625
-0.0132546
-0.0112645
-0.0128266
-0.021793
-0.0266406
-0.0239207
-0.0179003
-0.0221861
-0.0248059
-0.0204728
-0.0231151
-0.0195452
-0.0216882
-0.0199565
-0.0169995
-0.0191489
-0.0207684
-0.0182873
-0.0193805
-0.0105948
-0.0130428
-0.0139596
-0.0110428
-0.0111009
-0.0125423
-0.011703
-0.0126536
-0.0159201
-0.0166279
-0.0106911
-0.0148398
-0.0150706
-0.0144663
-0.0133664
-0.0127429
-0.0204653
-0.016985
-0.0223869
-0.0195555
-0.0190671
-0.0192775
-0.0208905
-0.0209144
-0.0169531
-0.0117519
-0.0142866
-0.0153573
-0.0146983
-0.0128783
-0.0151034
-0.0138892
-0.0182626
-0.0161175
-0.0163036
-0.0210784
-0.0183106
-0.0165098
-0.0190208
-0.0173528
-0.00194851
-0.00236389
-0.00826048
-0.002176
-0.00191391
-0.00353083
-0.00344073
-0.00489677
-0.00267673
-0.00262956
-0.0108316
-0.00273327
-0.00229819
-0.00433078
-0.00461195
-0.0067402
-0.0136602
-0.0153557
-0.0171276
-0.0158774
-0.0143722
-0.0159112
-0.0159102
-0.0171128
-0.0026435
-0.00277761
-0.0107756
-0.00295595
-0.00238571
-0.00469418
-0.00452579
-0.00700861
-0.00218474
-0.00866809
-0.00224065
-0.00236209
-0.00395134
-0.00541562
-0.00254063
-0.00396048
-0.00387872
-0.00460109
-0.0117259
-0.0102367
-0.0057129
-0.00675531
-0.00921562
-0.00984446
-0.0102591
-0.00401882
-0.00463821
-0.0120066
-0.00961492
-0.0056173
-0.00988092
-0.00669501
-0.0116045
-0.0135999
-0.00707497
-0.0136118
-0.0127542
-0.0119274
-0.0117383
-0.0108352
-0.00840708
-0.0192074
-0.019652
-0.017083
-0.0125923
-0.0181196
-0.0167126
-0.0194244
-0.0228442
-0.0229618
-0.0225865
-0.0241363
-0.0225099
-0.0228237
-0.0231601
-0.0232669
-0.0230226
-0.0225013
-0.0225998
-0.0245127
-0.0229005
-0.022734
-0.0236478
-0.0231167
-0.0261559
-0.0267361
-0.0277235
-0.0319647
-0.0251961
-0.0273382
-0.030196
-0.0287772
-0.0203722
-0.0212051
-0.0193238
-0.0238688
-0.0230162
-0.0213308
-0.0246938
-0.0237628
-0.0225114
-0.0242395
-0.0225884
-0.0228912
-0.0233865
-0.023125
-0.0227693
-0.0227643
-0.0233381
-0.0244739
-0.0251279
-0.0260821
-0.0245656
-0.0252758
-0.0247517
-0.025254
-0.0237484
-0.0257341
-0.0250778
-0.0230247
-0.0233269
-0.0247991
-0.0232286
-0.0241218
-0.00517183
-0.0168623
-0.00523125
-0.0145596
-0.0115758
-0.0124216
-0.0100556
-0.0111942
-0.021924
-0.023342
-0.0225433
-0.0248875
-0.0232004
-0.0231048
-0.0235477
-0.0231789
-0.00453514
-0.0176224
-0.00536785
-0.0129292
-0.0101605
-0.0112246
-0.00889296
-0.0101801
-0.023804
-0.0275076
-0.0228797
-0.0316858
-0.0290338
-0.0277238
-0.0290976
-0.0278664
-0.0204981
-0.010822
-0.0206449
-0.0254524
-0.0201774
-0.015091
-0.0231545
-0.0205988
-0.0205466
-0.0250499
-0.0207578
-0.0118918
-0.0202433
-0.0226283
-0.0170936
-0.0202316
-0.00925151
-0.0196505
-0.0254135
-0.0186699
-0.0135632
-0.020021
-0.0196819
-0.0228771
-0.0105358
-0.0191508
-0.0253262
-0.0205763
-0.0145646
-0.0198503
-0.0200213
-0.0230403
-0.0033306
-0.011136
-0.00321255
-0.00631034
-0.00626973
-0.00731537
-0.00487236
-0.00576456
-0.0155223
-0.0170664
-0.0136126
-0.0146709
-0.0156467
-0.0158869
-0.0143763
-0.0147499
-0.00272509
-0.00845126
-0.00253944
-0.00512475
-0.00480649
-0.00549838
-0.00394066
-0.0045917
-0.00836761
-0.0121672
-0.0075862
-0.00976611
-0.00981433
-0.0102834
-0.0088073
-0.00936574
-0.0129692
-0.00531953
-0.00856544
-0.0127093
-0.0112891
-0.00791103
-0.0119133
-0.00939378
-0.0134852
-0.0130413
-0.0115592
-0.00617011
-0.0119769
-0.0128511
-0.00958227
-0.0110507
-0.00422905
-0.00713661
-0.0115711
-0.00645094
-0.00573006
-0.00807428
-0.00740441
-0.00934383
-0.00507087
-0.00709873
-0.0120189
-0.0103486
-0.00701392
-0.00814781
-0.00969328
-0.0104809
-0.00376106
-0.00679798
-0.00954545
-0.00664941
-0.00489704
-0.0067394
-0.006478
-0.00783685
-0.00869143
-0.00968596
-0.0116195
-0.00960469
-0.0088478
-0.00980015
-0.00964334
-0.010626
-0.0127454
-0.0130374
-0.0139368
-0.0130577
-0.0128662
-0.0133127
-0.0132573
-0.0136447
-0.00830207
-0.0096142
-0.0116042
-0.00975454
-0.00875101
-0.00969272
-0.00984696
-0.0106764
-0.00732219
-0.0101332
-0.0072425
-0.00864478
-0.00856263
-0.00872825
-0.00843916
-0.00845825
-0.00867006
-0.00955738
-0.011874
-0.0110927
-0.0096521
-0.00991356
-0.010853
-0.0110671
-0.0109792
-0.0083567
-0.00962095
-0.0116851
-0.0108953
-0.00961475
-0.0109691
-0.00987706
-0.0117773
-0.0123975
-0.0105569
-0.0123964
-0.0119668
-0.0116358
-0.0116595
-0.0114791
-0.00757531
-0.0155387
-0.0186283
-0.0167529
-0.012373
-0.0150117
-0.0157151
-0.018332
-0.0236372
-0.0313582
-0.0253496
-0.0313985
-0.0309343
-0.0290864
-0.029
-0.0282727
-0.0222984
-0.0236204
-0.0229928
-0.0250362
-0.0241228
-0.0235507
-0.0239889
-0.0233457
-0.0262436
-0.0332449
-0.0284862
-0.0344093
-0.0322718
-0.0306959
-0.0314437
-0.0312039
-0.0212356
-0.0220469
-0.0223005
-0.0305301
-0.0225849
-0.0214834
-0.0246139
-0.0227371
-0.0219988
-0.0291688
-0.0252846
-0.0220554
-0.0240176
-0.0270332
-0.0226367
-0.026203
-0.0226993
-0.0237952
-0.0300034
-0.0266157
-0.0246566
-0.0255803
-0.0272371
-0.028478
-0.0228225
-0.0257703
-0.0296955
-0.0248946
-0.0250437
-0.0262647
-0.0255737
-0.0270873
-0.00125422
-0.000856273
-0.00109429
-0.00426546
-0.0020354
-0.00147791
-0.00271509
-0.00232152
-0.00110403
-0.00130186
-0.00123262
-0.00519813
-0.00298695
-0.00235197
-0.00421636
-0.00333907
-0.00114597
-0.000883715
-0.00114079
-0.00389966
-0.00180049
-0.00134417
-0.00293746
-0.00246717
-0.00682949
-0.00736117
-0.00673226
-0.00868264
-0.00750993
-0.00684325
-0.00832193
-0.00789027
-0.00218036
-0.00177813
-0.00527853
-0.00626228
-0.00318106
-0.00259726
-0.00506768
-0.00492638
-0.00184924
-0.00520283
-0.00199345
-0.00155371
-0.00252107
-0.00275953
-0.00137844
-0.00178484
-0.00267751
-0.00564447
-0.00737005
-0.00640178
-0.00420915
-0.00499801
-0.00520167
-0.005726
-0.00226637
-0.00578691
-0.00682999
-0.0027001
-0.00254265
-0.00458
-0.00338502
-0.00494942
-0.00129266
-0.00132478
-0.000619166
-0.00805648
-0.00320976
-0.00166303
-0.00427711
-0.00266844
-0.00142716
-0.00147071
-0.0023491
-0.00821421
-0.00224952
-0.00109658
-0.00394935
-0.00226431
-0.000767727
-0.0022681
-0.0016031
-0.00558446
-0.00161605
-0.000912647
-0.00234058
-0.00205524
-0.0152387
-0.0173829
-0.0122892
-0.0222287
-0.0174754
-0.0155523
-0.0177685
-0.0167415
-0.00229283
-0.00238121
-0.00975694
-0.00943735
-0.0044442
-0.00415131
-0.00840577
-0.00805725
-0.00108076
-0.00685839
-0.000901367
-0.00120937
-0.0025433
-0.00395114
-0.00156515
-0.00134216
-0.00332378
-0.0114153
-0.0107404
-0.0086529
-0.00514958
-0.00942922
-0.00827444
-0.010823
-0.00234879
-0.00780086
-0.00826187
-0.00204174
-0.00353363
-0.00628053
-0.00329965
-0.00824982
-0.00375857
-0.00310083
-0.0111253
-0.00660317
-0.00410706
-0.004976
-0.00681941
-0.00792592
-0.00263223
-0.00221293
-0.00841377
-0.00517123
-0.00313068
-0.00388744
-0.00535538
-0.00611452
-0.0153062
-0.0136031
-0.0169227
-0.0145948
-0.0149218
-0.0152005
-0.0152957
-0.0154806
-0.00826533
-0.00750221
-0.0122383
-0.00970742
-0.00837011
-0.00875515
-0.00986507
-0.010345
-0.0036329
-0.0108935
-0.00671591
-0.00609351
-0.00595445
-0.00788023
-0.00573999
-0.00719779
-0.00434205
-0.00654811
-0.0101847
-0.011496
-0.00691259
-0.00693905
-0.00937497
-0.00960753
-0.0122925
-0.00857173
-0.00780432
-0.012559
-0.011651
-0.0092908
-0.0114872
-0.00924452
-0.0129429
-0.0129093
-0.00837081
-0.0115469
-0.0125282
-0.0118501
-0.0109465
-0.0104566
-0.00196728
-0.00845484
-0.00250666
-0.00532039
-0.0044749
-0.00477903
-0.00456031
-0.00471551
-0.0162834
-0.0252415
-0.0195855
-0.0165581
-0.0191483
-0.0221198
-0.0177503
-0.0205789
-0.00294952
-0.0106552
-0.00297776
-0.00750958
-0.00581068
-0.0068434
-0.00520634
-0.00572813
-0.00746133
-0.0116975
-0.0091889
-0.0097728
-0.00917981
-0.0104887
-0.00870443
-0.0100062
-0.0107375
-0.00540292
-0.00723151
-0.0120339
-0.0103665
-0.00656616
-0.0103083
-0.0079616
-0.0114166
-0.0138865
-0.0138222
-0.00547582
-0.0110431
-0.0136617
-0.0088883
-0.0120211
-0.00491084
-0.00700042
-0.0113796
-0.00756387
-0.0063017
-0.00769643
-0.0080487
-0.00913593
-0.00526688
-0.0089506
-0.0128331
-0.0124179
-0.00730745
-0.009502
-0.0115615
-0.0114342
-0.00659417
-0.0191264
-0.014175
-0.0150724
-0.0116505
-0.0146651
-0.0127439
-0.0156563
-0.0236819
-0.022927
-0.024516
-0.025
-0.0232047
-0.0231359
-0.0242358
-0.0237806
-0.0231808
-0.0274869
-0.0326056
-0.0310349
-0.0278056
-0.029434
-0.0297529
-0.0315093
-0.025573
-0.0287527
-0.0309396
-0.0334442
-0.0285723
-0.0300638
-0.0313905
-0.0320769
-0.0210507
-0.0202847
-0.020021
-0.0259515
-0.0224805
-0.0209406
-0.0241937
-0.0230691
-0.0226383
-0.0261758
-0.0256711
-0.0218526
-0.0235763
-0.0246758
-0.024052
-0.0248404
-0.0211513
-0.0215923
-0.0271802
-0.0301891
-0.0241587
-0.0251151
-0.0283297
-0.0283075
-0.0233917
-0.0311458
-0.0272674
-0.0265472
-0.0275727
-0.0293429