/*--------------------------------*- C++ -*----------------------------------*\
| =========                 |                                                 |
| \\      /  F ield         | OpenFOAM: The Open Source CFD Toolbox           |
|  \\    /   O peration     | Version:  2506                                  |
|   \\  /    A nd           | Website:  www.openfoam.com                      |
|    \\/     M anipulation  |                                                 |
\*---------------------------------------------------------------------------*/
FoamFile
{
    version     2.0;
    format      ascii;
    arch        "LSB;label=32;scalar=64";
    class       volScalarField;
    location    "1800";
    object      p;
}
// * * * * * * * * * * * * * * * * * * * * * * * * * * * * * * * * * * * * * //

dimensions      [0 2 -2 0 0 0 0];

internalField   nonuniform List<scalar> 
46720
(
26893.6
22521.4
42246.7
16761.4
30609.7
32372.5
31961
36276.3
14397.6
13176.2
28145.2
3010.67
11450.9
17263.6
10446.5
17516.3
55422.6
50719.9
71340
53296.9
54746.3
50236.8
61981.5
57931.8
13005.5
9111.54
20563.4
12986
13909.6
17525.3
16074.7
17274.6
23646.2
41738.1
23918.1
12382.3
24403.6
34273.4
11946.6
27570.7
24678.2
12292
32967.4
40111.6
27238.8
23919.9
34426.6
30481.1
44587.9
24724.9
14023.9
33689.5
27464.8
28241.3
30545
23661.8
45154.4
34897.6
16828
36249.6
44608.5
30253
32362.3
33164.1
23288.9
20622.5
19772.9
16100.2
15672.3
17343.1
32874.6
26154.5
8674.61
-868.252
10658.7
9623.14
12438.2
-140.65
14627
10625.6
11965.2
11805.1
10220.6
3127.87
9895.49
9147.95
9998.17
7538.88
12716.6
10891.7
8445.43
10234.1
11869.1
9598.78
12607.8
8497.39
19918.8
20025.1
15111.3
13565
19925.9
22171.5
14699.3
12501.5
11693.2
9919.53
9854.13
14756.9
21544.3
14293.9
16901.7
15136.5
21995.9
22783.2
14729.5
16818
9984.73
19954.7
8969.67
15031.2
18753.9
5475.96
11607
10523.2
14896
6532.14
11401.4
8486.37
351.327
-62.2715
-254.412
-2531.48
-458.62
-164.402
-876.562
-924.262
-272.455
5839.89
-810.303
2926.36
898.405
1582.09
1146.83
2419.32
2152.27
3039.82
7502.34
8842.49
3470.44
4276.72
5050.02
6358.08
-4981.91
1586.72
10742.9
16716.6
1770.41
1775.33
7383.75
10066.4
-660.338
-780.945
-2243.74
-1547.86
-1520.61
-1489.86
-1934.63
-2039.84
-783.198
-193.097
753.966
266.113
-1239.46
-435.031
-1434.69
-1413.11
-11.7138
-1998.8
329.455
5214.03
-1475.8
-1652.68
2504.85
2039.46
1231.84
6033
1797.94
2377.24
985.511
2638.16
784.345
788.47
23304.6
25258.9
13777.4
21545
31610.6
26083.7
24316
11636.8
24075.4
15528.4
16235.7
7384.82
25406.4
26123.2
12714
12275.9
15440.5
13130.7
9053.71
24285.1
21278.7
12672.3
21943.7
19600.7
13863.2
13931.1
15506.8
17584
12413.5
13940
16718.2
15156.2
28685.8
16793.7
21020.3
21621.9
17014.1
15163.4
22250.7
26323
26424.2
15504.7
16552.8
16666.9
10245.7
10919
14812.1
14577.3
17182.2
19316.2
24701.5
14837
14912.1
19685
10969.4
18405.2
17935.2
18520.2
18501.8
16586.2
17990.1
15551.2
17403
15539.4
4929.78
9372.48
14682.7
12973.9
5567.25
8421.07
10521.6
11189.4
17646.5
20869.4
15333.8
21268.4
18064.2
19784.7
20585.3
18993.3
20214.2
13017.3
20298.7
25115.7
22531.3
24947.7
25529.3
24005
14255
14528.2
16338.3
17201.3
13368.8
13655.7
15519.7
15248.2
15691.7
11761.8
13992.6
17387.7
15512
14789
13902.9
16131.8
15043.6
19765.1
14648.2
14090.9
14602.8
16845.8
14110.3
13287.1
16217.8
17006
18214
18621
15811.2
19361.7
19831.7
13915.8
18185.9
18669
17525.9
20732.9
11408.1
18520.2
22975.7
16128.9
323.038
1265.79
-255.081
-3310.8
565.8
891.501
-1462.28
-1207.75
679.237
1308.08
-1610.95
-3502.64
1469.66
1089.41
-4852.53
-5224.4
155.341
-1255.65
5508.74
2675.95
188.032
351.632
2450.66
3066.47
-3653.92
-402.497
-395.377
8712.43
-1693.74
-853.759
-5675.89
-5950.99
199.651
-1489.1
-3122.84
-1331.55
-2344.75
-2400.62
-2873.52
-2937.57
459.834
-1268.69
217.848
-1166.29
-2512.09
-3664.9
-2091.11
-367.08
-361.247
-3037.35
-2530.47
-61.7267
-1546.1
-2413.46
-1292.55
-1727.6
54.523
146.767
-1690.29
-926.134
-233.306
-739.355
-1188.36
-1584.4
8413.8
33065
-39571
80101
80228.5
40379.3
42988.9
56278.7
14108.3
21404.4
-2118.49
22553.9
37932.4
33808.4
34558.2
21187.4
222767
-4069.36
1.18075e+06
30484.7
215350
120075
149874
156856
47474.7
36546.4
99902.3
-65808.8
45290.4
2937.08
30060.2
136662
35847.8
-12593.1
86217.7
30179.9
45504
47588.4
29971.9
52664.3
29607.7
39236
14705
-25343.2
46771.2
35902.8
37521.8
25602.8
19995.3
139099
43062.2
20715
-53329.4
116863
36942.3
71221.7
95342.1
80509.4
55148.3
-8007.82
92502.3
7322.61
8051.8
-9503.67
1.62616e+06
261943
325863
45239.6
486788
467438
154407
257203
2579.18
22660.6
20188.4
28110.8
16809.8
18002.1
32128.9
28935
34877.7
39062.3
-35743.9
21983.9
66059.4
55641.1
566.831
22601.9
15682.8
19591.8
19543.1
19837.3
12781.9
16705.9
15407.6
17412.8
85392.2
162798
21639.7
31254
46370.5
28735.9
11265.9
20441.4
105431
26310.2
1669.93
142975
60391.8
3724.93
77119.5
15636.9
64278
22600.7
23182
19018.5
25542.8
23268.3
21236.8
18085.7
104253
22553.6
28746.8
32128.6
35928.7
20614
34172.8
18783.3
2064.45
1837.63
1303.3
4188.38
2662.92
2296.68
2210.13
2249.62
288.103
4113.86
2059.71
2874.55
34.6794
657.539
1548.27
2412.01
2181.1
4544.93
5906.62
9180.33
3671.37
4101.99
7621.08
6401.36
6051.45
6312.62
13606
17822.8
11662.4
9162.11
15685.9
12691.2
1279.96
2313.42
4746.68
4047.85
1018.86
2289.01
2424.14
3293.04
519.107
2879
2200.27
1682.99
1160.65
2024.99
212.88
1687.38
2862.55
3961.04
6400.72
11124.9
2880.65
4414.48
7561.08
6356.44
2530.11
9647.21
5064.66
4696.95
3402.79
4934.85
5058.49
5281.42
93391.6
47886.3
78066.2
49492.8
51924.8
58758.9
68833.4
64084.9
27289.3
13004.4
24182.3
3716.61
17294.4
12570.3
17632.9
15066.4
60587.3
37192.7
55808.2
36502.6
50645.6
40298.4
39688.6
35340.1
21079
10810.5
24547.7
16183
17903.2
18915.5
17836.1
16940.1
35127.6
55541.5
29567.6
15404.1
36862
45541.2
26276.9
31019.6
35906.2
15767.6
27527.5
54454.1
37856.4
22920.4
48231.4
34587.7
50364.7
33621.2
14911.4
28539.6
42173.7
31091.2
29323.4
21625.4
50413.9
26657.3
14585.6
28004.8
40919.8
32309.2
30612.3
25105.7
383.404
1678.51
2199.83
1258.06
184.634
891.924
586.778
1565.65
-371.499
7886.91
9190.46
831.135
2462.12
3768.23
3654.1
5652.09
2772.91
10019.2
-1020.13
7174.41
6827.32
4404.01
3242.28
5539.08
1974.15
5002.11
8509.34
7568.14
5400.05
4724.41
6534.74
5606.25
-238.153
2689.05
991.886
1576.79
1824.85
2243.91
-271.1
767.975
-493.854
3169.99
4935.08
2564.64
1086.25
3864.94
3279.53
3970.88
2511.25
1816.32
2777.53
4968.87
2547.3
1903.36
5207.64
4937.74
4437.07
8893.46
3442.48
7851.49
5660.19
6485.3
4732.1
7435.7
1235.03
993.362
962.904
1295.65
783.495
888.943
480.845
537.898
801.202
1702.8
325.141
1271.51
599.824
988.079
378.549
532.426
842.387
1192.24
1815.93
3608.67
1573.84
1456.94
2577.59
2319.21
4432.88
3751.79
4653.15
10368.8
7476.73
6432.85
7595.63
7487.9
1130.6
929.689
2313.92
2320.79
263.866
125.077
996.575
1876.8
1300.57
1297.64
722.268
1080.16
407.065
-106.211
746.436
924.767
1069.82
2832.7
3870.89
4591.5
2000.74
2662.76
4165.83
2936.84
980.378
4205.28
3629.47
1180.2
1471.95
3423.83
1328.22
1587.05
469.406
631.117
309.631
256.471
599.813
628.571
770.64
741.592
2081.16
19398.9
6604.82
12415.5
6417.79
12838.8
10696.4
16673.6
1757.73
5281.17
5872.49
5297.46
3623.3
3899.31
3635.08
4352.9
962.751
12852.5
3797.33
6051.52
6570
8325.77
2389.78
4980.32
2816.09
481.321
1393.51
7985.7
3245.8
1413.38
4820.41
3043.02
3372.1
10300.6
4922.93
1058.78
3186.22
6134.29
2669.19
4357.6
564.467
832.289
9141.68
2421.97
16.8381
2340.92
2384.21
5104.46
1152.46
4642.38
10990.9
5580.12
2922.59
3845.67
3855.47
5671.33
37860.3
47017.6
38991.5
33516.7
40744.7
44907.9
40054.1
44335.2
55270.5
61686.6
59534.5
49003.4
52965.7
59688.4
50905.7
56318.7
38902.6
52871.8
41055.9
41438.4
44940.1
45293.1
43613.8
47540.9
28219.2
31151.7
33274.8
22812.5
27000.5
29055.6
27688.4
33136.2
46507.7
44463.6
35589.4
41844.4
47454.7
48440.6
40147.8
37607.3
52349
45756.6
61111.8
46096.9
51661.7
52118.6
56369.1
53694
42481.1
39093.2
47209.7
41655.9
35299.7
40129.3
39657.1
47181.3
46249.6
44112.1
48077.7
57002.2
50692.9
42204.4
54344.2
45222.6
30748.7
29951.9
26479.2
28522.5
33049.9
26567.4
34210.3
28838.6
29899.9
33995.9
23595.5
36484.7
36212.8
30329.6
31473.6
29247.7
16199.1
15698.1
6163.77
17131.7
14374.6
11691.4
13690.1
9638.73
25195.9
31268.7
20644.5
21687.2
26172.3
26109
20497.2
21978.1
34646.8
23282.4
30043.3
33156.7
32331
28734.3
31282.4
28561.8
29552.2
31333.7
20617
21096.4
29785.9
28569.8
25279.1
23946.4
23730.1
28912.4
26530
19871
27419
26801.3
22038.2
24687.2
19041.1
19126.3
27454.8
18821.1
19245.6
22209.3
20733.8
24819.6
35424.8
38625.6
45279.4
32320
40232.9
39747.8
45803.6
46526.7
32581.3
36581.9
45191.3
33726.8
43496.2
40428
36162.9
42930.7
49924.4
44376.2
40071.3
45554.1
48721.7
49804.4
52085.3
54521.7
22763.8
23862.1
27592.7
14686
24875.3
24215.5
25135.1
22566.2
44021.7
47034.7
32737.5
40138.3
36258.3
39345.3
32567.4
33648.8
35367.9
35786.9
49862.9
46862.7
49592.3
40225.3
45782.7
48119.7
48045.8
39026.9
32428.1
37762.1
38452.1
40114.8
37175.5
34611.3
51551.5
38012.9
38416.7
50537.5
44289.7
37313.4
40301.7
36054.2
28108.5
21033.3
29898.2
31270.8
34035
21913.2
38007.9
33544
10407.5
931.194
12971.2
16249.7
14327.1
4737.74
13159.8
11747.7
26971.4
21043.8
30818.5
34078.5
28634.5
23677.5
28596.4
27695.3
20459.1
17981.2
22251.3
13835.9
19201.8
15748.1
21301.5
20685.1
25217.1
30832.4
31181.1
22774.1
26379.5
31162.4
25580.8
23291
13868.8
15495.8
16604.7
25991.7
22983.9
18411.7
21750.9
21173.7
33616.6
34516.3
21997.5
25815.2
22738.3
29994.7
27366.2
28309.8
31496.8
27137.3
21248.7
19913.2
32030.1
22240
22173.5
22766.4
531.508
890.517
3105.52
2056.79
393.979
462.761
1526.07
2235.02
1855.75
5948.56
5288.76
6479.72
4075.94
4882.97
4542.93
5123.24
4293.45
6513.45
12875.3
10909.1
8479.53
12489.2
9806.7
10314.8
6084.5
8443.37
18442.1
24057.7
9110.64
9834.47
13959.1
17054.2
1019.18
2705.56
2446.3
4036.65
1893.01
2511.81
2923.27
2996.23
1546.77
5546.15
4327.75
2769.4
2275.21
4048.63
3068.41
3568.87
3001.57
3647.61
5654.67
12215.7
3659.7
4111.04
7740.42
6791.89
4002.74
11153.3
6445.61
6043.56
4962.5
8654.16
5268.69
8336.79
22608.9
24897.6
29394.9
19157
25226.3
26417.1
25568.4
28013.4
24433.2
27361.6
30909.2
18765.2
29654.8
29057.4
23328.6
29615.5
29986.4
31490.3
30981.4
31362.9
27363.8
33285.2
29189.6
32114.1
17672
22048
23532.4
14905.1
18461.5
22579.5
20828.8
20494.6
29525.8
28009.4
21218.3
20479.2
22921.1
23757.8
22726
24205.7
26774.8
20263.9
32504.3
31680.2
31140.8
24755
30255.3
29774.5
28942.6
24274.4
24602.3
25774.6
27727.1
25646.8
24769.6
25752.6
31247.9
28083.8
22427.3
31215.1
24882.5
25557
23798.8
24238.2
19763.9
14694.9
22229.9
16286
20192.8
19206
21992.2
20500.7
9589.53
6348.91
13471.4
12817.1
10679.9
8743.35
11788
11648.9
22876.8
19169
25885.4
18042.8
23339.6
21023.2
24126.9
23411.1
14206.6
15073.8
19705.7
14013.7
13973.3
12039.9
17223.9
13307.4
15109
22076.7
17107.8
13487.1
17024.2
19235.2
13729.1
15943.7
12094.7
11546.3
14988.4
18474.8
15623.9
15412
15712.5
17050.1
23741.6
19210.6
15634.4
19623.1
21774.1
17210.1
17477
15573.1
21042.3
17519.5
14841.1
17868.5
20031.7
13291.8
17836.8
14351
40212.2
47371.7
46462.4
47142.7
42208.7
48904.9
31660.1
41561.7
53100.5
45059.3
46788.7
30976.2
42446.1
56467
24486.5
38212.6
43478.2
48815
49123.6
28205.8
52598.3
53876.8
48512.8
60316.6
-1472.85
-3419.58
-5842.37
-14699.4
-9590.94
-3666.56
-21285.4
-15105.5
43307.1
46827.9
29932.4
24077.3
32545.9
35438.6
26352.9
46200.1
49760.3
28539.9
48187.6
51335.4
40577.8
31005.2
48406.9
47741.7
44554.7
5531.35
14160.1
4586.35
28046.3
21158.4
18416.8
10526.1
49317.6
16222.5
20640.5
50504.5
49894.1
27348.7
42523.5
28395
34300
25892.3
47858.4
44959.9
39549.5
34434.5
37150
40762.7
20530.8
5100.6
16401
12946.3
12873
10806.1
4131.13
11457.9
52371.8
25172.6
32973.4
24842
30935.7
33674.8
25523
30004.8
-14140.5
-774.257
-2343.06
-19000.9
-4813.6
6968.16
674.729
2160.97
29758.5
35313.6
19638.3
15615.6
15444.6
28690.9
24603.2
25026.1
24974.7
18880.5
20955.5
36531.3
25103.8
14183.7
26895.8
23307
29116
13393.6
2325.62
14860.1
21702.1
24798.2
18013.2
5638.56
39102.8
22051.8
13759.3
24137.1
19913.2
15446.3
19185
6091.46
1037.35
988.661
1220.46
1559.89
1180.88
1099.23
871.732
976.006
966.627
1815.28
6889.7
4287.43
4810.2
4497.88
6026.39
6039.97
2237.78
3914.23
7009.19
7506.73
3000.22
3377.36
5806.64
5788.66
5748.5
5790.05
10678
11937
3777.23
4324.7
6932.22
6078.23
1528.79
1954.64
3110.34
5107.81
2780.53
2119.83
2910.84
4007.4
1465.85
6982.49
6024.69
2571.48
2855.09
5007.85
2350.2
4938.47
3261.81
2683.14
4122.31
6113.68
3611.56
2616.78
4203.9
3316.25
3365.98
6049.27
3838.36
4802.55
3612.37
5028.31
4892.63
4256.64
912.156
1276.71
1208.53
1499.41
876.258
794.121
750.441
748.214
2438
6217.94
1244.69
4955.68
3613.82
3899.68
3338.79
3879.37
856.697
650.485
898.18
2524.08
315.152
2019.2
2205.33
2857.63
7432.1
9775.76
4516.05
10600.7
4729.44
6458.86
4830.95
7226.15
2659.39
852.027
2158.87
4549.16
1999.49
1119.2
3816.99
2667.37
2129.1
3952.43
602.909
960.745
2038.67
2281.35
1216.57
1651.8
1082.22
2198.1
4679.83
1838.6
1393.06
1910.78
1380.4
421.746
1449.67
2601.8
4734.13
18.3034
-306.001
1981.16
833.565
3258.79
31862.4
28685.7
15538.1
19347.2
26782.2
17411.3
7225.36
1225.25
7365.78
12179.1
11186.5
27810.6
19397.9
15443
18253.9
16912.1
18537.5
15908.4
18854.6
5075.28
14598.5
16034
21471.3
14761.1
20000.7
17923
11471.7
17608.2
19028.6
17204.9
16409.2
16116.9
14452
12441.7
16190.5
17046.4
13420
4768.12
13714.6
15236.7
12292.5
16040
20634.9
14230
12642.3
10128.1
7213.76
17404.3
14682.9
19558.5
15791.2
18426.1
16162.7
17751.2
18615.7
18339.2
11109.3
16241
15044.7
18863.6
15869.2
17675.1
19301.5
17224.4
3797.18
11272.7
9092.02
13941.1
10861.3
11014.4
11161.8
13293.6
21809
34437.1
7389.09
26631.8
30570.8
29788.1
23386.7
20497.8
15067.3
10674.9
1950
10357.2
12941.5
15110.7
4895.94
7107.54
15030.7
17164.9
10196.6
16641.5
15864.4
19267.5
19211.6
21131.9
16757.2
12991
15421.9
17128.1
17816.9
14599.3
18033.7
18438.7
17902.8
20953.8
14539.4
16754.5
18293.5
15269.7
18499.1
16607.9
11587.9
14393.9
16906.6
15170
15279.8
17521.6
17708.7
17337.1
14702
15735.6
20631.4
24503.2
14448
16161.7
23823.6
17694.1
64709.2
74265.5
69137
42780.4
52788.4
62654.1
53954
63798.3
94792.4
108524
112859
59026.1
87359.5
101375
81914.1
97686.8
94831.9
113617
112046
75801.7
100894
108017
98626.7
109572
29885.5
35375.4
35278.8
16699.7
23619.4
29930.1
22563.3
31317.5
72414.8
75777.8
38303.2
50078.5
69237.5
60835.7
58179.8
50886.8
84383.7
61540.1
109223
89788.2
83833.3
82884.1
91617.2
96604.4
74033.4
36891.4
47794.8
55116.4
56078.5
49540.7
56464.9
48031
86647.5
69003.8
58648.8
105810
90530.2
68549.3
93406.9
67463.9
-11952
2713.02
1265.09
5755.22
4139.37
2446.33
2706.66
2441.29
1805.82
1143.63
340.018
1676.36
1478.18
1773.99
1163.34
668.773
-322.823
542.598
431.739
1318.93
1339.48
1848.18
1044.39
1369.78
7277.29
260.602
1661.47
5563.02
5201.01
1478.51
5443.7
1468.33
3737.96
2462.26
5311.83
2242.24
3221.39
2150.4
3650.95
3118.49
1845.05
2152.17
2194.02
1051.85
2694.95
2426.78
169.346
1785.55
2712.43
5525.55
1068.5
2784.09
2469.34
3875.38
3000.36
1855.03
1680.78
2357.81
1903.22
1459.93
1575.19
2696.43
1602.52
2073.76
468.497
540.19
211.886
1114.65
1036.05
551.485
1366.78
924.838
254.637
-395.71
-502.692
-216.752
626.71
663.129
273.688
-27.2408
477.516
0.165396
252.025
867.158
678.255
223.467
1337.82
719.784
-553.519
572.147
-322.323
2345.49
354.827
767.009
2259.26
2315.43
420.492
870.112
888.874
-56.2503
982.893
1576.24
618.783
649.13
279.923
1227.15
-67.3849
470.926
401.108
581.106
176.15
349.516
1157.18
1423.65
495.653
3139.77
1500.1
1608.22
1716.98
1769.17
526.31
2534.11
1219.35
621.841
856.664
796.435
909.153
310.896
61580.2
64972.9
51561.9
40404.2
55332.6
52885.8
33520.3
45815.3
84951.4
105122
90799.1
65758.3
99870.6
99397.6
89086.4
100556
52551.2
78873.3
54836.3
45976.8
65290.5
69007.4
43453
55997.8
26776
29080.3
24613.6
17167.3
22302.6
25959.2
15116.8
24511.8
78000
64780.7
43946
55467.9
69807.3
63139.2
53503.4
42880.6
78004.5
58961.4
83921.4
58059.7
80540.1
84917.3
68996.2
89127.4
37051.7
32365.2
54187.9
31257.4
38811.3
42555.9
40151.1
49672.3
52043.4
46003.6
61524.1
87947.6
69935.2
49674.7
78624.4
59098.8
37394.4
33146.4
27281.7
24493.4
31563.4
30960.3
37294
33201.8
22454.4
9934.97
5320.46
6693.58
16985
13598.1
9489.3
7748.41
19629.7
4191.15
11189.4
3181.27
6786.62
9972.12
2305.38
5271.52
15251.3
12088
7021.29
33217.5
16906.6
14475.5
21530.5
15016.9
30328.4
16706.6
21308.3
15931.9
25366.8
22521.5
20818.9
20444.2
25988.1
8330.25
7901.62
18219.3
18854.4
9777.61
19301
11679.4
20650
24436.3
8683.23
2827.43
16496.7
23552.6
13751.1
11812.7
18819.6
7038.37
8426.18
4472.39
8839.68
12421.5
5242.03
2969.8
31276.9
22573.2
34837.8
13700.3
25513.7
30164.2
18274.4
23107.8
27147.3
18221.2
38831.6
-6087.93
2931.58
22811.3
-8552.79
6086.51
49391.7
53385
69951.3
-22821.9
34617.1
47900.4
10437.4
51836.2
6222.48
4468.58
11536.9
4043.7
7437.65
5056.61
648.024
592.763
15044.3
27694.3
18986.8
8400.87
14318.6
16736.4
9568.9
12971.8
19692.1
2803.61
46048.4
29533.4
18851.2
23126.5
13416.7
18485.7
18868.1
15476.6
10394.1
13196.7
12282.1
13045.2
11400.4
11923.3
20851.2
5894.07
7957.49
36788.7
594.583
-2554.87
10807.2
5162.64
-556.833
7992.46
7772.1
11832.9
5335.28
7098.58
7223.87
7596.74
5996.1
3021.93
582.612
13591.7
7945.78
3849.78
5846.29
2213.93
9869.31
1763.54
1044.79
19030.9
10165.3
3432.12
12194.3
3738.66
18998.3
14308.5
829.189
28958.1
26320.9
14235.6
23449.3
6332.63
7688.83
9377.01
12919.6
14193.6
7705.78
10570.4
14004.7
14264.8
5364.84
14502.6
-82.3166
8731.4
7738.59
10591
8027.96
8490.1
15276.6
13646.3
23819.5
16839.6
19493.3
15761.6
19881.2
20450
12389.9
27246.2
19833
-435.56
20065.8
25451.7
15234.8
23844.6
10.4098
86.8359
-85.5233
2025.49
536.107
525.778
592.615
539.053
13007.7
23937.6
5239.17
13595.4
19408.9
18777.6
13038.4
13521.4
190.091
4300
1754.81
-1088.17
3418.58
2914.09
-644.197
239.678
4692.45
16534.6
-2119.94
16540.4
7305.68
7702.49
6118.55
5994.65
1903.72
-87.7866
4099.9
10035
3764.14
1288.06
6432.38
4503.54
2163.96
10849
4914.21
-226.255
3742.27
10104.8
-4736.91
4843.49
1458.34
3115.13
7258.56
1055.92
1306.46
3361.57
4478.59
5482.82
1330.92
813.072
7689.14
3074.62
3457.09
3929.02
2441.8
5168.21
2979.36
442.524
-1545.07
1231.09
2167.72
3152.41
2248.18
4388.04
6531.23
18576.7
10437.6
11433.6
7356.21
13911.5
7044.52
14464.1
-955.796
17.61
31.679
363.288
197.985
573.888
319.106
714.274
4294.52
9800.31
1046.48
5817.64
2920.39
4364.58
2184.53
4809.43
2605.59
1923.04
2433.42
6329.15
1641.54
2519.72
1460.59
4628.46
5127.73
8489.25
3798.15
2559.16
4968.31
5885.42
41.083
2246.39
2134.14
2422.33
5851.89
2293.13
2241.52
4148.31
2033.81
1643.09
2730.07
2557.06
8180.3
3235.99
697.534
2539.25
1643.2
5172.48
385491
239439
254223
172409
326693
297780
266800
262685
64482.3
56570
104202
102585
43788.7
58974
54217.8
64092.4
99257.7
116505
64220.2
32356.7
141784
149215
157215
104087
111217
36968.7
10779.5
36485.9
-20228.9
8532.02
-43393.4
-61512.5
182240
165066
135505
142846
149430
190511
147160
145095
117246
111685
93226.7
114003
134529
87928.6
119124
73535.7
61598.2
168067
95441.9
19105.2
193109
172550
38191.2
78425.1
1584.31
3334.95
121045
100328
191669
190573
178442
188827
62109.5
44059.4
61880.8
-17473.6
39559.1
24183
62739.2
70363.5
10462.3
147584
223790
34265.2
47977.3
69722.7
24296.6
65023.2
124109
103096
71183.7
5346.65
12727.4
-13335.7
23976.2
56945.7
-9652.36
-18.9578
-21996.8
-7771.32
-2524.55
1801.22
5274.71
-1430.26
54518.6
-3548.15
12849
8414.77
36523.9
15256.2
13032.2
11627.2
571.319
22856.2
68962.8
8763.87
-2626.63
-17521.3
41088.8
47576.4
17490
11163.3
12760.7
-158.898
-3158.37
9308.14
-2429.73
8894.62
23763.5
-7001.84
17086.9
59491.9
-47277.6
-1531.81
-19446
13847.5
-17911.4
6744.93
8797.85
693.378
34994.4
1196.21
32792.1
12374.1
296.199
1443.75
889.295
17723.3
5414.32
3631.71
8515.28
4827.77
2260.88
1464.35
2478.91
11850.8
7080.47
651.042
9093.39
5500.08
-1488.72
11198
17454
22087.2
9585.18
11010.4
23691.7
6851.22
16724.2
13172.5
35251.3
16851.9
18784.7
21368.3
13273.2
7687.19
5288.42
17981.8
2315.83
-2111.4
6131.17
8417.88
-3185.73
104.116
17081.3
19431.5
17335.7
20747.7
16955.5
7622.91
15407.3
12720
3661.82
15008.8
22466.4
1743.79
2600.17
11422.9
-3095.2
15564.9
392607
161867
52199
74341.4
246072
193199
94624.2
98457.8
72199.3
41835.7
16867.6
25399.4
-35119.5
-3452.93
-9100.42
12211.9
13716.7
4528.32
5504.21
8170.24
7947.65
5321.3
5180.07
5735.14
28561
15176
10413.5
9748.43
23224.2
24460.1
20055.4
20407.5
46356.5
27424.8
49987.6
8501.21
26603.4
37986.3
37211.5
32232.9
57366.8
10839.9
6847.21
19958.1
43329.6
16127.5
24464.5
9566.82
17955.1
7033.61
7434.97
13279
22823.9
32876.5
13803.8
15472
17151.8
9022.03
17607.3
9720.92
11653.3
9096.82
10693.9
14805.9
12264.1
2398.94
3690.37
10325.6
5582.84
2652.9
5671.61
1785.59
2329.54
3568.37
14868.6
2208.34
2447.43
9533.07
3953.7
13470
8601.7
56877.9
124307
36049.3
13049.7
27585.5
23757
59615.9
23299.1
15446
6621.36
25111.5
21683
14270.7
15029.2
16446
470.884
1431.44
10608.2
-3764.36
1366.02
6280.11
1805.07
8813.05
-1038.13
-237.249
14997.1
4359.15
-1376.34
673.412
1518.32
1673.99
2687.12
7873.9
3682.22
5642.78
2887.5
9308.18
-2765.58
-707.375
4131.38
12656.6
2151.17
17618.1
8161.36
3824.19
11186.5
6809.22
44962.1
44960.2
56183.4
41464.1
48915.9
47853.7
53108.4
54371.2
37841.3
31416.6
46555.5
26065.4
36059.3
36676.8
33166.2
32468.6
67617.4
59565.7
65407.5
55959.1
69522.8
62936.8
65206.1
63567.7
24392.9
19570.2
26741.9
13991.3
22037.6
22501.2
19504.3
21643.4
40390.9
56567.8
37408.2
33870.1
38679.3
47585.9
32933.2
38938.5
44560.9
33613.7
50783.4
57280
42367.3
41160
51412.7
46009.3
50773.3
32181.5
27550
34492.1
42635.3
38791.4
37222.4
34176.1
61799.3
42588.2
34533.4
50307
52267.4
44132.7
41364.6
39131
22666.6
18077.6
18663.7
21555.4
20219.6
20383.4
24738.6
16109.5
10473.4
-179.285
-2250.98
7193.83
8646.02
4363.59
5469.11
4295.91
7819.79
-2234.01
-4449.61
5875.42
4902.41
898.419
8792.39
1287.1
17150.4
12066.8
11365.2
12775.7
15016.9
13043.4
12178.1
11505.7
18031
13671.6
19706.1
14978.8
10607.9
15186
15484.7
14646.2
12907.3
10218.3
1512.67
12844.9
10919.8
11175
6435.63
7415.57
13977.9
17957.5
11640.8
12190
15458.2
13628.3
12061
12839
9960.98
9546.23
10939.1
2650.02
10624.7
10201
9915.34
7805.58
26179
22326.8
38414
20836.2
24567.6
29959
29108
32931.7
16885.4
4296.7
25872
13985.1
6610.62
11286.8
8607.25
10428.6
52702.3
40764.5
65019.2
42261.8
43791.4
54117.5
43268.4
49336.4
14550.8
14143.4
26267.5
16317
14660.7
17162.4
15982.8
21333.5
16716.8
33623.3
19635.3
15768.1
20000.4
26058.1
20347.9
23433
21851.4
19159.6
31126.5
37789.8
21800.8
16801.9
31477.8
23224.8
38966.7
21119.3
14617.8
34895.6
31318.4
26077.9
29559.4
21128.8
43048.9
36263.3
17711.3
27574.4
33492.2
31116.8
23239
22386.7
403117
464771
83624.3
188770
344491
360208
289206
170738
295602
194684
51001.1
80265.2
206430
163864
108041
63749.6
11862.6
6983.85
5549.22
4961.52
8659.6
5265.8
6229.54
5918.93
43931.3
20754.1
5018.66
12800.4
44056.6
20914.7
18729
7761.64
277757
85708.6
140802
100870
143595
99364.4
119143
94953.7
234326
55239.7
30627.4
44715
116297
72483.4
78715.1
65226
28092.6
56163.6
27191.6
9041.1
27743.9
42655.2
22236.8
23022.8
20458.1
5099.8
26386.4
15807.5
9254.26
11252.7
16474.7
11227.1
1465.67
10514.6
10317
16539.9
19134.5
9599.73
20851.9
17707.5
9673.56
7499.51
12128.1
12463.4
13069.5
9090.13
12159.6
13573.9
17048.9
14302.4
12178.1
18923.7
19564
13941.8
20477.2
21483.2
20522.6
15842.8
23194.4
9574.37
16635.5
7971.34
14377.7
15212.7
19381.8
15409.6
16603.9
15487.8
21372
21441.8
13197.9
14365.1
14077.2
8735.02
14598.6
18153.3
17518.7
12596.8
19054.7
15671
16404
15494.5
14414.4
14355.5
14079.5
16321.1
15256.5
16046.9
19788.1
14452.2
13521.1
12904.6
18495.2
15284
13934.9
14793.3
1.83417e+06
1.21916e+06
429588
139368
1.35222e+06
1.30892e+06
490024
554903
435265
295180
275720
179030
273518
270269
218196
251812
106591
192840
31459.4
92442.5
177816
194679
23190.6
70992.4
54942.9
145093
-80978.9
-103326
64654
105617
-102123
-101583
682031
442288
197530
97608.2
237564
338586
68567.8
270422
544153
140098
250440
385490
262593
177176
340441
227440
64106.5
143238
165071
145846
111782
111093
220314
150888
107662
67205.8
205633
116146
120673
259128
99494.2
240375
2664.85
10795.7
17519.6
16659.1
4452.76
9841.17
12226.1
9996.31
16550.3
18450.4
13879.8
34148.8
12914.6
18058.6
26911.7
21977
27543.8
33284.8
31595.4
44333.6
28032.9
11640.8
-22066.5
-2145.17
34617.3
51366.4
-108429
67675.3
58458.4
45863.6
21920.3
6515.48
11686.6
23939.1
14437.4
20425.6
15271.8
14251.3
15653.8
13683.3
14634.4
33297.1
13590.3
18858.6
19209
28763.8
22531.6
18491.3
15920.5
11600.7
34896.6
3680.98
45659.6
12937.7
4906
24506.4
11404.4
32011.8
31309.9
13921.9
35097.2
15750.1
20164.7
32227.9
372288
183318
238199
93845.1
362086
288253
206936
195052
92038.9
61383.6
69504.5
23762.1
31494.4
67771.8
33702.4
77791.6
125719
55497.3
24366.7
38361.1
-14245.1
20974.4
-6856.49
5708.34
26821.6
19768.1
23532
11459.1
21997
20077.8
19184.1
21903.6
76689.6
97948.8
36826.1
25557.7
68336.3
57553.7
39573.4
49767.1
107543
26539.5
38945.1
120239
106526
26961.5
161328
74360
53681.9
29934.8
22867.8
19589.3
48035.2
46267.4
41935.2
28790.3
121173
5755.24
27676.9
37396.7
16312.9
5401.68
25789.5
33236.6
2815.88
8464.26
6273.71
6112.36
4017.75
2551.95
4149.11
9597.65
2460.15
-2594.42
-75511
-5610.18
2924.84
22429.7
21080.8
36746.1
16601.9
40168.5
-59363.3
1684.57
22574.7
-17422.1
11674.2
47952.6
722.854
15536.2
13648.5
18890.9
-933.713
9940.34
17527.5
7386.68
7433.9
12962
8954.05
4946.62
947.891
7604.9
538.284
5989.36
5959.74
659.066
-29849.4
18226.1
-1446.41
-3200.24
32473.8
4163.91
4397.54
5646.97
23430.4
14689.3
9097.5
5605.99
-625.359
14090.3
20425.9
7065.37
24189.5
50465.3
26449.2
-3652.37
25122.3
400.679
10143.6
15476.2
10308.1
6520.33
9756.25
15770.3
7315.49
12531.6
19226.9
20138.8
4060.12
16592.8
21070.7
15934
27304.2
23368.1
11832.4
10332
10105.3
12441.5
16560.9
9544.51
17478.6
17322.3
5632.8
9245.05
6469.54
4134.26
4514.19
7289.76
2420.03
4944.94
15378.1
12073.9
7738.71
10188.2
16483.5
16160
9978.11
8378.22
16715.3
10173.6
6335.45
11136.5
17844.9
26703.2
9847.29
16512.4
12554.4
7539.91
8775
7915.38
7138.59
8031.22
8936.93
8108.09
15043.7
11309
9902.02
17886.9
18487.9
11028
19442.4
12913.8
257930
236066
409407
230321
313529
326674
239352
259221
132669
63215.5
198273
53712.6
111552
143895
124011
135829
157344
23225.9
146495
75502
153378
177284
127893
152501
56909.7
17257.5
30684.7
13822.9
13028.5
14749.2
20798.9
22987.6
316161
269942
125266
41776.9
275810
174582
91983
146292
345870
48042.6
224145
274094
325821
97881
442261
229876
191691
91261.9
44096.3
39776.7
157031
104692
63974.7
32317.2
179920
46275.4
39536.9
94814.8
129182
61895.7
62250.9
77671.2
10108.2
22395.8
-98807.3
35503.1
-66734.1
46242.4
150620
173286
13359
-5698.9
-7019.73
41985
38866.2
28708.8
50159.1
29259.9
-18407.8
-8877.95
18849.7
20910.3
-39664.1
-2619.57
48096.4
37652.4
42625.8
43238.9
33828.1
52511.2
35994.2
51652.8
43604.3
61002.7
68912.7
27801.7
26840.2
29241.3
74067.6
61534.9
53154
28575.4
-10689.3
21163.9
-21583.7
2896.53
41525
30900.8
-31239.8
8075.8
95812.7
65051.4
24266.7
18159
6332.57
32335.5
30739.1
35566.3
96529.7
44584.4
31081.3
56527.1
42869.8
31519.6
52915.6
40361.8
112743
6845.57
26605.9
36076.3
73447.6
31238.8
51975.6
16270.8
5711.09
5517.15
4842.31
2123.38
4043.14
4432.01
1393.68
3836.36
2132.05
210.997
5894.64
1829.99
1888.61
-141.473
3007.08
4024.31
15001
1037.68
-1632.1
9860.67
3637.27
429.047
-3613.05
-4880.57
4105.49
14012.5
14576.8
780.85
2836.13
12525.4
512.964
4619.95
4665.36
1406.35
1388.88
4933.28
2295.87
1234.65
2518.81
1880.73
8311.69
8771.77
829.507
4265.51
2251.6
-1972.78
2335.69
646.952
1600.57
1132.5
1932.08
2329.16
2680.24
2309.16
2960.84
2458.45
-125.269
4768.86
-18743.3
19726.6
24429.9
-38.5314
20013.8
30002.6
18023.8
17942.5
21465.7
21296.2
23310.1
16643.2
27367.3
20205.1
1602.62
22397.6
19932.5
27354.8
23680.2
17178.3
32273.3
33694.7
15937.8
16684.8
26419.7
14698.1
16213.9
20038.7
13746.8
19882.4
26697.3
22757.8
30225.7
27166.9
32646.6
37838.7
19067
20441.3
13479.8
22675.5
17616.8
6097.17
24087.5
30566.6
13937.6
17116.1
40011.2
17643
25663.2
25932.5
21921.9
19762
28138.2
28534.4
39174.5
27066.8
22272.9
20723
36623.8
27157.5
28967.3
26778.7
-829.206
2591.83
9303.44
9529.36
8892.54
4174.84
12189.8
9233.45
5611.25
3702.38
13167.1
15600
9113.84
3972.61
10628.6
12428
14361.8
13361.4
15371.8
18955.8
19782
17700.8
20413.8
20172.5
11007.1
14167.7
16178.9
16550.4
13045.8
12800.8
16134.1
13966.1
9792.15
14779.4
12958.9
17441.8
11094.1
14878.9
12882.1
9277.09
7663.88
14398.2
13947.7
12981.6
11204.5
11938.2
11655.4
14363.7
12795.7
15662.9
14582.1
21580.8
11104.9
14771.6
20077
20115.7
14525.9
21139.2
18646
17493.6
18480.5
17108.4
15684
21415
5877.68
17908.6
17905.7
17031.3
18213.6
14975
22742.9
35094.2
16969.9
14666.5
11769.4
13863.7
19118.9
18113.9
22606.8
14362.9
53990.4
106839
182075
25547.7
40691.6
107790
33136.5
55676.9
19394.3
10063.6
18952.5
8056.19
11440.1
9224.03
6949.05
4817.5
28148.1
31808
7530.16
10839.7
23161.1
28688.6
14079.7
11681.4
17445.8
13355.1
10896.8
24841.6
22537.8
26864.7
29591.1
19441.6
28915.2
6495.73
8765.48
14394.3
16770
11334
15174
9617.23
35691.9
9449.58
9137.08
18970.7
14636.7
17292.4
3132.82
16446.7
358314
163997
198599
163318
257283
206975
232726
203770
55723.4
79302.4
35041.7
62541.7
89057.5
66871
74304.5
62109.5
65120.5
23412.8
17394.2
52224.4
-203.778
3671.05
24023.8
36460.9
70530.9
49053.4
40478.2
23701.4
73660.4
53196.9
40498.3
52959.1
96879.7
131604
97359.7
75868.8
91367.6
129417
88734.1
105393
88942.6
68182.1
17957.9
72073.6
88426
78999.7
82568.9
64422.1
94694.1
108644
51020.5
88593.7
140260
116625
104180
66482.9
85524.2
59866.9
58462.1
-2645.33
71277.2
60969.5
37018.9
64712.2
19691.8
-66921.1
-28346
132230
65535.9
64563.2
-36507.2
3011.31
279211
1.74345e+06
346329
197485
236410
381333
447863
380229
-14499
84627.2
57851
172096
18205.3
43301.5
69424.5
46099.7
274415
233529
199647
16629.1
297133
251948
-355701
79617.7
-2161.18
34179.9
322958
-1013.74
-137713
-99276.4
-53678.6
143507
209805
123039
243878
2785.69
81281.2
155968
-28812.3
112192
-21110.9
197876
42377.3
94088.8
32975.1
128130
10284.7
-143808
9093.02
203266
145483