/*--------------------------------*- C++ -*----------------------------------*\
| =========                 |                                                 |
| \\      /  F ield         | OpenFOAM: The Open Source CFD Toolbox           |
|  \\    /   O peration     | Version:  2506                                  |
|   \\  /    A nd           | Website:  www.openfoam.com                      |
|    \\/     M anipulation  |                                                 |
\*---------------------------------------------------------------------------*/
FoamFile
{
    version     2.0;
    format      ascii;
    arch        "LSB;label=32;scalar=64";
    class       volScalarField;
    location    "900";
    object      p;
}
// * * * * * * * * * * * * * * * * * * * * * * * * * * * * * * * * * * * * * //

dimensions      [0 2 -2 0 0 0 0];

internalField   nonuniform List<scalar> 
49664
(
4.08518
4.24509
4.38761
3.50692
3.43141
4.46559
3.64218
4.23425
4.27796
4.31695
3.62092
2.58207
3.5923
4.35011
2.89381
3.85908
3.52713
3.12798
6.72776
3.39647
2.15969
3.49087
4.60858
4.80954
3.20619
2.52977
3.27398
2.93543
2.71235
2.97675
3.15621
3.00551
3.68768
3.53098
2.86998
2.39991
3.59282
3.82263
2.98783
3.52692
4.40507
3.01682
3.55787
4.18821
4.04172
3.50015
4.1104
2.93876
3.30186
3.13315
2.44486
3.27798
3.94108
3.4635
3.24064
3.14694
3.9938
2.83827
2.59585
2.46915
2.74241
2.90872
2.24106
2.1248
7.63269
6.40447
7.31658
5.98409
7.07327
7.13935
6.7693
7.29823
5.57128
4.2751
4.74416
3.88687
4.50567
4.83565
4.13661
4.41471
6.94485
4.29879
6.0479
4.13607
6.14268
5.54489
6.23479
6.61166
4.51969
3.68167
3.89332
3.35804
3.90496
3.61438
3.76208
3.41132
5.72896
7.09443
5.19661
4.06704
5.22232
5.68289
5.10734
5.06378
5.81961
3.64364
5.11667
6.86516
5.57433
4.74129
6.28368
5.13987
6.23391
4.8644
3.73056
4.0524
5.20684
4.79513
4.61697
4.06548
6.38554
3.43309
3.74619
4.2285
5.36437
4.12043
4.3858
4.63524
0.890388
0.812197
1.12681
1.50535
0.960238
1.05285
1.66265
1.37955
0.596462
0.228656
0.997508
1.07009
0.684581
0.712638
1.00432
0.846475
1.42897
1.37371
1.74803
1.87391
1.52588
1.5083
2.01883
1.75879
1.97915
1.71251
2.01839
2.35958
1.93352
1.88321
2.34149
2.05166
0.819214
1.24358
1.59499
1.42074
1.22435
1.44256
1.34905
1.55504
0.919512
1.2764
1.02374
1.05013
1.15223
1.12998
1.04647
1.06956
2.01242
2.38151
1.6456
2.0988
1.58337
1.8392
1.67786
1.88901
1.65285
1.87479
1.57035
1.38
1.76349
1.54635
1.49133
1.43227
1.00634
1.10731
1.29319
1.4932
1.45974
1.26659
1.6531
1.47062
1.44517
1.78375
1.96923
1.9726
1.80712
1.67478
1.97504
1.83335
0.97145
2.00504
1.35045
2.24906
1.60267
1.85711
1.63612
1.8292
1.95621
2.13137
2.33226
2.43588
2.22455
2.17672
2.39493
2.28143
1.71885
1.56678
2.04327
1.93792
1.87664
1.77861
1.57391
1.77843
1.58813
1.97263
1.69461
1.35932
1.70343
2.16866
1.25709
1.71014
1.81237
2.33226
2.10637
2.23531
1.9137
2.02636
2.07082
2.19133
1.55375
2.14689
2.02718
1.7451
2.22428
2.02142
1.87675
2.20017
1.27661
2.56448
1.74481
3.01401
2.58784
1.41433
3.12986
2.74007
3.08411
3.20324
3.03875
4.01241
3.50457
3.34028
4.11929
3.92426
2.90734
2.78416
3.39442
3.49409
3.33742
3.26345
3.76517
3.65655
3.71878
3.42222
3.74887
2.77369
3.50635
3.54032
3.56407
3.58798
3.02806
2.77571
3.66963
3.86269
3.85702
2.89371
3.28128
3.51735
2.65206
3.97005
4.12144
2.45259
3.52849
3.98647
3.46572
3.83737
2.94499
3.57134
4.07333
5.26585
4.00956
4.14042
4.2845
3.35501
2.96392
4.37706
4.27512
4.25674
3.13905
4.25416
3.87842
3.96865
0.598389
1.43863
1.69339
3.56481
1.98385
1.29923
3.53184
2.22788
1.82113
2.90894
2.83601
2.66887
3.34758
2.70664
3.98269
3.84069
2.61553
2.621
2.42159
3.25911
3.47789
2.63142
2.71224
3.55257
3.52968
3.30467
2.49584
0.899351
4.0279
2.77089
3.14745
3.05954
2.28996
2.87275
3.56004
3.34761
3.41505
3.28637
3.63062
3.68379
1.6578
2.39059
2.82551
2.04317
3.14119
3.63788
2.33354
2.64872
3.53796
3.62907
4.20896
3.12268
3.68755
4.34438
3.96708
3.9147
3.66283
3.27249
4.11233
3.63746
3.82964
3.05583
4.13157
3.29766
6.74402
2.85756
-2.19212
1.60873
-1.23447
-2.39116
-1.45731
-2.04272
3.36759
3.37889
2.65201
4.11063
3.84042
3.11425
3.55473
2.8436
-0.790827
1.58464
0.375854
0.417725
0.624212
0.693778
0.068281
0.731938
2.85055
4.16003
1.7123
3.65235
3.92164
3.33478
3.25991
3.06669
3.59802
-0.605594
2.85688
4.00852
3.29299
1.44824
3.77747
1.93322
2.58978
3.26801
1.7164
0.732462
2.54287
3.1942
1.70049
2.26713
-0.861431
2.2185
3.60805
1.50372
0.248833
1.58746
1.7467
3.09205
0.597499
1.71484
3.23219
1.79936
1.68024
1.72595
1.86651
2.53206
0.522647
1.01572
1.11053
1.24205
0.901072
1.02868
0.998151
1.15801
1.44736
1.79619
1.97326
1.97744
1.65738
1.73236
1.86574
1.91706
1.75127
2.14632
2.44493
2.48864
2.01591
2.09506
2.24856
2.3236
1.9056
2.15628
2.48488
2.45523
2.14414
2.19541
2.36108
2.41489
1.31713
1.4669
1.57116
1.88244
1.51843
1.44912
1.65046
1.65347
1.43434
1.94879
1.889
1.56952
1.59399
1.80525
1.60552
1.80488
1.64229
1.71311
2.07376
2.29034
1.84896
1.80596
2.09418
2.04909
1.74157
2.3561
2.09951
2.07388
1.96554
2.15569
2.01759
2.15569
1.97738
1.27962
1.97544
1.51676
1.29356
1.1451
1.44699
1.42749
0.912193
0.736447
1.12625
1.269
1.0605
1.32464
0.284518
0.530037
1.85216
1.57352
0.373558
1.06717
1.21084
1.36875
1.19401
0.839973
1.77559
1.49862
1.44121
1.78444
1.62147
1.60224
1.74388
1.60571
1.47595
1.67344
1.74551
1.52725
0.722653
1.3528
1.69743
1.61382
1.42927
1.42483
1.11047
1.79151
0.992994
0.3554
1.36467
1.25282
1.23659
1.09773
1.28949
1.45465
1.40669
1.43137
1.38552
1.23152
1.49082
1.2481
1.37445
0.976442
0.844251
1.2351
1.08739
1.27469
0.311103
0.74066
1.27617
1.55845
1.64981
1.00593
1.05348
1.20672
0.476018
0.159293
0.18989
0.945634
1.40811
0.675634
1.78713
1.50859
1.25793
0.656426
0.734155
1.53313
1.16067
0.84714
1.1096
0.677931
1.6164
1.45375
1.49653
1.82412
1.73426
1.44729
1.56734
1.35943
1.19134
2.01625
1.70748
1.4269
1.41349
1.65193
1.13915
1.2899
0.852581
1.0447
0.273173
1.00659
1.5647
1.91546
0.869359
1.5048
1.26169
1.41027
1.45861
1.48557
1.62361
1.60552
1.70681
1.68976
1.68273
1.80889
1.54446
1.50542
1.62465
1.2164
1.33307
1.17174
5.57001
5.44189
4.56374
4.89266
5.32128
5.2022
5.05441
4.84383
5.10056
3.54949
3.74505
3.24576
4.23249
3.72978
3.34967
3.6064
3.89859
3.34534
3.05731
3.01788
3.47877
3.29559
3.21655
3.12186
4.15323
3.36062
3.12801
3.42279
3.55943
3.42942
3.42785
3.56343
4.97415
4.23748
4.51043
3.65948
4.53118
4.5202
4.39834
4.21106
4.72669
3.25329
3.59501
4.18856
4.3116
3.70078
4.34345
3.72158
4.10545
4.21154
3.43435
3.32666
3.96366
4.02125
3.54787
3.54116
3.94438
3.19753
3.31196
3.34593
3.56495
3.25364
3.3205
3.06339
2.70373
3.52384
2.25541
3.24711
3.29954
3.2285
3.04103
2.99985
3.69354
3.08972
3.10736
3.34406
3.57055
3.48993
3.24672
3.29116
2.39824
2.19618
1.72524
1.98829
2.41957
2.51157
2.06463
2.18235
3.02167
3.1431
2.3928
2.65894
2.99183
2.91017
3.02791
2.86574
3.7136
2.75433
3.31664
3.48294
3.54826
3.50666
3.66222
3.13925
3.45595
3.45116
3.14996
2.66129
3.40502
3.41591
3.05162
3.23275
2.75765
3.33107
3.28611
2.56742
2.99781
3.10741
2.85251
3.1694
2.6819
2.54485
3.20281
3.07649
2.88506
2.8779
3.05555
2.86766
21.4134
25.5358
20.5881
17.6031
24.3379
22.2527
21.6621
22.7415
20.162
18.3565
23.1722
17.577
19.4088
19.3965
17.0329
19.4298
24.2161
22.3335
21.0044
13.777
24.2446
22.6111
19.3329
20.4832
26.911
4.1337
36.0861
30.4013
55.8586
26.5156
59.454
78.8025
21.3301
23.9629
24.0063
18.6108
18.5143
21.8599
19.5702
17.8606
22.6854
17.9611
22.6137
22.5685
22.8019
21.1493
21.5141
22.5293
23.2815
15.1827
4.01106
40.7166
22.3643
28.2912
35.0038
6.50295
24.4123
20.1022
8.23177
22.108
21.5687
8.51871
16.9556
8.84215
15.6016
15.6349
18.4628
11.6862
17.3516
14.9134
10.5562
13.7378
15.6497
15.2878
19.2805
16.0843
15.4334
15.8289
14.5028
15.087
22.2279
20.1351
23.4833
23.9323
22.112
21.1222
12.3129
19.3474
21.9888
13.4461
40.9024
24.8672
16.6322
8.57013
14.576
29.9529
15.4267
18.9871
16.2648
15.027
13.2966
15.9238
12.8765
12.5705
15.7258
14.9174
19.0426
17.6385
15.1615
16.3826
18.5906
18.3352
14.6829
11.1263
16.6145
15.2077
21.9986
16.8525
20.7198
19.695
16.4454
20.9827
18.933
16.3228
18.2025
13.0633
16.665
17.2625
0.941358
1.38232
2.06381
1.66371
1.31968
1.52061
1.7812
1.95844
1.58496
1.58146
2.109
1.88297
1.79625
1.94837
2.18731
2.40406
2.84257
3.01161
3.10916
3.01939
2.80896
3.06831
2.98828
2.85854
2.30484
2.27429
3.06328
2.59916
2.44014
2.62553
2.72215
3.1431
1.57045
2.20187
1.79405
1.94971
2.05564
2.19994
1.7947
2.01185
1.82722
2.15078
2.61233
2.43531
2.18912
2.44351
2.20398
2.35666
2.71952
2.34491
2.61306
2.94194
2.62029
2.49846
2.75184
2.88089
2.86062
3.27874
2.85697
3.27192
3.28132
2.92113
3.01528
2.6644
-1.27102
0.798367
0.569702
1.15146
0.0270511
0.72684
0.807905
0.15346
0.711447
1.28765
1.66659
0.392297
0.693295
1.14383
1.14019
0.132294
0.960001
1.04992
0.317151
1.28477
0.798802
1.38137
1.25836
0.990293
1.29816
1.29309
1.39873
1.83036
0.683346
1.96796
1.69549
1.56186
-0.130467
1.31681
0.921138
-0.990332
0.326939
0.189026
0.798899
1.14611
0.408083
1.26516
1.99571
1.08194
1.18252
1.0656
1.22514
0.784078
0.79911
1.39801
1.70696
1.57548
1.11681
0.964123
0.887026
2.13251
0.750415
1.26984
-0.119653
0.477928
1.21107
0.858471
1.55682
0.697473
-0.47219
-0.330619
-1.9118
0.739745
0.840711
-1.3327
1.16445
0.888874
0.2726
0.720954
0.776341
1.88757
0.847943
0.0757749
1.87948
1.57975
0.34207
1.0594
1.38269
1.8013
1.0196
0.548821
1.08993
0.808279
1.70375
2.12604
1.92688
2.28709
1.9798
1.94608
1.95705
1.76077
0.891785
0.732546
1.39206
1.60361
1.29863
0.746098
1.10708
0.985396
-0.398434
1.66434
1.03771
-0.880602
0.89605
1.91181
0.931075
1.23567
1.10554
1.55998
1.92458
2.71227
1.2323
1.61038
1.70553
1.31328
0.599071
1.70173
1.7201
1.45413
0.478311
1.34381
1.32671
1.40071
2.61176
2.52898
2.06074
2.80592
2.72487
1.86556
3.16563
2.75638
2.29033
2.04096
1.50859
2.27506
2.25926
2.07632
2.39354
2.18182
2.06469
1.65325
2.02045
2.2066
2.55891
2.11046
3.12428
2.49431
3.09665
2.45772
2.77503
2.90521
2.9561
2.93345
3.44298
2.82842
2.45174
2.5887
2.93209
2.63145
2.52829
3.15241
2.86954
2.70083
2.21166
2.52694
1.99381
2.42904
2.27703
2.85811
2.00237
2.19261
2.81422
2.75984
2.47874
3.92019
2.04493
2.63139
2.79455
3.13125
2.74136
2.76914
2.34596
2.19165
2.71643
2.3935
2.57926
1.75652
1.92046
1.70202
1.44978
2.34393
2.23046
1.68824
2.504
1.86144
1.31842
1.91158
1.60432
2.0564
2.08264
1.96743
2.08054
1.90059
1.02447
1.05834
0.32671
1.3386
1.1103
0.853904
1.07462
0.862402
2.55779
2.12497
2.21846
2.65978
2.62941
2.5608
2.47863
2.44906
2.0702
1.52033
2.63088
2.18532
2.15872
1.79
1.62339
2.51835
1.76912
2.15401
1.6558
1.34344
1.76595
1.9003
1.54713
1.53726
1.47928
2.07793
2.00936
2.04017
1.93233
2.36271
1.99654
2.13895
1.32665
1.7147
2.12053
1.39439
1.43869
1.69197
1.48408
1.75332
5.50373
5.42334
5.08096
4.56321
5.31047
5.41204
4.97045
5.07913
5.04041
3.70851
4.83217
3.99564
4.75846
4.51676
4.39043
4.62001
4.68191
4.7886
4.38143
4.04477
4.46006
4.54033
4.26909
4.33587
3.9259
3.45841
3.68057
3.11508
3.57729
3.68638
3.39242
3.52542
5.1025
4.81632
4.34501
4.07504
4.84315
4.79763
4.37179
4.42016
5.12453
4.1133
4.72794
4.91661
4.90813
4.45608
5.15241
4.74032
4.57231
4.18641
3.8878
3.84589
4.32704
4.24995
4.04963
3.97083
4.66753
3.96419
4.04513
4.64876
4.43306
4.12212
4.57739
4.306
7.85426
7.01956
8.06826
7.46327
7.78277
7.55937
8.03907
7.67055
5.37542
3.58543
3.78131
4.55154
4.53677
4.09474
4.67805
4.38499
6.3449
4.13977
2.78284
4.07268
5.66144
5.22894
6.07493
5.26307
6.16888
4.99497
4.24383
4.85086
5.38434
4.98248
4.63992
4.40327
6.15015
7.32956
6.99254
5.58234
6.22684
7.14947
6.09359
6.41303
5.78162
4.88022
4.93374
6.94209
5.94568
5.2459
6.15492
5.38692
6.8255
6.44569
5.09837
4.70655
6.02294
6.16756
5.06541
5.68436
6.56897
4.38589
4.84739
4.79234
5.65297
4.69369
5.19388
4.58192
0.349526
0.330483
0.956959
1.1086
0.557868
0.530551
0.894988
0.833937
0.291365
0.309848
0.982654
1.06523
0.636627
0.602452
0.856741
0.877716
1.37309
1.37428
1.7185
1.90069
1.4938
1.46728
1.69254
1.64976
1.79285
1.77391
2.10987
2.36089
1.9555
1.82105
2.10686
2.07559
0.592073
1.09269
1.27464
1.29182
0.894012
1.04994
1.10573
1.20132
0.59265
1.21415
1.08463
1.06334
0.872813
0.987834
0.909231
1.14723
1.3366
1.53369
1.5014
1.90134
1.53929
1.47001
1.69647
1.59231
1.3037
1.86895
1.49821
1.3006
1.4502
1.63342
1.33476
1.55219
3.22798
2.85258
2.91878
3.05186
3.0557
2.97169
3.02923
2.92075
2.47866
2.07273
2.10161
2.13162
2.27248
2.19459
2.20625
2.11766
2.59838
2.19109
2.28275
2.2931
2.4334
2.33371
2.3808
2.28944
2.73616
2.23598
2.31841
2.28931
2.48777
2.38766
2.43532
2.30136
2.67249
2.7344
2.83834
2.413
2.64225
2.76262
2.62174
2.74421
2.58627
2.29341
2.24014
2.64742
2.53959
2.34255
2.51997
2.36792
2.70834
2.77428
2.3355
2.3931
2.66992
2.67344
2.45811
2.45326
2.60397
2.28307
2.22149
2.21064
2.41102
2.36315
2.29784
2.20753
2.13911
2.52466
2.21185
2.19596
2.19983
2.33354
2.13781
2.30876
2.90551
3.29254
3.1744
3.08234
3.02413
3.16369
3.02985
3.16771
2.43665
2.95537
2.65796
2.619
2.59933
2.76843
2.57052
2.74096
2.30135
2.79071
2.48249
2.37584
2.39595
2.57384
2.34137
2.514
2.62252
2.37882
2.32648
2.77177
2.58643
2.45262
2.65249
2.47283
2.76159
2.93992
3.00858
2.55136
2.73696
2.8771
2.70329
2.83595
2.32976
2.24933
2.73483
2.47413
2.38449
2.43184
2.53068
2.54575
2.51945
2.6735
2.91011
2.98239
2.65014
2.70629
2.8139
2.89569
3.04329
3.01964
2.69879
2.92884
3.00116
2.95446
2.9118
2.83147
2.90587
2.63341
2.26371
2.6398
2.76199
2.67458
2.65319
2.50021
2.39279
2.1016
1.92554
2.13513
2.22924
2.14281
2.15282
2.02206
2.82736
2.64671
2.35138
2.63596
2.75124
2.6585
2.63045
2.48357
2.94909
2.63136
2.88965
2.76366
2.81635
2.74951
2.85286
2.82162
2.85543
2.69973
2.32745
2.54407
2.70618
2.65987
2.59029
2.41717
2.55453
2.79322
2.66385
2.35893
2.58658
2.67268
2.42837
2.63206
2.43983
2.22759
2.53661
2.21984
2.36573
2.34487
2.33912
2.31749
0.393628
-0.913188
-0.0371597
0.976247
0.397488
0.0523424
0.495487
0.0660425
-2.92691
9.14091
2.1704
1.72106
-3.92226
-0.189686
-0.61665
0.510238
1.26152
1.92738
3.65812
1.87549
1.75483
2.66452
2.22308
2.63821
1.74299
2.61245
1.60966
2.52908
2.74017
2.47447
2.39662
2.54441
-0.690717
0.351004
1.52417
2.14642
0.696679
0.697484
1.58821
1.72914
-2.17604
1.06729
0.197143
2.11845
-1.91854
-1.42834
0.600166
-0.45453
0.886371
1.41648
2.40261
1.8453
1.44552
1.72088
1.71544
1.78981
1.96674
2.05191
1.70515
0.292596
1.56137
1.86838
1.19395
1.05586
8.77023
7.84119
8.22787
6.20987
7.45086
8.4679
7.57759
7.785
6.84133
3.15148
6.91884
4.87091
6.3338
6.95373
6.00147
6.2372
8.0491
7.94034
7.915
6.73306
7.60198
7.97453
7.47566
7.72117
4.98985
4.04794
5.22504
3.82872
4.30466
4.88746
4.37182
4.63335
7.4807
7.71525
5.61875
4.83935
7.23172
7.41632
6.30545
6.22436
7.45653
5.75515
7.3455
8.00894
7.19708
6.41888
7.61335
6.93869
7.60593
5.72323
5.11364
6.14011
6.59459
6.01998
6.16692
5.6798
7.79793
6.42703
5.57232
7.53877
7.25648
6.68819
7.28996
6.52819
3.01742
2.99995
3.19829
2.7519
2.94155
3.12611
2.95473
3.16448
2.88869
2.78246
3.0336
2.70453
2.83359
2.92691
2.85738
2.91644
3.32851
3.22889
3.30497
3.1366
3.33132
3.40116
3.31763
3.40533
2.48858
2.54435
2.82711
2.43018
2.45765
2.61921
2.48376
2.62687
2.90076
3.2079
2.66832
2.67314
2.91228
3.09046
2.7274
2.8109
3.05509
2.77303
3.18754
3.33296
3.03665
2.93074
3.21776
3.13725
3.16078
2.67594
2.70636
2.99461
3.0161
2.83909
2.96018
2.76541
3.36935
3.05553
2.80194
3.17652
3.24771
3.02469
3.1147
2.93673
0.619177
-2.3597
0.875499
1.20665
2.16115
1.51308
2.1134
2.01327
-1.87741
3.94802
-4.02514
0.478788
-4.12577
-3.99882
-1.59363
-3.61399
0.401159
-1.57636
0.0258286
-0.0313506
-0.148243
-0.545014
0.0593776
-0.159774
2.01476
2.19897
1.19187
2.49144
2.55405
2.21475
3.00518
2.42867
-0.484822
0.590524
1.4245
1.17221
0.505841
0.936805
0.76647
1.38733
-0.763111
0.770166
-2.6745
-0.0213553
0.629699
-0.395429
-0.843567
-1.00672
0.692116
1.77563
1.72416
1.27044
1.17557
1.56323
1.16845
1.66993
0.262032
1.02223
1.24606
-1.51789
-0.280962
0.805303
-0.335321
-0.169743
0.48227
1.09671
0.425885
1.28433
0.2081
0.261945
0.739639
0.252266
0.499643
0.323919
1.12931
0.313556
0.439325
0.294527
0.298355
0.776322
1.21364
2.28357
2.86349
3.23345
1.82472
1.88399
2.96106
2.54082
1.9142
1.32245
3.30688
3.37097
2.20947
1.83919
3.36314
2.93332
0.589375
0.770843
1.70176
1.13224
0.250181
0.685935
1.40475
1.13514
-0.459587
0.511481
1.10306
0.296079
0.0389345
0.470645
0.645644
1.33618
1.279
1.54093
1.10928
3.18431
0.987574
0.79127
1.85908
1.16164
1.21217
2.65863
1.57584
1.64031
1.6898
1.83385
1.61769
2.07556
3.03163
2.85995
2.69164
3.01374
2.97762
2.84807
2.94308
2.78305
2.66106
1.80345
1.94993
2.3089
2.52988
2.47606
2.32297
2.09005
2.35712
1.96008
1.90132
2.10382
2.22383
2.1411
2.10048
2.00633
2.87685
2.45921
2.26311
2.61108
2.73514
2.52448
2.55157
2.34533
2.78995
2.63319
2.88536
2.57732
2.68355
2.71014
2.68323
2.73133
2.66305
2.4504
2.34886
2.53959
2.52172
2.39988
2.49375
2.37763
2.53158
2.8223
2.41698
2.29545
2.54713
2.61314
2.4387
2.48927
2.41149
2.14238
2.23986
2.12046
2.28934
2.30093
2.25739
2.2906
3.17115
2.83002
2.96525
2.90586
3.01562
2.95709
2.97876
2.92351
2.51318
2.1448
2.37747
2.20115
2.32445
2.28938
2.3001
2.27886
2.77654
2.54547
2.6524
2.59667
2.68822
2.64429
2.66188
2.63075
2.63365
2.27475
2.48572
2.32636
2.45343
2.41368
2.44212
2.41253
2.67917
2.81334
2.71443
2.38107
2.65966
2.77845
2.56808
2.67875
2.63237
2.336
2.50375
2.76334
2.62525
2.45856
2.67283
2.55967
2.78591
2.70267
2.37466
2.57099
2.72486
2.66611
2.59067
2.51046
2.7467
2.53982
2.34335
2.49663
2.63756
2.54801
2.52435
2.43319
-0.178783
0.220109
0.560282
1.0145
0.326401
0.75477
0.321757
0.744383
0.711711
2.47765
2.06265
2.38336
2.05527
2.48631
2.05075
2.4085
0.388405
1.28169
0.496681
1.21937
0.654933
0.907838
0.659433
0.857404
1.77173
2.62438
2.30688
3.55617
2.96007
2.96482
2.94052
3.16594
0.734057
0.706983
1.35492
2.25388
0.736792
0.941544
0.407386
1.36956
1.10644
2.63828
1.55759
0.749318
1.0446
1.44131
0.992809
1.05677
0.684884
1.35273
2.25144
1.53593
1.00402
1.47491
1.50235
1.67983
0.705302
1.78355
2.78784
1.44781
1.01366
1.80868
1.15681
2.03838
0.394632
0.915951
0.700653
0.911502
0.658083
0.84454
0.764572
0.88228
1.3484
1.67319
1.50862
1.79576
1.60314
1.58462
1.63608
1.63131
0.687727
1.03318
0.421886
1.03767
0.960495
0.835736
0.830789
0.727444
1.57713
1.97675
1.74123
2.30656
1.81558
1.78924
1.94104
1.91739
1.15885
0.917331
1.26283
1.65804
1.24863
1.065
1.43715
1.2867
1.14113
1.66691
1.23555
0.96582
1.25452
1.44375
1.09571
1.25534
0.921932
1.33229
1.74725
1.38593
1.14478
1.40242
1.37171
1.54879
0.968055
1.48042
1.71702
1.3213
1.12962
1.39825
1.29782
1.55427
0.449713
1.17663
1.5529
0.761871
0.677016
0.976678
0.793646
0.826281
1.94084
2.62491
2.97456
2.67197
2.37706
2.59428
2.6011
2.70664
2.19956
2.64642
2.53388
2.03698
2.36714
2.54402
2.2952
2.67031
2.11682
2.72365
2.66474
2.90391
2.48014
2.83874
3.16505
3.78118
1.66374
1.59341
1.38859
2.25414
1.94754
1.5587
1.7887
1.88802
1.92746
2.64206
2.73366
1.80439
1.96069
2.37287
1.79761
2.30298
1.84141
1.99634
2.71993
2.14778
2.10021
2.20299
2.25502
2.44376
1.88938
2.62535
2.8712
2.72985
2.2776
2.48535
2.4171
2.47441
8.71789
6.73906
5.58397
6.27946
8.96765
6.17786
6.95492
7.33415
4.44907
3.97121
4.84146
3.21547
4.75001
4.38718
5.09267
4.81573
2.81897
5.40938
2.78062
8.40572
5.89275
5.07796
7.65642
6.47406
0.660907
1.84505
5.58573
1.29302
0.927307
2.82993
2.27088
2.73878
6.55726
6.96919
3.44403
3.50938
5.40949
6.42897
4.51872
4.5104
4.82192
3.50721
5.12876
5.18876
5.98494
5.53798
5.47314
5.71467
6.88319
3.89652
3.71786
5.92977
7.21341
5.68916
5.28805
5.26718
6.24487
5.22809
4.4791
5.45316
6.45912
5.35827
5.72822
5.31221
2.69491
2.80541
2.1918
2.92147
2.8193
2.82973
2.68187
2.76376
2.8695
2.84604
2.2858
3.15423
2.9832
2.80255
2.86387
2.65034
1.37352
1.45157
0.643259
1.46164
1.44806
1.21664
1.15834
1.04446
3.15476
3.4414
2.61093
3.87692
3.35545
3.13367
3.11108
3.10972
2.90041
2.18716
3.05664
3.1895
2.78582
2.7138
3.00085
2.91906
2.80425
2.98391
2.07408
2.04942
2.57661
2.68191
2.2297
2.29965
1.78043
2.86899
3.12693
2.05366
2.17139
2.8886
2.32695
2.91846
1.86668
1.93768
2.8773
1.93707
1.8292
2.10627
2.12814
2.35234
0.261049
0.0114262
1.28944
1.09966
0.0975943
-0.0926272
0.484916
0.560492
0.226821
0.26661
1.25799
0.493585
0.350575
0.369955
0.422145
0.34225
2.24582
2.14485
2.73522
2.25276
2.1538
2.44929
2.20213
2.23887
2.34603
1.99464
2.92784
3.22227
2.76522
2.77881
3.52697
3.55714
0.110405
1.59599
1.17395
0.239507
0.378165
0.790749
0.437641
0.950913
-0.0164556
0.469611
1.86009
1.61407
0.345229
0.503745
1.15795
1.60818
2.07422
2.3913
1.76754
2.51227
2.17011
2.43056
2.188
2.78181
1.89662
1.93115
1.39192
1.76371
1.75038
1.76118
1.83007
1.98459
1.50188
1.63344
2.13638
3.10368
2.56247
2.02483
2.85063
2.48254
1.87087
1.30218
1.56112
2.06432
1.70704
1.70781
1.73229
1.49335
2.3098
1.61222
1.8036
2.30592
2.23336
1.81211
2.35909
1.99651
3.4962
2.94317
2.94522
2.95133
3.40874
2.99784
3.49383
3.18375
2.45211
2.4037
3.11735
2.59028
2.59983
2.57879
2.69813
2.82897
2.10718
2.23901
1.74631
2.36169
2.0403
1.98981
2.28019
1.94663
2.4854
3.39602
2.62697
2.98224
2.88742
3.13924
2.82559
3.00322
2.3268
2.52636
2.43707
1.78356
2.26823
2.27162
2.01737
2.21126
0.394851
0.608941
0.343471
0.380842
0.824618
0.398329
0.712023
0.380022
0.594191
0.336882
0.220626
1.10098
0.170232
0.0640668
0.415943
0.227855
0.0566416
0.0962246
0.110695
0.770898
0.29269
0.0930492
0.600178
0.554281
0.861857
1.82239
1.52229
2.33773
1.8838
1.4133
1.98374
1.93038
0.100795
0.352046
0.809772
1.01223
0.445474
0.507021
1.09783
0.648916
0.281916
0.672887
0.0650223
0.129244
0.195009
0.705832
0.200966
0.298271
0.438005
0.87141
1.0209
1.17723
0.622875
0.875314
0.870312
1.39409
0.242581
1.0618
0.924076
0.217185
0.57841
0.731705
0.496809
0.96391
9.28383
7.32327
9.01173
6.4088
8.41517
8.4579
7.92295
8.08588
6.05744
5.05958
5.78596
4.94657
5.46284
5.51608
5.45095
5.45425
8.49426
6.67454
8.06514
6.45173
7.4498
7.52901
7.15771
7.19222
4.88165
4.64879
5.06869
3.94184
4.65258
4.83076
4.45617
4.56543
6.61647
7.88198
6.28152
5.47333
6.48742
6.871
5.73548
6.21106
6.71206
5.45317
6.3798
7.96598
6.47796
5.8553
6.94228
6.32306
7.4659
5.95554
5.24078
5.96232
6.40553
6.05534
6.11369
5.64289
7.64475
5.92155
5.31244
6.19736
6.537
6.10914
6.1756
5.60225
1.08517
0.986751
1.3256
1.09523
1.0878
0.986569
0.87862
0.991934
0.759431
0.298246
0.653309
0.825398
0.62728
0.582181
0.735128
0.652332
0.803552
0.650517
0.426937
1.72741
1.17529
0.66019
1.44539
1.05434
1.50647
1.47517
1.85052
1.84732
1.51707
1.48617
1.55974
1.67926
0.905697
1.28736
1.1549
1.07777
0.843831
1.03686
0.866961
1.0261
0.864108
0.895683
0.843002
1.17582
0.886541
0.817043
0.952171
1.00139
0.94074
1.28237
1.31992
1.5212
0.988762
1.24145
1.2384
1.31537
0.935072
1.48657
1.18594
1.03507
1.21885
1.05368
1.23346
0.981684
3.22889
3.28491
2.95462
3.21272
3.24794
3.1818
3.09933
3.04396
3.3143
3.38432
2.99822
3.15581
3.31234
3.25201
3.11945
3.0667
2.68454
2.696
2.41485
2.45587
2.61945
2.60784
2.47577
2.45487
2.94954
2.8908
2.49114
2.51571
2.8209
2.7903
2.56269
2.53918
3.27565
2.91212
3.0848
3.077
3.08422
3.02966
3.0935
3.02511
3.23284
3.04501
2.90311
2.89306
3.0487
3.03784
2.96773
2.91938
2.79026
2.92759
2.9086
2.52728
2.79048
2.8814
2.71521
2.8327
2.76368
2.51423
2.85663
2.76121
2.72058
2.71088
2.81324
2.80818
4.57775
4.62531
4.84431
4.46395
4.53449
4.69803
4.60238
4.82148
3.98777
3.26692
3.60477
3.31054
3.44642
4.28718
3.2807
3.96951
5.00841
4.22701
4.59556
4.07103
4.45575
5.65387
4.40356
5.8474
4.21443
3.55095
3.5166
3.61647
3.75093
4.08488
3.68461
3.75148
4.19267
4.69313
4.22785
3.84797
4.27036
4.30855
4.05387
4.28745
4.48506
3.92679
5.28061
4.94047
4.41551
3.3895
4.51496
3.9149
4.74808
4.19024
3.86252
4.3703
4.3051
4.39624
4.31056
4.04781
4.84058
4.3238
3.67883
5.0811
3.99796
4.42811
3.84133
3.72471
0.760164
1.13844
0.983097
1.44207
1.28975
0.801177
1.11336
0.971693
1.61772
1.74123
1.48451
2.04885
1.73159
1.43055
1.60806
1.50574
0.932633
1.27074
0.437803
1.15495
1.0131
0.810069
0.66021
0.705534
1.66112
2.35657
1.64447
2.49778
2.01985
1.72379
1.90606
2.11592
1.44762
0.995716
1.63872
2.05462
1.48908
1.21666
1.66482
1.6438
1.0992
1.9125
1.20329
0.943333
1.34446
1.54767
1.0314
1.35057
1.02189
1.50337
1.9562
1.36135
1.39786
1.62349
1.48943
1.64244
0.981631
1.51203
1.93937
1.25357
1.08652
1.32551
1.25912
1.6995
10.1846
6.68898
9.71633
9.10885
9.0797
8.03331
9.75119
8.46984
5.09742
3.83293
5.15969
4.53817
4.64337
4.4641
4.86597
4.63716
9.00671
6.31154
8.3174
8.60961
8.01871
7.15486
8.44716
7.43221
7.11368
4.93403
7.07556
5.29338
6.00377
5.1723
6.55738
5.42667
6.25072
8.49518
7.57955
4.99863
6.45086
7.48216
5.89764
6.81895
5.96372
4.9793
5.95445
7.57104
6.17035
5.95297
6.67633
6.29922
8.95299
8.45262
5.1639
7.57355
8.81794
7.07176
7.17354
6.09667
7.88799
6.80734
5.16841
6.03675
7.29751
6.53071
6.55162
6.45276
5.24296
4.9889
6.11668
5.56878
5.32441
5.29729
5.77793
5.77396
4.58299
3.67283
4.83284
4.08341
4.27384
4.39865
4.07272
4.2987
7.39967
6.42793
9.32189
8.47445
7.95562
7.86467
8.22362
8.57792
5.54958
4.52467
7.03282
5.39073
5.52867
5.52399
5.42559
5.88633
4.89283
6.50286
5.55094
4.67936
5.00893
5.65649
5.03416
5.5481
4.98053
4.76607
5.89473
6.47055
5.17989
5.31926
5.90336
5.76773
6.9419
5.76138
4.35545
6.991
6.53975
5.93607
6.67621
5.83645
6.97078
7.24684
4.71401
5.90074
6.7657
6.59035
5.87352
5.62755
4.73392
4.54066
5.42441
5.05718
5.21289
4.73249
5.29446
5.55959
4.65443
4.80914
4.99528
4.70111
4.86439
4.98417
5.0653
5.30194
6.0327
5.90376
6.53762
8.36901
7.35469
6.02356
8.07259
7.68781
5.06787
4.88603
8.43123
4.04789
5.74903
5.15429
6.94444
7.26955
5.03794
6.06394
5.26833
5.0334
5.21424
5.59014
5.02113
4.98604
4.80625
4.74622
5.37021
5.49817
5.4248
5.22829
5.16285
5.77313
6.30203
5.95385
4.99829
7.47032
6.70304
6.19611
7.3067
6.24159
6.5196
7.72492
5.99489
6.21607
6.51583
6.83586
6.09848
6.85784
0.439861
1.14153
1.0775
1.09661
0.840449
1.03857
0.923461
1.13488
1.82171
2.73478
2.42639
2.48753
2.07511
2.42331
2.31346
2.50031
1.636
2.24505
2.11116
2.20458
1.90996
2.05875
2.04196
2.12595
1.71274
2.35728
2.22459
2.29448
2.02846
2.20429
2.13979
2.31603
1.52486
1.38311
1.48227
2.08525
1.57357
1.38845
1.73328
1.61193
1.65541
2.27304
2.23768
1.50311
1.71288
2.00359
1.61072
2.10526
1.53503
1.55572
2.22545
2.12239
1.73752
1.73475
1.96921
1.97751
1.6539
2.26202
2.41546
2.30661
1.92713
2.14448
2.16447
2.33299
0.579553
1.18209
1.13645
1.11069
0.729819
1.10581
1.04765
1.22916
1.47977
1.71393
1.72076
1.61417
1.59393
1.67798
1.85993
1.72586
1.19665
1.74833
1.74951
2.45667
1.83366
1.47385
2.87448
1.86963
1.63468
1.74414
2.29307
2.13734
1.76345
1.79381
2.00984
2.00966
1.24652
1.54934
1.29126
1.47945
1.57854
1.58102
1.35378
1.32584
1.44723
1.60369
1.65477
1.18573
1.53126
1.80842
1.23565
1.72939
2.10369
1.79789
1.65712
2.1733
1.25106
1.52589
1.62288
1.7371
1.71301
1.98928
1.69153
1.83155
2.32868
1.67301
2.27267
1.76664
9.82946
9.8719
11.2599
10.199
10.0703
10.8514
10.1062
10.4405
9.01793
8.18171
9.20226
8.90927
8.43872
8.98545
8.86642
8.84226
7.47281
7.672
1.02315
3.99977
6.17446
6.64207
4.3935
5.65814
8.36322
7.5574
4.99022
5.35983
7.52059
7.11933
6.19519
5.39441
9.29342
10.3059
9.49075
8.74226
9.7408
10.3702
9.78446
9.49503
10.3313
9.51195
9.57398
10.615
9.67663
9.53979
10.6063
9.31878
9.74601
8.88884
7.49102
5.17807
8.51103
8.52938
6.93207
7.67341
9.63917
5.02013
7.40118
8.28375
7.89424
6.84327
7.88088
7.4539
2.97933
2.71121
2.89051
2.92827
2.8872
2.83335
2.93393
2.86645
2.4
2.02659
2.35388
2.2015
2.27551
2.23993
2.3103
2.25983
2.81692
2.59654
2.78561
2.81343
2.75012
2.70773
2.78894
2.73031
2.83533
2.41905
2.78926
2.71142
2.69218
2.63241
2.74428
2.67374
2.57301
2.81301
2.80157
2.44715
2.61929
2.78132
2.59975
2.74964
2.53863
2.40118
2.50502
2.76859
2.56639
2.45904
2.63592
2.53451
2.84534
2.85556
2.4852
2.80038
2.85789
2.79238
2.7499
2.67703
2.79185
2.73371
2.42688
2.52003
2.71887
2.70323
2.57361
2.54074
2.31244
2.48677
2.89941
2.37393
2.32411
2.53157
2.4763
2.64741
2.72803
2.92603
3.53438
2.79883
2.80484
3.11196
3.04713
3.19631
3.46061
4.04157
4.16819
3.57365
3.5925
3.92832
3.72533
4.00778
2.3847
2.60803
3.00758
2.41126
2.40108
2.72623
2.58351
2.83947
2.55293
2.96636
2.37505
2.63612
2.72351
2.7654
2.57578
2.61644
2.82965
2.91665
3.62265
3.21557
2.95585
3.07191
3.21919
3.28967
3.0888
2.51582
2.81917
3.19618
2.96564
2.73914
3.04026
2.84922
3.29167
3.40977
3.04344
3.72511
3.43998
3.34181
3.46997
3.2847
5.86939
6.38077
5.63064
5.14623
5.76668
6.05643
5.49661
5.69632
6.25534
4.39002
3.2382
2.44063
5.71025
4.62802
4.1088
2.75305
5.35482
3.28349
2.85073
2.54015
4.75669
4.3434
3.71776
3.05687
4.08578
3.63786
2.89453
3.47921
3.76541
3.72327
3.69928
3.27507
6.34329
5.46446
4.96353
4.44954
5.60457
5.5513
4.68239
4.94269
6.07612
3.32898
4.62379
5.71948
5.27826
4.24647
5.69373
5.02814
4.96548
4.57463
3.75313
3.28213
4.47847
4.30211
4.0238
3.88768
5.14925
2.29832
2.46544
2.81423
4.47492
3.28212
3.57431
2.53166
0.700527
2.16312
1.36881
1.68592
1.52004
1.70728
1.49139
1.52981
2.67269
3.00411
2.24308
2.89447
2.8414
2.73624
2.58565
2.55051
1.19185
1.39446
0.53116
1.2745
1.25365
1.22042
1.0971
0.927324
2.21669
2.70709
2.01192
2.51793
2.56838
2.54053
2.44875
2.41751
2.58072
1.52548
2.09081
2.83014
2.34576
1.85084
2.4687
2.25549
2.65148
2.75596
2.09877
1.61969
2.39485
2.30602
1.92415
2.1423
1.39162
1.93268
2.46228
1.81328
1.79101
2.02214
1.94056
2.16278
1.32636
1.74663
2.47867
1.68391
1.47581
1.86674
1.73589
1.7848
4.31432
3.47704
4.00277
4.08949
4.05082
3.90584
4.16854
3.87454
2.93165
2.35091
2.49352
2.43805
2.66427
2.51872
2.6158
2.4566
3.43049
2.73182
3.21714
2.79757
3.09053
2.88455
3.11352
2.61887
3.52605
2.83434
3.20924
2.84848
3.1853
3.21896
3.17394
3.10014
3.30826
3.69415
3.69144
2.95446
3.37366
3.60329
3.24324
3.6302
3.19008
2.8433
2.65002
3.5599
3.13736
2.90226
3.15979
2.89558
3.69701
3.7133
2.93598
3.14251
3.47614
3.54547
3.23222
3.28948
3.5199
2.97391
2.77646
2.57311
3.20034
3.0896
2.86688
2.91425
4.39738
4.15816
4.29518
4.23546
4.33565
4.39466
4.36487
4.36525
3.65384
3.04531
2.93609
3.04333
3.37479
4.38565
3.04745
4.01628
3.59313
3.0098
3.16918
3.59595
3.44388
3.79176
3.16011
3.40485
3.86558
3.25683
3.6813
3.45204
3.47869
3.07039
3.33703
3.27797
3.99478
4.14158
3.90323
3.39342
3.94603
3.98143
3.69835
3.93295
3.76497
3.58656
4.41415
3.93454
3.66777
3.15094
3.65504