/*--------------------------------*- C++ -*----------------------------------*\
| =========                 |                                                 |
| \\      /  F ield         | OpenFOAM: The Open Source CFD Toolbox           |
|  \\    /   O peration     | Version:  2506                                  |
|   \\  /    A nd           | Website:  www.openfoam.com                      |
|    \\/     M anipulation  |                                                 |
\*---------------------------------------------------------------------------*/
FoamFile
{
    version     2.0;
    format      ascii;
    arch        "LSB;label=32;scalar=64";
    class       surfaceScalarField;
    location    "100";
    object      phi;
}
// * * * * * * * * * * * * * * * * * * * * * * * * * * * * * * * * * * * * * //

dimensions      [0 3 -1 0 0 0 0];

oriented        oriented;

internalField   nonuniform List<scalar> 
110688
(
-2.23157e-06
1.07224e-06
3.1585e-07
8.43481e-07
3.49765e-07
-2.24326e-06
1.02351e-06
8.69985e-07
1.03841e-06
-2.0889e-06
2.82956e-07
7.67529e-07
8.39874e-07
-2.1325e-06
1.06283e-06
2.29787e-07
-1.37157e-06
-1.91575e-06
1.05576e-06
-1.81187e-06
7.90053e-07
-1.34963e-06
2.73745e-07
-2.1231e-06
-2.20646e-06
3.15855e-07
1.0618e-06
8.28802e-07
3.15846e-07
1.13926e-06
-2.27078e-06
8.15664e-07
1.01659e-06
4.58038e-07
-2.29431e-06
8.1966e-07
8.70699e-07
3.75651e-07
9.91836e-07
-2.23819e-06
-1.41025e-06
-1.8672e-06
1.07099e-06
-1.92021e-06
8.25791e-07
-1.3636e-06
3.67091e-07
-2.26721e-06
-1.77309e-06
9.21929e-07
1.45421e-07
7.05758e-07
2.09574e-07
9.46923e-07
-1.83719e-06
6.80703e-07
9.47057e-07
1.33011e-07
-1.73086e-06
6.50814e-07
5.97648e-07
9.36411e-07
1.33085e-07
-1.66711e-06
-1.09598e-06
-1.60356e-06
9.26474e-07
-1.62716e-06
7.40768e-07
-1.14969e-06
1.43791e-07
-1.82979e-06
-1.97707e-06
7.66437e-07
1.05242e-06
1.58224e-07
2.22177e-07
7.99443e-07
9.85184e-07
-2.00683e-06
9.63435e-07
6.37881e-07
1.19498e-07
-1.72079e-06
6.79718e-07
9.83263e-07
1.09749e-07
-1.77273e-06
-1.22578e-06
-1.73464e-06
9.83351e-07
-1.71288e-06
7.09279e-07
-1.17432e-06
1.19408e-07
-1.92376e-06
-1.90528e-06
-1.36042e-06
1.02243e-06
9.9707e-07
-1.37023e-06
-1.71574e-06
-1.31462e-06
-1.85444e-06
1.03657e-06
2.21591e-06
-1.36083e-06
-1.84257e-06
9.87485e-07
3.43837e-07
-8.75785e-07
-1.37333e-06
-7.8219e-07
3.33265e-07
1.00686e-06
-1.76355e-06
-1.91101e-06
8.66449e-07
8.49312e-07
-1.8345e-06
1.5021e-06
-1.83096e-06
7.86878e-07
-4.11444e-07
-1.7244e-06
7.65622e-07
-2.23712e-06
-1.04723e-06
-1.02072e-06
-2.27107e-06
8.12388e-07
-1.78969e-06
-7.16967e-07
-1.20292e-06
2.04147e-07
-1.26597e-06
1.77969e-07
2.90652e-07
-1.33379e-06
1.65347e-06
-1.16157e-06
1.45991e-07
1.02796e-06
-1.92643e-06
1.81506e-07
-2.00156e-06
1.00163e-06
-1.2746e-06
-2.00539e-06
1.67221e-06
-1.89738e-06
-9.38208e-07
-2.23008e-06
1.36657e-06
-2.25062e-06
-7.28071e-07
-3.50855e-07
-3.30462e-07
-7.73976e-07
-2.04265e-06
1.62396e-06
-9.69626e-07
-5.75624e-07
-7.87042e-08
-1.00208e-06
1.64864e-06
-5.86727e-07
-5.98382e-08
-2.4999e-08
1.65584e-06
-1.02691e-06
-6.03926e-07
-5.9207e-07
1.65375e-06
-9.9767e-07
-6.40061e-08
1.05087e-06
6.45522e-07
-7.24293e-08
6.37221e-07
-5.88426e-07
1.04027e-06
-9.8682e-07
1.6525e-06
1.67633e-06
-1.0201e-06
-5.93765e-07
-6.24632e-08
-1.02109e-06
1.69639e-06
-6.05356e-07
-6.99344e-08
-6.61869e-08
-1.04522e-06
1.75157e-06
-6.40165e-07
-5.8336e-07
-1.024e-06
1.65566e-06
-4.82852e-08
1.09154e-06
6.51975e-07
-6.71756e-08
6.86756e-07
-6.16306e-07
1.12716e-06
-1.05854e-06
1.74772e-06
1.78371e-06
5.64149e-08
-1.17569e-06
-6.64429e-07
-1.19724e-06
2.18195e-08
1.90622e-06
-7.30805e-07
2.56399e-07
-1.73812e-06
2.40024e-06
-9.18526e-07
-8.21465e-07
1.5248e-08
-1.29607e-06
2.10229e-06
1.10379e-06
6.16487e-07
6.34408e-08
6.26936e-07
-7.20377e-07
1.20712e-06
-1.4121e-06
2.09045e-06
1.68778e-06
-6.01863e-07
-1.0181e-06
-6.78097e-08
-1.0123e-06
-6.19044e-07
1.69715e-06
-6.57996e-08
-8.48116e-08
-6.40725e-07
-1.16717e-06
1.89273e-06
-5.82386e-07
-1.10734e-06
1.77198e-06
-8.22383e-08
1.09648e-06
6.61923e-07
-7.06209e-08
7.067e-07
-6.22502e-07
1.20596e-06
-1.12641e-06
1.82785e-06
6.39388e-07
1.06939e-06
-6.01388e-08
-2.13367e-08
1.06824e-06
6.0893e-07
1.07312e-06
6.43315e-07
-6.26858e-08
-1.68493e-06
1.08986e-06
6.62278e-07
-6.7208e-08
-1.0263e-06
5.99283e-07
1.0664e-06
6.0486e-07
-1.02301e-06
-6.2638e-08
6.5497e-07
6.53623e-07
-6.04326e-07
-6.1605e-07
6.81919e-07
-1.09612e-06
6.96418e-07
-6.45525e-07
1.07781e-06
6.27389e-07
-6.36949e-07
1.69886e-06
2.1167e-08
2.42732e-08
1.71798e-06
-6.19009e-07
6.46138e-07
6.3812e-07
1.07261e-06
-1.10179e-06
1.08752e-06
-1.04607e-06
-1.05542e-06
1.09866e-06
-6.64788e-07
1.21661e-06
-1.19255e-06
-3.06067e-08
1.73585e-06
-1.06713e-06
1.71189e-06
-3.39608e-08
1.10503e-06
1.75641e-06
-6.84071e-07
1.91593e-06
3.37155e-08
1.74686e-06
-1.13083e-06
1.84906e-06
6.7627e-07
1.14359e-06
1.09723e-06
6.58897e-07
1.78984e-06
-5.49815e-07
7.95043e-07
8.27013e-07
-1.00712e-06
-5.20882e-07
7.21798e-07
8.06197e-07
7.40188e-07
-5.30501e-07
8.1382e-07
8.24561e-07
-5.0514e-07
7.43406e-07
2.77108e-07
-1.5893e-06
7.62379e-07
-1.53622e-06
8.06206e-07
2.91019e-07
-5.0501e-07
-5.0609e-07
-9.86665e-07
6.85981e-07
8.06769e-07
-1.00415e-06
-3.95576e-07
6.12288e-07
7.87432e-07
5.73653e-07
-9.96178e-07
-3.73488e-07
7.96008e-07
9.02651e-07
-9.69924e-07
-5.85486e-07
6.52727e-07
3.78399e-07
-1.58346e-06
6.9897e-07
-1.4196e-06
7.93838e-07
3.9628e-07
-1.0771e-06
-4.49667e-07
-4.38288e-07
7.18777e-07
7.8131e-07
-1.01636e-06
5.61025e-07
-3.2672e-07
7.82039e-07
6.19831e-07
-2.74051e-07
7.93462e-07
8.2392e-07
7.20384e-07
-5.52478e-07
3.74332e-07
-1.53497e-06
7.22351e-07
-1.43343e-06
7.91404e-07
3.59929e-07
-4.53678e-07
-3.91952e-07
7.86095e-07
6.58268e-07
-9.88086e-07
8.61439e-07
-5.36254e-07
6.62893e-07
6.95414e-07
7.85864e-07
-4.96114e-07
6.81014e-07
-3.23887e-07
6.26142e-07
3.11878e-07
-1.32733e-06
6.23497e-07
-1.47922e-06
8.03005e-07
3.37031e-07
-4.46775e-07
-1.52797e-06
2.97764e-07
7.09322e-07
7.04611e-07
3.01306e-07
-1.53642e-06
2.95322e-07
-1.51296e-06
7.12501e-07
5.41105e-07
2.90847e-07
-1.54789e-06
7.15921e-07
-1.01442e-06
-8.27618e-07
3.14066e-07
-8.14822e-07
-9.88381e-07
7.01863e-07
-1.50788e-06
-1.47477e-06
7.85866e-07
8.69223e-07
-1.5483e-06
-3.92207e-07
-1.40824e-06
8.04261e-07
1.00998e-06
-1.49327e-06
7.84591e-07
-4.84084e-07
-6.76617e-07
-6.91957e-07
-4.57134e-07
7.905e-07
-1.5413e-06
-8.23564e-07
3.09572e-07
3.097e-07
-1.00665e-06
3.20195e-07
1.49663e-06
2.76708e-07
7.0259e-07
-5.19296e-07
-4.95597e-07
6.99242e-07
2.78089e-07
-4.64926e-07
1.53639e-06
-5.39308e-07
-6.60677e-07
-5.6743e-07
-4.10266e-07
-4.36948e-07
-8.24331e-07
1.08176e-06
9.90149e-07
-8.69809e-07
-5.40342e-07
2.6584e-07
1.21375e-06
-2.16746e-06
6.87875e-07
1.08998e-06
4.57481e-07
-2.25927e-06
7.11811e-07
-2.21549e-06
2.77904e-07
1.09607e-06
8.41512e-07
8.6301e-07
3.70027e-07
9.98524e-07
-2.23159e-06
1.08055e-06
1.37846e-06
-2.19318e-06
1.40964e-06
7.60883e-07
1.12532e-06
1.11614e-06
3.19455e-07
2.92514e-07
9.91056e-07
-1.9608e-06
6.77233e-07
9.61874e-07
1.12602e-07
-1.72949e-06
6.55024e-07
-1.90072e-06
1.0142e-06
2.36975e-07
6.49559e-07
6.49042e-07
8.71316e-07
7.65408e-08
-1.59689e-06
9.42449e-07
1.2035e-06
-1.85343e-06
1.25288e-06
6.51453e-07
8.82521e-07
9.70026e-07
2.34683e-07
3.12115e-07
-2.21506e-06
1.05482e-06
8.48124e-07
1.06225e-06
-2.13096e-06
3.05961e-07
7.62738e-07
-2.2322e-06
1.07685e-06
3.21127e-07
8.34214e-07
8.40103e-07
-2.11322e-06
1.04217e-06
2.30941e-07
1.13562e-06
1.33277e-06
-2.15629e-06
1.39222e-06
8.05651e-07
1.14279e-06
1.03008e-06
3.02804e-07
3.07991e-07
7.65991e-07
9.96157e-07
-2.07015e-06
9.18339e-07
6.28333e-07
7.90507e-08
-1.62571e-06
-1.95104e-06
7.71175e-07
9.95303e-07
1.84572e-07
6.84968e-07
1.00053e-06
8.73036e-08
-1.7728e-06
9.94818e-07
1.26299e-06
-1.94982e-06
1.19553e-06
7.17633e-07
9.39341e-07
1.00862e-06
1.83831e-07
1.51452e-06
1.21249e-06
-2.26953e-06
-2.19784e-06
1.12109e-06
1.35464e-06
1.2112e-06
1.3936e-06
-2.23478e-06
-3.70772e-07
1.03394e-06
1.29109e-06
-1.95427e-06
1.0555e-06
-7.14621e-07
1.17364e-06
-8.22888e-07
9.71573e-07
-2.05697e-06
1.35988e-06
1.45443e-06
7.49115e-07
6.99668e-07
1.20559e-06
-1.06372e-06
1.36564e-06
7.12289e-07
-1.07718e-06
1.39177e-06
8.06486e-07
3.67771e-07
2.2603e-06
2.03746e-06
4.03707e-07
7.79409e-07
1.37745e-06
-8.50026e-07
1.16375e-06
1.04091e-06
1.16365e-06
9.95931e-07
9.86136e-07
9.33289e-07
-1.28831e-06
1.06308e-06
9.96409e-07
-2.20241e-06
3.31581e-07
1.0208e-06
3.21129e-07
-2.0249e-06
1.06816e-06
3.40455e-07
-1.28326e-06
2.33113e-07
1.92259e-06
2.16289e-07
-1.04929e-06
2.83966e-07
-7.77799e-07
-1.03804e-06
-9.92895e-07
-7.0988e-07
2.19817e-07
-1.07411e-06
7.13099e-07
6.76858e-07
6.66618e-07
-9.70535e-07
5.86865e-07
-1.62655e-07
-9.83456e-07
5.151e-07
6.30993e-07
5.70288e-07
-1.04402e-06
7.03517e-07
-4.23444e-07
-3.76947e-07
-3.38638e-07
5.81804e-07
-4.83293e-07
6.7662e-07
-9.84588e-07
-9.8754e-07
6.1739e-07
5.15591e-07
6.3345e-07
-9.91928e-07
4.91505e-07
-1.41211e-07
6.26448e-07
-9.77168e-07
4.91935e-07
4.89817e-07
6.31527e-07
-9.88245e-07
-4.94639e-07
-3.49091e-07
-3.60882e-07
4.99698e-07
-4.7981e-07
6.20545e-07
-9.81897e-07
-1.00048e-06
-1.55107e-07
5.27891e-07
6.27693e-07
6.37955e-07
-1.4186e-07
-9.87672e-07
4.91574e-07
-1.69279e-07
-9.932e-07
5.49944e-07
6.12532e-07
5.22642e-07
-1.5438e-07
-9.86911e-07
6.18654e-07
-4.84031e-07
-3.64344e-07
-1.52118e-07
-3.63398e-07
5.17319e-07
-4.59039e-07
6.17333e-07
-9.91714e-07
-1.03395e-06
5.22404e-07
6.69783e-07
6.37065e-07
4.88856e-07
-1.0064e-06
-1.43538e-07
5.12451e-07
-9.98119e-07
6.29213e-07
5.31252e-07
-1.03758e-06
6.16068e-07
-5.06215e-07
-4.08294e-07
-3.69158e-07
5.00018e-07
-4.92696e-07
6.15662e-07
-1.00538e-06
-3.16707e-07
-4.49676e-07
-1.69969e-07
-4.64576e-07
-3.48932e-07
-5.02035e-07
-3.64004e-07
9.7411e-07
-4.83181e-07
-3.44911e-07
6.60972e-07
-4.98864e-07
-4.78814e-07
-4.93583e-07
6.56755e-07
-3.38858e-07
-3.33833e-07
5.01543e-07
4.94182e-07
-3.45828e-07
4.83512e-07
-3.49026e-07
4.91946e-07
-6.27172e-07
-3.45052e-07
5.0764e-07
-9.71285e-07
1.58635e-07
1.43439e-07
-9.76565e-07
5.08021e-07
-3.49615e-07
-5.05207e-07
-4.81093e-07
6.37359e-07
-5.01789e-07
6.60193e-07
6.38606e-07
-4.94636e-07
3.58265e-07
-4.75746e-07
6.29938e-07
-1.52343e-07
-9.98032e-07
6.45175e-07
-9.92983e-07
-1.45641e-07
-4.94107e-07
-9.81252e-07
3.60333e-07
-9.90446e-07
1.447e-07
-9.85155e-07
4.92113e-07
-9.83001e-07
-4.99575e-07
-6.33792e-07
-6.33347e-07
-4.91292e-07
-9.79934e-07
1.04086e-07
-1.17856e-06
7.56995e-07
3.17523e-07
8.86373e-07
2.75825e-07
-1.49588e-06
3.3367e-07
-1.2377e-06
1.40037e-07
8.07073e-07
2.90618e-07
3.40544e-07
3.26792e-07
-1.62041e-06
9.53023e-07
4.52701e-07
8.40087e-07
-1.18873e-06
1.01769e-06
3.21381e-07
4.43896e-07
7.36732e-07
2.23875e-07
3.18329e-07
9.03887e-07
-1.47557e-06
2.53333e-07
7.25832e-07
-1.01501e-06
8.97351e-08
1.99482e-07
-1.4209e-06
8.22829e-07
3.08519e-07
2.89556e-07
2.88712e-07
6.63914e-07
-1.01998e-06
6.74238e-08
5.75652e-07
1.2454e-06
-1.50268e-06
1.0318e-06
2.69704e-07
6.4616e-07
8.87959e-07
2.57066e-07
1.98396e-07
-1.36662e-06
8.64658e-07
3.03559e-07
8.3514e-07
-1.50012e-06
3.19063e-07
3.45894e-07
-1.4809e-06
8.20612e-07
2.77392e-07
3.8289e-07
4.4251e-07
-1.57895e-06
8.11739e-07
3.24689e-07
5.95184e-07
1.08387e-06
-1.48068e-06
1.08269e-06
3.47626e-07
6.97282e-07
8.29083e-07
2.99063e-07
3.96568e-07
3.24042e-07
-1.61561e-06
8.94971e-07
6.04603e-07
3.49196e-07
-9.69557e-07
1.57883e-08
-1.47107e-06
4.24252e-07
8.1512e-07
2.3168e-07
3.31182e-07
-1.05336e-06
7.12649e-07
9.54567e-09
7.15036e-07
1.29012e-06
-1.60861e-06
9.49927e-07
3.69707e-07
7.1902e-07
9.0228e-07
1.979e-07
1.19635e-06
5.93131e-07
-1.51368e-06
-1.45137e-06
5.05925e-07
1.08546e-06
6.88567e-07
1.30289e-06
-1.66472e-06
-3.62276e-07
6.67563e-07
1.25329e-06
-1.55857e-06
9.0853e-07
-2.71373e-07
5.59171e-07
-3.18979e-07
9.10056e-07
-1.54372e-06
1.27962e-06
1.19652e-06
3.00484e-07
3.17306e-07
1.01418e-06
-6.10461e-07
1.13567e-06
2.97604e-07
-8.85561e-07
1.07757e-06
3.13915e-07
3.01685e-07
1.454e-06
1.50695e-06
2.63155e-07
3.05279e-07
1.15963e-06
-3.32127e-07
5.4034e-07
8.77234e-07
6.67117e-07
9.59781e-07
8.69569e-07
7.32913e-07
-1.21002e-06
7.75319e-07
8.58937e-07
-1.60725e-06
3.36272e-07
9.38819e-07
3.3949e-07
-1.57877e-06
7.04997e-07
2.51286e-07
-1.14013e-06
3.36479e-07
1.49061e-06
2.56491e-07
-6.97805e-07
3.33345e-07
-3.63896e-07
-8.6551e-07
-7.99026e-07
-4.03683e-07
2.879e-07
-1.94801e-07
2.53358e-07
-1.05047e-06
-1.03923e-06
-1.91826e-07
2.53898e-07
2.57579e-07
-1.9042e-07
-1.05539e-06
9.83784e-07
-1.90933e-07
2.45217e-07
-1.03806e-06
7.8039e-07
-1.24084e-06
2.65669e-07
-1.24074e-06
7.89777e-07
-1.04683e-06
-1.93372e-07
-1.90902e-07
-1.06137e-06
2.64608e-07
-1.09022e-06
3.20946e-07
-2.23927e-07
3.12233e-07
-1.08437e-06
-2.14765e-07
9.86045e-07
-1.07134e-06
2.86005e-07
-2.00704e-07
7.78217e-07
-1.26496e-06
2.95853e-07
-1.30371e-06
7.81717e-07
-1.06063e-06
-2.09757e-07
-2.04331e-07
2.55916e-07
-1.05798e-06
-1.06945e-06
3.0328e-07
-2.31934e-07
2.8514e-07
-1.08298e-06
-2.39724e-07
9.92776e-07
2.66456e-07
-1.05095e-06
-2.08244e-07
7.84414e-07
-1.25823e-06
2.69508e-07
-1.29041e-06
7.90243e-07
-1.05569e-06
-2.15012e-07
-1.90876e-07
9.78417e-07
2.4282e-07
-1.03035e-06
-1.04158e-06
9.83718e-07
2.5825e-07
-2.00381e-07
2.53396e-07
9.79542e-07
-1.03491e-06
-1.98017e-07
9.77666e-07
2.43354e-07
-1.02421e-06
-1.96806e-07
7.83377e-07
-1.22075e-06
2.46502e-07
-1.23526e-06
9.7707e-07
7.83954e-07
-1.02703e-06
-1.9791e-07
-1.23931e-06
7.93534e-07
2.5396e-07
2.60616e-07
7.89844e-07
-1.24087e-06
7.89365e-07
-1.22392e-06
2.43632e-07
1.93655e-07
7.88395e-07
-1.23935e-06
2.57323e-07
-1.04594e-06
-9.84456e-07
7.91099e-07
-9.78691e-07
-1.04391e-06
2.53122e-07
-1.23324e-06
-1.25084e-06
9.76185e-07
-1.25912e-06
-7.79161e-07
-1.29565e-06
1.05022e-06
-1.24553e-06
-1.94706e-07
-2.65024e-07
-2.79145e-07
-1.94733e-07
-1.25303e-06
-9.82699e-07
7.93309e-07
-1.05147e-06
7.87876e-07
-1.03338e-06
-1.04072e-06
7.85089e-07
1.23356e-06
7.85125e-07
-1.03913e-06
2.53163e-07
-1.93474e-07
-1.04238e-06
-1.92193e-07
2.55843e-07
7.84248e-07
-1.96293e-07
1.25467e-06
-2.03074e-07
-2.75493e-07
-1.98531e-07
-7.80335e-07
-2.12022e-07
-9.79399e-07
1.05262e-06
1.05952e-06
-9.80741e-07
-1.96713e-07
2.63524e-07
-1.71024e-06
2.47028e-06
-1.02355e-06
1.83969e-06
7.24684e-08
-1.18378e-06
-7.28378e-07
-1.27172e-06
5.20389e-08
1.9813e-06
-7.61617e-07
-6.37364e-07
-8.07382e-10
-1.29128e-06
1.92946e-06
-5.87963e-07
2.14233e-06
-1.29084e-06
2.04947e-06
-7.97737e-07
-7.09748e-07
2.21472e-06
6.79981e-08
-2.17011e-08
1.65891e-06
-1.03301e-06
-6.04206e-07
1.60893e-06
-9.69308e-07
-5.66595e-07
-7.30289e-08
-1.00704e-06
1.64029e-06
-5.72998e-07
-6.02511e-08
-5.7218e-07
1.64038e-06
-1.01521e-06
-5.299e-08
-6.14789e-07
1.59074e-06
-9.9765e-07
1.55856e-06
-5.64416e-07
-6.12591e-07
1.63115e-06
-6.1077e-08
-4.96318e-08
-1.08179e-06
1.74119e-06
-6.09773e-07
1.67847e-06
-1.02988e-06
-5.84317e-07
-6.42633e-08
-1.03046e-06
1.69932e-06
-5.96955e-07
-7.19028e-08
-5.58369e-07
-1.02408e-06
1.6125e-06
-3.00532e-08
-6.41968e-07
1.64865e-06
-1.05631e-06
1.62321e-06
-5.86716e-07
-6.65096e-07
1.75537e-06
-7.23401e-08
-7.13699e-08
-6.16801e-07
-1.15898e-06
1.84715e-06
1.69552e-06
-5.83875e-07
-1.05572e-06
-5.59228e-08
-1.01981e-06
-5.79527e-07
1.63264e-06
-3.32932e-08
-5.92286e-07
-1.09999e-06
1.76928e-06
-7.70022e-08
-6.30585e-07
1.6915e-06
-1.13228e-06
1.65433e-06
-5.89392e-07
-7.09462e-07
1.80868e-06
-7.49451e-08
1.77001e-06
-5.93011e-07
-1.10453e-06
-1.1636e-06
-6.11492e-07
1.82714e-06
-6.27762e-07
1.80861e-06
-1.18165e-06
1.57279e-08
-6.14495e-07
1.65661e-06
-1.05784e-06
1.75367e-06
6.23221e-07
-6.06873e-07
6.58058e-07
1.73369e-06
-1.09474e-06
1.76398e-06
1.68914e-06
-6.23234e-07
-5.81321e-07
1.60721e-06
6.19919e-07
1.59934e-06
-5.78961e-07
-1.72544e-06
1.74029e-06
-6.26347e-07
-1.10809e-08
1.09334e-06
1.03875e-06
-2.00226e-08
-6.12072e-07
1.63864e-06
6.01145e-07
-6.98038e-07
1.92403e-06
-7.05719e-07
1.89753e-06
1.69924e-06
-6.26503e-07
-1.64035e-06
-6.72885e-07
1.7337e-06
-1.08599e-06
-6.94764e-08
1.7566e-06
-2.77199e-08
-1.08213e-06
-6.27694e-07
-3.9532e-08
-1.62913e-06
-6.78341e-08
1.02707e-06
-4.63608e-08
6.28639e-07
-5.91871e-08
5.87566e-07
-1.68341e-06
-1.66925e-06
5.83875e-07
-5.8312e-08
3.73461e-07
1.77621e-07
-1.44498e-06
8.9391e-07
8.90366e-07
3.63628e-07
1.60695e-07
-1.41469e-06
-1.43511e-06
3.68816e-07
1.58477e-07
9.0782e-07
1.70789e-07
3.71196e-07
-1.42839e-06
8.86415e-07
5.37144e-07
1.25831e-06
-1.42199e-06
1.26718e-06
1.60327e-07
5.37067e-07
8.92043e-07
3.69146e-07
3.51273e-07
8.79507e-07
1.66461e-07
-1.39724e-06
8.76782e-07
1.66997e-07
-1.39482e-06
3.51043e-07
-1.40316e-06
8.80987e-07
1.73004e-07
3.49169e-07
1.76147e-07
8.72903e-07
-1.39759e-06
3.48549e-07
5.2171e-07
1.22471e-06
-1.39514e-06
1.22893e-06
1.6956e-07
5.24719e-07
8.76138e-07
3.50494e-07
3.73978e-07
-1.44105e-06
1.78341e-07
8.88733e-07
8.77867e-07
-1.42358e-06
1.88768e-07
3.5694e-07
-1.46888e-06
2.07576e-07
8.68787e-07
3.9251e-07
2.19072e-07
-1.44283e-06
8.58274e-07
3.65482e-07
5.66177e-07
1.23677e-06
-1.42897e-06
1.24847e-06
1.95574e-07
6.0348e-07
8.52362e-07
3.83069e-07
3.63463e-07
1.75136e-07
-1.42339e-06
8.84803e-07
8.71674e-07
1.82622e-07
-1.4056e-06
3.51311e-07
-1.43362e-06
2.07365e-07
8.59481e-07
3.66786e-07
1.97343e-07
-1.42987e-06
8.55711e-07
3.76829e-07
5.48059e-07
1.23431e-06
-1.41889e-06
1.23221e-06
1.87533e-07
5.71311e-07
8.60349e-07
3.69895e-07
1.23849e-06
5.27141e-07
-1.40201e-06
-1.42732e-06
5.39123e-07
1.25702e-06
5.39707e-07
1.25128e-06
-1.41978e-06
-3.5261e-07
5.2982e-07
1.22519e-06
-1.40239e-06
8.82042e-07
-1.70051e-07
5.26507e-07
-1.76131e-07
8.8146e-07
-1.40412e-06
1.24504e-06
1.24007e-06
1.6658e-07
1.74337e-07
1.22839e-06
-5.2868e-07
1.23367e-06
1.75995e-07
-8.82554e-07
1.24849e-06
1.73192e-07
3.555e-07
1.41108e-06
1.40597e-06
3.56522e-07
1.72002e-07
1.23382e-06
-1.86148e-07
5.56983e-07
8.86184e-07
5.52505e-07
8.7391e-07
8.7261e-07
5.35204e-07
-1.23266e-06
5.8011e-07
8.59916e-07
-1.4345e-06
3.62539e-07
8.85817e-07
3.6304e-07
-1.42318e-06
5.53063e-07
3.64418e-07
-1.2314e-06
3.6869e-07
1.40963e-06
3.53964e-07
-5.46855e-07
3.5694e-07
-1.93062e-07
-8.71494e-07
-8.71403e-07
-1.84532e-07
3.53699e-07
1.78812e-06
1.10942e-06
-2.44629e-06
-4.51261e-07
-2.66117e-06
1.7768e-06
1.17498e-06
-2.90661e-07
1.23136e-06
1.83239e-06
-2.5791e-06
-4.84645e-07
-3.57415e-07
1.42894e-06
9.10641e-07
-1.98213e-06
1.4131e-06
-6.96588e-07
1.0716e-06
-7.86464e-07
-4.61605e-07
1.23753e-06
-2.29154e-06
1.68242e-06
1.72668e-06
-2.67077e-06
1.22739e-06
-2.83283e-07
-2.56173e-06
1.6321e-06
1.2242e-06
-2.94565e-07
1.27896e-06
-2.57539e-06
1.67642e-06
-3.80003e-07
-4.20565e-07
-2.25424e-06
1.57051e-06
1.10429e-06
1.32429e-06
-8.77565e-07
1.27996e-06
-8.75046e-07
-3.62404e-07
1.32945e-06
-2.62757e-06
1.73336e-06
1.77689e-06
1.24972e-06
-2.57731e-06
-4.49287e-07
-2.47951e-06
1.18834e-06
1.68159e-06
-3.90414e-07
1.16984e-06
1.69397e-06
-2.49012e-06
-3.7369e-07
-4.18033e-07
1.0589e-06
1.64575e-06
-2.28661e-06
1.31671e-06
-7.41753e-07
1.20193e-06
-7.57217e-07
-4.05583e-07
1.32146e-06
-2.48125e-06
1.73409e-06
1.33828e-06
-2.60041e-07
8.26777e-07
-1.905e-06
-2.01039e-06
-3.22227e-07
1.43383e-06
8.98772e-07
8.83969e-07
-3.03231e-07
1.39199e-06
-1.97275e-06
-2.34466e-07
1.16252e-06
7.24151e-07
-1.6522e-06
1.10478e-06
-5.82751e-07
8.16239e-07
-5.98261e-07
-3.07354e-07
1.08756e-06
-1.90479e-06
1.37326e-06
-8.40825e-07
1.37712e-06
1.24051e-06
1.26908e-06
1.37755e-06
-8.14236e-07
1.12228e-06
-6.02743e-07
9.094e-07
-1.50466e-06
1.15348e-06
-6.75358e-07
1.02655e-06
-2.57335e-06
4.09256e-07
1.32327e-06
3.78155e-07
-2.1355e-06
1.04011e-06
-6.35067e-07
-8.70349e-07
-4.23298e-07
-4.01879e-07
-6.98882e-07
-1.34507e-06
-7.92043e-07
-4.38274e-07
2.64864e-06
-8.05423e-07
-4.65646e-07
1.75619e-06
-1.30325e-06
-1.27326e-06
1.80954e-06
-4.64147e-07
-8.08808e-07
4.0476e-07
1.28151e-06
-2.50052e-06
1.10757e-06
-1.97035e-06
-2.17473e-06
1.17714e-06
6.47797e-07
1.19523e-06
-2.14627e-06
1.00119e-06
1.54368e-06
-2.1401e-06
1.47369e-06
1.00839e-06
1.18308e-06
1.7258e-06
6.79872e-07
1.57424e-06
-1.09916e-06
1.57741e-06
-1.28724e-06
1.68353e-06
4.02628e-07
2.52509e-06
2.26557e-06
4.29042e-07
1.59545e-06
1.76094e-06
1.09683e-06
-2.43809e-06
-4.19644e-07
-2.52199e-06
1.67487e-06
1.11419e-06
-2.67072e-07
1.11977e-06
1.72555e-06
-2.40951e-06
-4.3581e-07
-3.44674e-07
1.39815e-06
8.89892e-07
-1.94336e-06
1.37157e-06
-6.45633e-07
1.03501e-06
-7.19284e-07
-4.31136e-07
1.17313e-06
-2.16344e-06
1.57361e-06
1.63657e-06
-2.49657e-06
1.12883e-06
-2.68856e-07
-2.36884e-06
1.52841e-06
1.17457e-06
-3.34147e-07
1.2036e-06
-2.48054e-06
1.69589e-06
-4.18902e-07
-4.19646e-07
-2.17554e-06
1.53236e-06
1.06281e-06
1.2196e-06
-8.2376e-07
1.24074e-06
-7.86765e-07
-3.62471e-07
1.27407e-06
-2.51742e-06
1.6909e-06
1.80093e-06
1.18689e-06
-2.51857e-06
-4.69218e-07
-2.4737e-06
1.15421e-06
1.73312e-06
-4.13599e-07
1.08443e-06
1.8185e-06
-2.49523e-06
-4.07694e-07
-4.37198e-07
1.03497e-06
1.69328e-06
-2.29107e-06
1.34982e-06
-7.75391e-07
1.22651e-06
-6.87403e-07
-4.36477e-07
1.32008e-06
-2.53265e-06
1.7171e-06
1.24898e-06
-2.62831e-07
7.83713e-07
-1.76982e-06
-1.8602e-06
-3.20249e-07
1.3697e-06
8.10811e-07
8.29412e-07
-2.88862e-07
1.37385e-06
-1.91439e-06
-2.17117e-07
1.17288e-06
7.19242e-07
-1.67502e-06
1.02299e-06
-5.09169e-07
7.35157e-07
-5.39555e-07
-2.97657e-07
1.04725e-06
-1.77354e-06
1.33711e-06
-7.59894e-07
1.2975e-06
1.13725e-06
1.17266e-06
1.3121e-06
-7.59217e-07
1.09318e-06
-5.74266e-07
8.79246e-07
-1.46799e-06
1.12575e-06
-6.36115e-07
9.78357e-07
-2.39299e-06
3.85128e-07
1.24796e-06
3.53283e-07
-2.02652e-06
9.43662e-07
-5.80056e-07
-7.8567e-07
-4.13401e-07
-3.97099e-07
-6.52708e-07
-1.30036e-06
-7.47614e-07
-4.32545e-07
2.50804e-06
-7.3886e-07
-4.57044e-07
1.67121e-06
-1.2089e-06
-1.24331e-06
1.75433e-06
-4.55179e-07
-7.89341e-07
3.92434e-07
1.23717e-06
-2.38881e-06
1.06101e-06
-1.89809e-06
-2.1055e-06
1.14912e-06
6.37664e-07
1.17034e-06
-2.09689e-06
9.4048e-07
1.50189e-06
-2.04992e-06
1.42144e-06
9.81718e-07
1.1578e-06
1.68519e-06
6.30583e-07
1.57472e-06
-1.04994e-06
1.54633e-06
-1.28027e-06
1.68686e-06
4.08711e-07
2.50299e-06
2.19703e-06
4.33369e-07
1.58044e-06
-9.37665e-07
7.74512e-07
4.06889e-07
-2.43735e-07
7.57609e-07
-8.88683e-07
3.52594e-07
-2.2152e-07
3.87595e-07
-9.28113e-07
7.74233e-07
-2.33711e-07
-2.11883e-07
-8.98452e-07
7.49128e-07
3.61206e-07
-1.15805e-06
-1.64914e-07
3.853e-07
-1.5541e-07
-2.45032e-07
-1.1378e-06
7.61004e-07
-9.05616e-07
-8.80135e-07
7.44951e-07
3.48527e-07
-2.13344e-07
7.41587e-07
-8.76415e-07
3.47544e-07
-2.12716e-07
3.52178e-07
7.45665e-07
-8.8162e-07
-2.16221e-07
-2.14437e-07
7.40677e-07
-8.77568e-07
3.51328e-07
-1.09415e-06
-1.36269e-07
3.50284e-07
-1.37136e-07
-2.15429e-07
-1.09227e-06
7.41558e-07
-8.77224e-07
-9.19641e-07
3.78071e-07
7.67637e-07
-2.26058e-07
7.58966e-07
3.64567e-07
-8.99822e-07
-2.23701e-07
3.82203e-07
7.58452e-07
-9.13454e-07
-2.27189e-07
-2.21577e-07
3.70791e-07
7.50471e-07
-8.99683e-07
-1.13737e-06
-1.52255e-07
3.69995e-07
-1.50394e-07
-2.28008e-07
-1.13348e-06
7.59653e-07
-9.01671e-07
-8.8122e-07
-2.03014e-07
7.35935e-07
3.48303e-07
7.39558e-07
-2.13349e-07
-8.77539e-07
3.51332e-07
3.60581e-07
-2.14698e-07
7.43348e-07
-8.89226e-07
-2.11332e-07
7.37916e-07
-8.81508e-07
3.54926e-07
-1.08739e-06
-1.4352e-07
3.49694e-07
-1.4349e-07
-2.0434e-07
-1.09788e-06
7.43024e-07
-8.80785e-07
-1.41465e-07
-1.10135e-06
3.54133e-07
3.6833e-07
-1.14105e-06
-1.55384e-07
-1.10052e-06
-1.47135e-07
3.4921e-07
8.80123e-07
-1.09156e-06
-1.38906e-07
3.5035e-07
7.44384e-07
2.15609e-07
-1.10145e-06
2.07101e-07
7.47333e-07
3.48402e-07
-1.46089e-07
-1.41186e-07
-2.15212e-07
-2.1133e-07
-1.39555e-07
1.1052e-06
-1.37349e-07
-2.22176e-07
-7.5773e-07
-1.48965e-07
-2.34348e-07
-8.85159e-07
-3.57475e-07
-3.54929e-07
-8.92451e-07
-2.2275e-07
-1.42179e-07
2.1676e-07
-1.14123e-06
7.69088e-07
-1.10076e-06
7.50616e-07
7.38974e-07
-1.09123e-06
1.4695e-07
-1.11278e-06
7.51139e-07
3.58813e-07
-9.08002e-07
7.65952e-07
-8.8804e-07
3.53406e-07
-1.11445e-06
-9.12121e-07
1.47799e-07
-8.89785e-07
-3.52112e-07
-8.78667e-07
1.11615e-06
-8.88925e-07
2.18085e-07
-7.60204e-07
-7.48566e-07
2.13772e-07
-8.86905e-07
1.01222e-06
1.73485e-07
-6.10124e-07
-5.75583e-07
2.01637e-07
9.85413e-07
-6.05238e-07
-5.81809e-07
-5.61387e-07
1.16727e-06
8.23477e-08
-6.88227e-07
-6.65422e-07
1.10977e-06
1.64573e-07
-6.08919e-07
3.80841e-07
1.22035e-06
-5.88964e-07
1.2071e-06
-6.24621e-07
4.14566e-07
1.40364e-07
1.06028e-06
9.73831e-07
2.10942e-07
-6.01113e-07
-5.83658e-07
2.19164e-07
-6.01735e-07
-5.87055e-07
-5.77924e-07
1.78344e-07
-6.27326e-07
-6.20145e-07
2.09849e-07
-5.87374e-07
3.65859e-07
1.19366e-06
-5.85688e-07
1.19293e-06
-6.07903e-07
3.71817e-07
2.01704e-07
1.35904e-06
-5.40637e-07
2.04056e-08
-8.38807e-07
1.3358e-07
-5.82298e-07
-7.26972e-07
-7.35977e-07
8.49197e-08
-1.08706e-06
-8.06184e-07
-7.06733e-07
2.16848e-07
5.37078e-07
1.47584e-06
-6.53869e-07
1.53419e-06
-8.63528e-07
6.13888e-07
5.57663e-08
1.1322e-06
-6.79898e-07
2.05211e-07
-6.57509e-07
2.17094e-07
-6.38323e-07
-5.96873e-07
-6.7399e-07
-7.13209e-07
2.20023e-07
-6.49828e-07
2.08755e-07
-6.6627e-07
4.53946e-07
1.3348e-06
-6.56547e-07
1.32849e-06
-6.57453e-07
4.7191e-07
2.13056e-07
1.19371e-06
3.70874e-07
-5.79173e-07
-5.81273e-07
4.43455e-07
1.30509e-06
4.3169e-07
1.30224e-06
-6.24159e-07
-1.01982e-06
3.8771e-07
1.23102e-06
-5.98907e-07
1.74073e-07
6.3217e-07
3.87471e-07
6.5308e-07
1.88172e-07
-5.75821e-07
1.27294e-06
1.19783e-06
-6.1601e-07
-6.36329e-07
1.23389e-06
-4.06485e-07
1.24544e-06
-6.60605e-07
-1.49427e-07
1.29615e-06
-7.03261e-07
1.01306e-06
5.72234e-07
5.7844e-07
1.07186e-06
-6.49054e-07
1.24382e-06
7.47064e-07
4.71518e-07
8.65146e-08
4.58062e-07
1.64286e-07
1.84223e-07
4.08473e-07
-1.36351e-06
4.99658e-07
1.50641e-07
-6.02449e-07
1.20031e-06
1.4921e-07
1.12856e-06
-6.55328e-07
4.92127e-07
1.22703e-06
-1.39962e-06
5.96295e-07
-4.38652e-07
7.10812e-07
-1.3765e-07
-1.96685e-07
6.67516e-07
5.75597e-08
-1.05798e-06
6.98525e-07
3.01924e-07
7.92373e-07
2.06635e-07
-1.32725e-06
3.28272e-07
-1.09179e-06
9.19798e-08
7.06226e-07
2.93591e-07
3.31504e-07
2.68397e-07
-1.45797e-06
8.58041e-07
3.8333e-07
7.38627e-07
-1.06443e-06
8.60589e-07
3.15121e-07
3.94266e-07
6.75867e-07
1.63066e-07
2.61095e-07
8.18168e-07
-1.33861e-06
2.59302e-07
7.01231e-07
-9.76971e-07
7.72804e-08
1.98536e-07
-1.30861e-06
7.80294e-07
2.79841e-07
2.48426e-07
2.78943e-07
6.64327e-07
-1.0283e-06
8.51635e-08
4.99347e-07
1.13986e-06
-1.37808e-06
9.76636e-07
2.23938e-07
5.78111e-07
8.40701e-07
2.46153e-07
1.64488e-07
-1.20948e-06
7.4831e-07
2.9669e-07
7.85482e-07
-1.34414e-06
2.65488e-07
2.93167e-07
-1.31285e-06
7.76366e-07
2.1117e-07
3.25332e-07
3.43697e-07
-1.45509e-06
8.32237e-07
2.79155e-07
5.16268e-07
9.81019e-07
-1.33282e-06
9.92157e-07
3.09591e-07
5.42401e-07
7.82316e-07
2.21704e-07
3.93643e-07
3.11422e-07
-1.60762e-06
9.02545e-07
6.72873e-07
2.97679e-07
-9.85149e-07
1.47245e-08
-1.47897e-06
3.55336e-07
8.58564e-07
2.65081e-07
3.04632e-07
-1.0392e-06
7.41342e-07
-6.74436e-09
6.81238e-07
1.3293e-06
-1.61684e-06
1.03824e-06
3.15898e-07
7.06131e-07
9.27825e-07
2.65457e-07
1.03748e-06
5.07479e-07
-1.33836e-06
-1.29426e-06
4.37362e-07
9.48858e-07
6.17383e-07
1.15814e-06
-1.50716e-06
-3.56972e-07
6.29015e-07
1.25823e-06
-1.53018e-06
8.31227e-07
-2.71632e-07
4.7788e-07
-2.99972e-07
8.71225e-07
-1.49983e-06
1.18863e-06
1.03172e-06
2.93907e-07
2.79263e-07
1.01409e-06
-5.05379e-07
1.02754e-06
2.58116e-07
-7.81765e-07
9.16966e-07
3.02144e-07
2.43307e-07
1.26629e-06
1.36326e-06
1.98656e-07
2.85853e-07
1.05653e-06
-3.11898e-07
4.86049e-07
7.74697e-07
5.70619e-07
8.98933e-07
8.81776e-07
6.74146e-07
-1.16472e-06
6.55697e-07
8.64333e-07
-1.45663e-06
2.86836e-07
8.57885e-07
3.02619e-07
-1.50029e-06
6.22407e-07
1.93525e-07
-1.09586e-06
2.96441e-07
1.41506e-06
2.73235e-07
-5.69085e-07
2.52444e-07
-3.18255e-07
-8.21053e-07
-7.91706e-07
-3.33608e-07
2.8976e-07
-7.48584e-07
7.8648e-07
1.93583e-07
-2.31485e-07
-2.14433e-07
-7.41862e-07
7.74082e-07
1.82216e-07
1.85935e-07
-7.49437e-07
7.75018e-07
-2.11512e-07
7.77035e-07
-7.4298e-07
1.70085e-07
-2.04137e-07
3.77974e-08
-9.6716e-07
1.80774e-07
-9.59096e-07
7.82459e-07
2.80387e-08
-2.18163e-07
-7.45118e-07
-7.56899e-07
-2.11547e-07
7.66081e-07
2.02369e-07
-2.18931e-07
7.62037e-07
2.31408e-07
2.19497e-07
-2.02931e-07
7.57669e-07
7.58799e-07
-1.89536e-07
1.79867e-07
-2.43267e-09
-9.58186e-07
2.03723e-07
-9.75844e-07
7.54479e-07
-4.65758e-09
-1.94728e-07
-7.57727e-07
1.87373e-07
7.63278e-07
-1.92917e-07
-1.89754e-07
1.96372e-07
7.61022e-07
2.02739e-07
7.48075e-07
-1.92353e-07
7.41477e-07
1.88968e-07
-1.79971e-07
-2.40349e-09
-9.41306e-07
1.8599e-07
-9.46187e-07
7.54029e-07
-1.62041e-08
-1.83617e-07
-7.40041e-07
7.55225e-07
1.66932e-07
-1.82109e-07
-1.76183e-07
7.47196e-07
1.64927e-07
1.78352e-07
7.41914e-07
-1.76919e-07
7.40734e-07
1.70063e-07
-1.72879e-07
7.6003e-09
-9.15889e-07
1.68256e-07
-9.17698e-07
7.49116e-07
-3.6784e-09
-1.71475e-07
-9.40699e-07
2.47541e-08
1.74089e-07
1.74256e-07
1.88911e-08
-9.4258e-07
2.26018e-08
-9.31497e-07
1.6592e-07
7.37931e-07
1.77025e-08
-9.19772e-07
1.64145e-07
-1.96473e-07
-7.63235e-07
1.9024e-08
-7.67332e-07
-1.91265e-07
1.65964e-07
-9.35996e-07
-9.57755e-07
7.70961e-07
7.64848e-07
-9.36681e-07
-9.16026e-09
-9.61537e-07
7.6777e-07
1.96057e-07
-9.43806e-07
7.66644e-07
-7.52657e-07
-1.86072e-07
-1.82536e-07
-7.63082e-07
7.73069e-07
-9.54777e-07
-7.6019e-07
2.98978e-09
-1.85373e-07
1.02577e-08
-1.86528e-07
-1.7756e-07
4.98544e-09
9.29055e-07
-9.60985e-09
-1.77527e-07
1.76918e-07
-7.48866e-07
-1.8824e-07
-7.48819e-07
1.77264e-07
2.92796e-09
-7.53441e-07
9.30497e-07
-1.81078e-07
3.92546e-09
-7.52982e-07
1.85533e-07
1.80444e-07
-7.65318e-07
1.801e-06
-2.8127e-07
1.74238e-07
-4.59174e-07
1.93788e-06
2.02893e-07
-1.54855e-06
1.71847e-06
-3.51723e-07
1.81823e-07
1.5286e-07
1.93951e-06
-4.46641e-07
2.07032e-06
1.46478e-06
1.42513e-06
1.86015e-07
2.00436e-06
-3.86705e-07
1.88095e-06
1.97263e-06
-5.21869e-07
2.25656e-07
-5.6627e-07
2.03698e-06
1.61388e-07
-1.6334e-06
-4.66654e-07
1.89721e-06
2.0287e-07
1.48255e-07
-5.08355e-07
1.9306e-06
2.2353e-06
1.47069e-06
1.47139e-06
1.97652e-07