/*--------------------------------*- C++ -*----------------------------------*\
| =========                 |                                                 |
| \\      /  F ield         | OpenFOAM: The Open Source CFD Toolbox           |
|  \\    /   O peration     | Version:  2506                                  |
|   \\  /    A nd           | Website:  www.openfoam.com                      |
|    \\/     M anipulation  |                                                 |
\*---------------------------------------------------------------------------*/
FoamFile
{
    version     2.0;
    format      ascii;
    arch        "LSB;label=32;scalar=64";
    class       volVectorField;
    location    "100";
    object      U;
}
// * * * * * * * * * * * * * * * * * * * * * * * * * * * * * * * * * * * * * //

dimensions      [0 1 -1 0 0 0 0];

internalField   nonuniform List<vector> 
57600
(
(0.125236 0.0743227 1.3532)
(0.146908 0.0930899 1.35582)
(0.134383 0.0336237 1.27013)
(0.0920506 0.0639067 1.30735)
(0.11478 0.0723554 1.33824)
(0.14421 0.0564575 1.2979)
(0.114293 0.072784 1.33046)
(0.12883 0.0474179 1.26971)
(0.119231 0.0770684 1.33839)
(0.181918 0.0255259 1.38559)
(0.21273 0.032491 1.33954)
(0.172303 0.0851558 1.31712)
(0.101065 0.0692264 1.32541)
(0.0728899 0.0191175 1.3829)
(0.180502 0.112663 1.31608)
(0.202844 0.0923088 1.33602)
(0.0230519 0.0487983 1.05835)
(0.0251951 0.0375537 1.05885)
(0.0121027 0.0297031 1.04691)
(0.0109825 0.0216178 1.01118)
(0.0845817 0.0550504 1.10451)
(0.0958068 0.0945937 1.11738)
(0.00589028 -0.011768 1.06738)
(0.0601203 0.0295423 1.11667)
(0.0577528 0.0382015 1.2304)
(0.076952 0.0561527 1.17875)
(-0.00408749 0.0257411 1.06114)
(0.0189941 0.0481164 1.10017)
(0.0575666 0.035742 1.17983)
(0.0569897 0.0245986 1.18115)
(-0.00969191 0.00435481 1.13367)
(0.0651201 0.0431113 1.15271)
(0.121614 0.0888402 1.34238)
(0.131163 0.0428458 1.23108)
(0.0904166 0.0559873 1.27989)
(0.128861 0.0911224 1.32618)
(0.152145 0.0974375 1.33929)
(0.13793 0.06231 1.27124)
(0.155935 0.0863135 1.33414)
(0.11703 0.0534886 1.25623)
(0.126509 0.0797759 1.354)
(0.152056 0.0737516 1.3345)
(0.182692 0.0236748 1.3795)
(0.172116 0.0407354 1.28701)
(0.154107 0.0755721 1.34214)
(0.148672 0.0855295 1.32865)
(0.187861 0.0544309 1.35764)
(0.176115 0.0597705 1.3404)
(0.0893001 0.0691971 1.17458)
(0.0505243 0.0448644 1.25264)
(0.155453 0.0925982 1.28173)
(0.00582177 0.000303832 1.0816)
(0.0699251 0.00640127 1.1806)
(0.0943071 0.0435174 1.20695)
(0.0761403 0.0116723 1.1513)
(0.0840121 0.0424537 1.20157)
(0.116346 0.0597174 1.18091)
(0.0604035 0.016899 1.11017)
(0.180442 0.0814816 1.29773)
(0.197965 0.0672882 1.28748)
(0.123053 0.0576438 1.21738)
(0.111303 0.0299007 1.20698)
(0.188091 0.0778766 1.25831)
(0.149436 0.0664684 1.17439)
(0.0191991 0.0054564 1.00882)
(0.0356835 0.00742383 1.02716)
(0.0636057 0.00922398 1.04078)
(0.0336908 0.00504114 1.03125)
(0.017098 0.00608527 1.01011)
(0.033042 0.00600071 1.01945)
(0.0337716 0.00278361 1.01645)
(0.041269 0.00196979 1.02742)
(0.0321524 0.00728153 1.04603)
(0.0334794 -0.000535498 1.04401)
(0.0380661 -0.0096306 1.05337)
(0.0447872 0.0148269 1.03271)
(0.0268248 0.00692607 1.04331)
(0.0214751 0.00418407 1.06538)
(0.0368222 0.0199321 1.06445)
(0.0162925 0.0132526 1.07866)
(0.132446 0.0121862 1.15129)
(0.153666 -0.0114053 1.0522)
(0.463359 0.0766236 1.38389)
(0.109549 -0.0726481 1.18542)
(0.124763 0.000339806 1.13461)
(0.159429 0.00282428 1.21005)
(0.181735 0.00872174 1.29795)
(0.0848678 0.0306344 1.15717)
(0.0332867 0.0056881 1.05689)
(0.0426515 -0.00123444 1.03773)
(0.04234 0.00968844 1.1118)
(0.0159167 0.0289092 1.11144)
(0.0286471 0.00805478 1.04818)
(0.0117977 -0.0046605 1.07171)
(0.0258711 0.0375209 1.11261)
(-0.000959774 0.0275813 1.10362)
(0.0303859 0.00895395 1.03024)
(0.0544512 0.00925721 1.04508)
(0.0277196 0.00629325 1.0331)
(0.0294132 0.00823752 1.04913)
(0.0463481 0.00682819 1.04146)
(0.0511524 0.00241783 1.04132)
(0.0338765 0.00775003 1.05055)
(0.0310562 0.00538775 1.04592)
(0.032822 0.00489081 1.04264)
(0.0238329 0.00328031 1.0564)
(0.0510805 -0.00505487 1.10567)
(0.0660125 0.00508391 1.07012)
(0.043915 0.00303312 1.05533)
(0.0456391 0.00462649 1.07097)
(0.0678261 0.0120331 1.08377)
(0.0635079 0.00898855 1.07852)
(0.0923224 0.0106334 1.07337)
(0.0458177 0.0119043 1.04954)
(0.0402021 0.00595493 1.07462)
(0.0449893 0.0243082 1.1574)
(0.0660269 0.00141771 1.09627)
(0.0375344 0.0102587 1.06155)
(0.0615015 0.00525845 1.09026)
(0.0359945 0.0083705 1.07512)
(0.0874567 0.00434827 1.10217)
(0.044654 0.0279847 1.1434)
(0.0140823 -0.000550454 1.07178)
(0.0271288 0.00296587 1.09487)
(0.0982684 0.000260029 1.12386)
(0.0604054 -0.00626982 1.12258)
(0.0870702 0.00423859 1.1483)
(0.0862317 0.00855599 1.08793)
(0.122692 0.0818102 1.37183)
(0.0926541 0.092021 1.29348)
(0.110538 0.0880355 1.32085)
(0.0861118 0.0813368 1.32809)
(0.118425 0.0950186 1.34703)
(0.0987717 0.0927433 1.3018)
(0.109577 0.0916486 1.34989)
(0.0904378 0.0894596 1.30965)
(0.0604209 0.103173 1.28463)
(-0.0276532 0.110043 1.23354)
(-0.0649472 0.108397 1.16861)
(0.0425593 0.164455 1.35571)
(0.0495398 0.118001 1.36062)
(-0.0114974 0.100189 1.22397)
(0.0470803 0.11092 1.37244)
(-0.0337999 0.0894137 1.23379)
(0.0569178 0.0557137 1.27082)
(-0.0727923 0.111758 1.19191)
(-0.0619436 0.0299184 1.22238)
(0.0864545 0.100634 1.305)
(0.0668109 0.0627118 1.29092)
(-0.0101494 0.0813499 1.22413)
(0.0871283 0.0727039 1.31607)
(-0.0296729 0.0884678 1.23088)
(0.0313391 0.0652896 1.24194)
(0.0364263 0.124267 1.32656)
(0.0821356 0.0748446 1.24167)
(0.0110235 0.029191 1.11166)
(0.0273686 0.0533658 1.13672)
(0.0809354 0.11305 1.26281)
(0.020799 0.0490705 1.12184)
(0.0652961 0.100572 1.27515)
(0.0905704 0.106039 1.30286)
(0.0949138 0.10449 1.30212)
(0.0896054 0.0884473 1.29238)
(0.0881907 0.113051 1.33139)
(0.0847583 0.103292 1.31079)
(0.0670256 0.0999401 1.29815)
(0.0858464 0.114955 1.30096)
(0.0818872 0.101551 1.28665)
(0.0607547 0.105598 1.2505)
(0.0860825 0.146419 1.32667)
(-0.0257446 0.101684 1.22661)
(0.0668157 0.0800388 1.26817)
(0.0528433 0.0890279 1.27392)
(0.0322136 0.118081 1.35106)
(0.0446994 0.0887768 1.24517)
(0.0387621 0.090834 1.3123)
(0.0984564 0.100776 1.3178)
(0.0714532 0.0843137 1.28472)
(0.0588929 0.112477 1.32898)
(0.0962439 0.104862 1.27965)
(0.0891901 0.105246 1.31193)
(0.0733098 0.0921544 1.28128)
(0.0815706 0.094791 1.27963)
(0.0822454 0.100707 1.27385)
(0.0595852 0.0694614 1.2717)
(0.0958479 0.113595 1.31934)
(0.0658013 0.154384 1.34696)
(-0.0447376 0.105024 1.22621)
(0.0559719 0.0899824 1.32132)
(0.110063 0.114802 1.30795)
(0.0325346 0.0887909 1.33567)
(0.0304603 0.136716 1.32508)
(-0.125777 0.00422926 1.3499)
(-0.204179 -0.0399935 1.34252)
(-0.11343 -0.062418 1.34878)
(-0.152383 -0.0818328 1.34756)
(-0.0748517 -0.0443603 1.35409)
(-0.132794 -0.033714 1.34527)
(-0.123078 -0.0760209 1.3489)
(-0.103433 -0.0573386 1.34053)
(-0.113238 -0.0299787 1.12915)
(0.0157287 -0.0259436 1.05137)
(-0.104332 0.00287672 1.15163)
(0.0288369 -0.0668372 0.978464)
(-0.124192 -0.0265223 1.13371)
(-0.0955017 -0.0298491 1.14124)
(-0.0716171 -0.0182371 1.09375)
(-0.116527 -0.00493937 1.14636)
(-0.132215 -0.0735502 1.34265)
(-0.149119 -0.0318363 1.30677)
(-0.139283 -0.0619548 1.3624)
(-0.113466 -0.066883 1.31552)
(-0.136105 -0.0764734 1.30916)
(-0.147113 -0.0469071 1.3107)
(-0.128384 -0.0842969 1.32615)
(-0.12728 -0.0582048 1.33449)
(-0.156364 -0.0354558 1.23626)
(0.0308611 -0.0333654 0.992011)
(-0.0865993 -0.0528863 1.19219)
(-0.000723381 -0.0340276 1.07997)
(-0.104101 -0.0468365 1.2022)
(-0.0957018 -0.0633685 1.15363)
(-0.0654073 -0.0233291 1.20524)
(-0.0836023 -0.0455247 1.19334)
(-0.230119 -0.0360318 1.35275)
(-0.106 -0.0590452 1.32718)
(-0.185156 -0.083157 1.34692)
(-0.15996 -0.0336261 1.18255)
(-0.205195 -0.0301089 1.31011)
(-0.153808 -0.0522667 1.33771)
(-0.167202 -0.0381757 1.17128)
(-0.151039 -0.0763913 1.31507)
(-0.190511 -0.044621 1.31704)
(-0.123359 -0.0658373 1.1532)
(-0.142029 -0.0161696 1.19868)
(-0.155473 -0.0420915 1.33814)
(-0.192913 -0.0445635 1.32793)
(-0.128791 -0.0250998 1.17973)
(-0.201585 -0.0386942 1.35504)
(-0.171301 -0.047041 1.26581)
(-0.134457 -0.0824 1.33295)
(-0.158361 -0.068987 1.31611)
(-0.100796 -0.00535951 1.14708)
(-0.121229 -0.0695481 1.2496)
(-0.152489 -0.0762491 1.32995)
(-0.154873 -0.0684203 1.31678)
(-0.136164 -0.0595517 1.24711)
(-0.118011 -0.0405656 1.19447)
(-0.134486 -0.0804757 1.32983)
(-0.100972 -0.0594089 1.25414)
(-0.112514 -0.0402405 1.16596)
(-0.128052 -0.0129424 1.25817)
(-0.15136 -0.0636488 1.29966)
(-0.126144 -0.0525379 1.2289)
(-0.138955 -0.0401434 1.27965)
(-0.105241 -0.021416 1.16508)
(0.126596 0.066815 1.30937)
(0.0883258 0.0225249 1.16504)
(0.0363531 0.0207652 1.07073)
(0.0601725 0.0240052 1.19157)
(0.0865762 0.0606961 1.23532)
(0.0762982 0.0245559 1.1666)
(0.0567107 0.00630738 1.15373)
(0.0352807 0.000858086 1.06648)
(0.0335193 0.0299234 1.06373)
(0.0245871 0.013454 1.05724)
(0.0265165 0.0132315 1.04147)
(0.0259443 0.0106241 1.05298)
(0.0267201 0.00683794 1.06372)
(0.0252024 0.0222431 1.05645)
(0.0285848 0.019978 1.04193)
(0.025066 0.0203679 1.04816)
(0.033806 0.0252518 1.07915)
(0.0228922 0.012571 1.05992)
(0.0443338 0.0389675 1.08463)
(0.0331565 0.0242029 1.06712)
(0.0309606 0.0227589 1.07918)
(0.032045 0.0224367 1.07938)
(0.0393068 0.0309658 1.07257)
(0.0421214 0.0287186 1.08661)
(0.0155997 0.0349465 1.0949)
(0.0171648 0.0131058 1.06245)
(0.0285815 0.0167889 1.06608)
(0.00357354 0.0491442 1.07999)
(0.0147543 0.0339534 1.07833)
(0.0209914 0.0216863 1.05927)
(0.0150309 0.0515874 1.07885)
(0.0265903 0.0269212 1.06896)
(0.0523703 0.0080877 1.07731)
(0.0384921 0.014464 1.07526)
(0.0345545 0.0109839 1.1182)
(0.0322197 0.00871438 1.05185)
(0.0414977 -0.00714548 1.07967)
(0.0380111 -0.0012166 1.08634)
(0.0278362 0.00760708 1.06988)
(0.0320164 -0.00230809 1.07164)
(0.0418189 0.0148601 1.0579)
(0.0283943 0.0128519 1.04424)
(0.0287949 0.0150262 1.0433)
(0.0399491 0.0182819 1.0582)
(0.0324518 0.0105 1.04337)
(0.0279597 0.022342 1.04594)
(0.0400481 0.0149706 1.06085)
(0.0249016 0.0169743 1.05394)
(0.0314393 0.0179455 1.06999)
(0.0248194 0.0159382 1.09192)
(0.0252699 0.0100886 1.05584)
(0.033325 0.0227898 1.07112)
(0.03256 0.0100672 1.07523)
(0.0270158 0.0106602 1.06046)
(0.0252224 0.0133015 1.07504)
(0.0239787 0.0173431 1.06226)
(0.0316752 0.0156324 1.05905)
(0.0333057 0.0260785 1.0736)
(0.0254612 0.0118132 1.05179)
(0.023052 0.0149055 1.04936)
(0.0290681 0.0136109 1.05628)
(0.0284667 0.0175876 1.06284)
(0.0264213 0.0116679 1.05133)
(0.0281551 0.0121066 1.04907)
(0.0139879 -0.0874434 1.23343)
(-0.103405 -0.146084 1.4437)
(0.0383107 -0.0430629 1.29799)
(-0.131635 -0.172688 1.5226)
(0.0110093 -0.073482 1.21733)
(-0.0624272 -0.116171 1.39059)
(0.0169521 -0.0726467 1.23111)
(-0.0311171 -0.12073 1.33278)
(-0.16179 -0.0901052 1.33971)
(0.000977468 -0.0176579 1.05156)
(-0.139131 -0.182069 1.29407)
(0.0639486 -0.100063 1.06493)
(-0.207022 -0.132008 1.36465)
(-0.104963 -0.125878 1.19931)
(-0.182734 -0.152547 1.34577)
(-0.143824 -0.181096 1.26346)
(-0.0382588 -0.104997 1.36757)
(-0.108204 -0.205231 1.3967)
(-0.0741713 -0.201521 1.40494)
(-0.0935955 -0.262962 1.43404)
(-0.0878747 -0.118619 1.40077)
(-0.0905438 -0.16779 1.43641)
(-0.0645125 -0.205098 1.42221)
(-0.0669174 -0.214906 1.40998)
(-0.216616 -0.186771 1.40547)
(0.13306 -0.130401 1.06328)
(-0.0541949 -0.22961 1.38527)
(0.110491 -0.0935479 1.13628)
(-0.213713 -0.190465 1.45932)
(-0.0377488 -0.225727 1.28434)
(-0.172689 -0.170455 1.43412)
(-0.0696621 -0.246639 1.36341)
(-0.130458 -0.136546 1.42908)
(-0.0825434 -0.111945 1.35975)
(-0.158585 -0.171127 1.54717)
(-0.212289 -0.165246 1.41349)
(-0.136 -0.119866 1.40713)
(-0.126506 -0.141619 1.42352)
(-0.211864 -0.132972 1.37375)
(-0.190199 -0.159717 1.42195)
(-0.132869 -0.12277 1.39461)
(-0.082218 -0.187781 1.26094)
(-0.14844 -0.157777 1.39079)
(-0.0608422 -0.0985972 1.38335)
(-0.140327 -0.0976265 1.40143)
(-0.179751 -0.133952 1.379)
(-0.0832687 -0.118708 1.40835)
(-0.149607 -0.115037 1.39756)
(-0.0895852 -0.138604 1.38631)
(-0.159915 -0.165353 1.51428)
(-0.16751 -0.186633 1.37367)
(-0.104545 -0.211626 1.44035)
(-0.152143 -0.167514 1.4803)
(-0.167266 -0.144545 1.47036)
(-0.179996 -0.152409 1.46402)
(-0.169061 -0.156845 1.40834)
(-0.0750626 -0.0987058 1.37695)
(-0.100048 -0.271565 1.44472)
(-0.123032 -0.246814 1.32714)
(-0.106895 -0.208629 1.38435)
(-0.126919 -0.153757 1.43857)
(-0.139094 -0.21383 1.43636)
(-0.0991832 -0.194219 1.40913)
(-0.103334 -0.233798 1.36298)
(0.018854 0.0126962 1.05014)
(0.0132151 0.00924244 1.03313)
(0.023268 0.00779489 1.05601)
(0.0144155 0.00494053 1.03515)
(0.0273378 0.0141123 1.04064)
(0.019864 0.0146827 1.03981)
(0.0182867 0.0133704 1.04154)
(0.0180093 0.00919617 1.04311)
(0.0319357 0.0111226 1.06133)
(0.0413227 0.0423479 1.08318)
(0.0438594 0.0386158 1.07896)
(0.0306242 0.0171577 1.07649)
(0.0361538 0.0207763 1.05911)
(0.0387936 0.0306138 1.07966)
(0.0362994 0.0201261 1.05705)
(0.0320107 0.0282669 1.08104)
(0.0168166 0.00976611 1.05749)
(0.0278682 0.0455936 1.07033)
(0.0228595 0.0316213 1.08039)
(0.0186425 0.0178808 1.05276)
(0.0169891 0.0220556 1.04716)
(0.0177955 0.0262153 1.0623)
(0.02137 0.0152537 1.05006)
(0.0197449 0.0253275 1.0711)
(0.0123052 0.00640356 1.03253)
(0.0160104 0.013471 1.04459)
(0.0164398 0.0119695 1.03687)
(0.0111776 0.00974642 1.02617)
(0.0138887 0.00850445 1.02675)
(0.0174588 0.0130452 1.03421)
(0.0140491 0.00957841 1.0254)
(0.016278 0.0118375 1.03653)
(0.018077 0.00672625 1.04778)
(0.0234846 0.0118915 1.04502)
(0.0118803 0.00860218 1.03221)
(0.0140913 0.0123261 1.03736)
(0.0200528 0.00951773 1.04211)
(0.020673 0.0114606 1.04004)
(0.0174201 0.00733771 1.04456)
(0.0184199 0.0092526 1.03733)
(0.0238051 0.0137033 1.04895)
(0.0274259 0.014225 1.05457)
(0.0359981 0.0294057 1.07097)
(0.0193515 0.0109555 1.04587)
(0.0229212 0.0134859 1.05206)
(0.032479 0.0168936 1.0478)
(0.021531 0.0137144 1.0462)
(0.0310806 0.015622 1.05276)
(0.0246976 0.0091055 1.04563)
(0.0173968 0.00632362 1.03001)
(0.0216685 0.0148531 1.03801)
(0.0194601 0.0119137 1.0352)
(0.0160991 0.009784 1.04298)
(0.0189474 0.00926743 1.03885)
(0.0186135 0.0108153 1.03721)
(0.0200668 0.0118779 1.03521)
(0.0185021 0.00927429 1.04885)
(0.0202158 0.0163272 1.04996)
(0.0295579 0.0145915 1.06029)
(0.0281044 0.0307027 1.07239)
(0.0255637 0.0180304 1.0433)
(0.0231936 0.0172285 1.0466)
(0.0306143 0.0168554 1.0496)
(0.0283489 0.0113464 1.06254)
(-0.386378 0.0081118 1.51941)
(-0.135165 0.032534 1.17471)
(-0.14625 -0.0253324 1.18223)
(-0.097408 -0.0920274 1.19722)
(-0.165342 -0.0444334 1.33337)
(-0.179058 0.0150813 1.21177)
(-0.149657 -0.00215858 1.24841)
(-0.130776 0.0341903 1.28766)
(-0.0633341 -0.00617152 1.05261)
(-0.0149424 -0.00738622 1.00744)
(-0.0255475 -0.0102531 1.02614)
(-0.0343519 -0.0153139 1.03375)
(-0.0381495 -0.0114852 1.02294)
(-0.0245118 -0.0111695 1.01016)
(-0.0391756 -0.0124077 1.02563)
(-0.0253446 -0.0168768 1.01797)
(-0.0380231 -0.0170964 1.05564)
(-0.0263884 -0.0120624 1.05368)
(-0.0250594 -0.00664368 1.0472)
(-0.0618067 -0.0284818 1.02647)
(-0.0367744 -0.0104893 1.06721)
(-0.0249567 -0.014213 1.0534)
(-0.00928994 -0.0327959 1.08477)
(-0.0152219 -0.0108065 1.06836)
(-0.0288905 -0.0360138 1.121)
(-0.0375772 -0.0192679 1.06945)
(-0.0544375 -0.00888969 1.01493)
(-0.0279341 -0.0223247 1.10875)
(-0.0295832 -0.0408134 1.11699)
(-0.0392241 -0.0212025 1.06566)
(-0.000519393 -0.0250575 1.10616)
(-0.012095 0.0150835 1.08683)
(-0.0918748 -0.012502 1.10157)
(-0.09749 -0.0153113 1.17783)
(-0.0702284 -0.0458732 1.17525)
(-0.0423116 -0.0226763 1.06433)
(-0.0962774 -0.0140729 1.10335)
(-0.0793077 0.00210947 1.13833)
(-0.0757868 -0.018319 1.0973)
(-0.0697663 -0.00632254 1.10912)
(-0.0778819 -0.00520478 1.06092)
(-0.0399011 -0.011756 1.03293)
(-0.0310357 -0.0150575 1.03555)
(-0.0659822 -0.0253254 1.09935)
(-0.064874 -0.00227607 1.07352)
(-0.045482 -0.0106081 1.03333)
(-0.0740575 -0.0176427 1.09395)
(-0.0379688 -0.0183936 1.05468)
(-0.0125122 -0.0211289 1.15303)
(-0.0185236 -0.00857167 1.15812)
(-0.042997 -0.0205527 1.06653)
(-0.0131971 -0.0201843 1.05801)
(-0.0167113 -0.019145 1.10711)
(-0.06262 0.0148806 1.12451)
(-0.0291012 -0.0284346 1.08852)
(-0.0353283 -0.015475 1.07632)
(-0.0544858 -0.00591912 1.12168)
(-0.0184004 0.0167504 1.05373)
(-0.0361322 -0.00765133 1.04152)
(-0.0266247 -0.0122492 1.04141)
(-0.0309165 -0.0148579 1.06885)
(-0.0412328 -0.0201019 1.05643)
(-0.042386 -0.0162319 1.05523)
(-0.0338675 -0.0104662 1.04495)
(0.00545693 -0.0154983 1.05335)
(-0.00111442 -0.0100865 1.03751)
(-0.001082 -0.0109937 1.05463)
(-0.000803901 -0.0147765 1.04571)
(-8.25787e-05 -0.014203 1.04294)
(-0.00339654 -0.00907533 1.0453)
(0.000412591 -0.012928 1.04586)
(-0.00443009 -0.0103001 1.04705)
(0.00373267 -0.00333222 1.02174)
(0.00454396 -0.00344684 1.02044)
(0.00813306 -0.00113615 1.02445)
(0.0082765 -0.00444298 1.02163)
(0.00578861 -0.00248883 1.01948)
(0.00566105 -0.00192622 1.02368)
(0.00679919 -0.00305851 1.02143)
(0.00694566 -0.00247049 1.02409)
(0.00725894 -0.0178583 1.05117)
(0.0141693 -0.00892174 1.03386)
(0.0113716 -0.0348734 1.07032)
(0.020524 -0.0196405 1.047)
(0.00662688 -0.0216575 1.04403)
(0.013567 -0.0133322 1.05582)
(0.0200986 -0.0282439 1.04912)
(0.0180303 -0.0346607 1.05993)
(0.00515283 -0.00941439 1.03633)
(0.00995777 -0.00786221 1.02374)
(0.0174251 -0.0171888 1.0412)
(0.0102805 -0.0241126 1.03976)
(0.0073251 -0.0139171 1.03577)
(0.00887181 -0.0103894 1.03704)
(0.0102078 -0.0227772 1.03789)
(0.0164801 -0.0203801 1.03972)
(0.00158464 -0.00889525 1.0273)
(0.00394359 -0.00652072 1.04604)
(0.0019653 -0.0123626 1.04274)
(0.00803 -0.00548791 1.02326)
(0.00200746 -0.0058368 1.0288)
(0.00358967 -0.0101482 1.03956)
(0.00567173 -0.00457391 1.02293)
(0.00680714 -0.00457028 1.04009)
(0.00310423 -0.00440018 1.02893)
(0.00697965 -0.00443886 1.02382)
(0.0111785 0.00053157 1.03119)
(0.00562947 -0.0078527 1.04017)
(0.00321774 -0.00541112 1.03172)
(0.0058245 -0.00378608 1.02721)
(0.00355291 -0.00661998 1.03078)
(0.00528022 -0.0044876 1.0264)
(0.00547481 -0.0148552 1.05058)
(0.000478255 -0.0177697 1.039)
(0.00925004 -0.00602297 1.0262)
(0.0146767 -0.0237555 1.04077)
(0.00981365 -0.00959642 1.04669)
(0.00873447 -0.0156541 1.04379)
(0.0115035 -0.0126457 1.03968)
(0.0117121 -0.00897324 1.03324)
(0.00886195 -0.0140074 1.04828)
(0.0193199 -0.0211697 1.04445)
(0.00832206 -0.00645961 1.02845)
(0.0120474 -0.00876196 1.03827)
(0.0134644 -0.0120978 1.03648)
(0.0115607 -0.00973499 1.03748)
(0.0071351 -0.0116945 1.0335)
(0.0116404 -0.00797052 1.02621)
(0.246293 0.0588317 1.91896)
(0.194901 0.277889 1.90167)
(0.317569 0.342254 1.94532)
(0.22018 0.146506 1.51131)
(0.213214 0.0642584 1.84246)
(0.313947 0.299819 2.00332)
(0.265692 0.309736 1.69575)
(0.298849 0.333328 1.78875)
(0.165481 0.38557 1.85058)
(0.117293 0.381553 1.73534)
(0.231868 0.331371 1.88319)
(0.253178 0.323961 1.67009)
(0.164513 0.418047 1.83279)
(0.216072 0.419429 1.89003)
(0.228239 0.463865 1.88308)
(0.262109 0.426914 1.90669)
(0.413072 0.334646 1.92409)
(0.296778 0.234301 1.84609)
(0.422934 0.142185 1.94844)
(0.379829 0.247252 1.72954)
(0.363496 0.283285 1.8591)
(0.368514 0.287411 1.85676)
(0.32534 0.318687 1.82913)
(0.354303 0.313716 1.91284)
(0.00416202 0.0445472 1.41336)
(0.104154 0.121676 1.51652)
(0.119241 0.134034 1.47669)
(0.00423245 0.0527514 1.23103)
(0.0220282 0.0472401 1.42425)
(0.0655677 0.0894904 1.45871)
(0.0471437 0.112592 1.41744)
(0.0311513 0.104908 1.44041)
(0.190087 0.31967 1.87291)
(0.308576 0.34804 1.96044)
(0.189477 0.140146 1.51971)
(0.210364 0.248657 1.57605)
(0.264257 0.428636 1.88982)
(0.269455 0.40537 1.80452)
(0.211502 0.275029 1.62447)
(0.177549 0.152927 1.52002)
(0.257541 0.412263 1.96648)
(0.231643 0.246888 1.62494)
(0.307579 0.355253 1.86654)
(0.346849 0.360787 1.91461)
(0.26785 0.431326 1.87936)
(0.245716 0.395881 1.85963)
(0.271813 0.363315 1.95565)
(0.261511 0.351543 1.9061)
(0.285235 0.405128 1.83107)
(0.080025 0.13768 1.45786)
(0.200237 0.244278 1.61116)
(0.142899 0.145574 1.59567)
(0.27753 0.233321 1.64372)
(0.15268 0.203944 1.53621)
(0.26525 0.214579 1.63589)
(0.213398 0.215778 1.58641)
(0.362716 0.408309 1.85056)
(0.18429 0.220469 1.64773)
(0.23555 0.286412 1.66677)
(0.365125 0.379572 1.84623)
(0.320902 0.376013 1.81792)
(0.240994 0.220085 1.64277)
(0.347043 0.401515 1.85712)
(0.299238 0.299565 1.70701)
(-0.191699 -0.0865755 1.90228)
(-0.18812 -0.24314 1.81406)
(-0.269154 -0.284285 1.82191)
(-0.204583 -0.14042 1.47378)
(-0.199063 -0.0685191 1.80849)
(-0.285644 -0.248957 1.90081)
(-0.337352 -0.231847 1.6509)
(-0.315298 -0.273652 1.65293)
(-0.205592 -0.361998 1.73546)
(-0.207249 -0.364925 1.64236)
(-0.328841 -0.311524 1.82901)
(-0.275366 -0.288799 1.63969)
(-0.238069 -0.420855 1.73407)
(-0.266543 -0.398379 1.75103)
(-0.302479 -0.461108 1.8383)
(-0.315134 -0.372761 1.81809)
(-0.453433 -0.311413 1.90172)
(-0.389382 -0.212279 1.84683)
(-0.522654 -0.0893681 1.95609)
(-0.478538 -0.195385 1.77765)
(-0.406966 -0.341781 1.92832)
(-0.433127 -0.27349 1.9045)
(-0.353539 -0.337077 1.8955)
(-0.472029 -0.198904 1.84562)
(-0.101352 -0.0612038 1.33831)
(-0.168285 -0.125596 1.43336)
(-0.16798 -0.0854225 1.45575)
(-0.0255768 -0.0429047 1.24728)
(-0.05614 -0.0184263 1.30839)
(-0.0964037 -0.0430971 1.3563)
(-0.01667 -0.0183996 1.31866)
(-0.0780067 -0.0713783 1.40367)
(-0.212754 -0.276562 1.75138)
(-0.2733 -0.318019 1.8549)
(-0.171415 -0.11845 1.49024)
(-0.221174 -0.202484 1.55007)
(-0.296718 -0.380927 1.79505)
(-0.292182 -0.329353 1.68953)
(-0.215921 -0.202842 1.56532)
(-0.183721 -0.11829 1.45738)
(-0.297928 -0.356168 1.87134)
(-0.255511 -0.22243 1.57102)
(-0.388625 -0.342111 1.8411)
(-0.382242 -0.338018 1.83494)
(-0.321729 -0.371094 1.7808)
(-0.304257 -0.410309 1.77408)
(-0.305279 -0.328423 1.86128)
(-0.346538 -0.385437 1.8721)
(-0.318232 -0.352061 1.77025)
(-0.110289 -0.111141 1.42076)
(-0.230653 -0.229616 1.56436)
(-0.0748838 -0.14095 1.53862)
(-0.307822 -0.210721 1.58787)
(-0.197078 -0.177416 1.45437)
(-0.253115 -0.203856 1.6)
(-0.247539 -0.206032 1.55214)
(-0.409092 -0.343923 1.78559)
(-0.345069 -0.215933 1.66361)
(-0.292024 -0.2509 1.64972)
(-0.405745 -0.343561 1.83156)
(-0.38928 -0.38095 1.79079)
(-0.296335 -0.196845 1.60966)
(-0.412482 -0.417956 1.88052)
(-0.323575 -0.249572 1.68342)
(0.00959184 0.0407112 1.09947)
(0.00603471 0.00844052 1.02885)
(0.0105735 0.0344435 1.08737)
(0.0166353 0.0109811 1.0556)
(0.0073531 0.0344399 1.07116)
(0.00512108 0.0193792 1.06256)
(0.0163036 0.0346584 1.07519)
(0.0150573 0.0238966 1.06352)
(0.00503831 0.000333177 1.02113)
(0.00559237 -0.000488843 1.01735)
(0.00515679 0.00455044 1.02394)
(0.00494417 0.0025402 1.01706)
(0.00500934 0.000699974 1.02146)
(0.00584008 0.00168649 1.01902)
(0.00618187 0.000986653 1.01953)
(0.00618735 0.00206999 1.02031)
(0.00946094 0.0221758 1.07178)
(0.00792517 0.0138546 1.04287)
(0.00946471 0.0293556 1.05886)
(0.0118874 0.0230491 1.04607)
(0.00875395 0.0146786 1.06178)
(0.00689164 0.0125447 1.05707)
(0.00795819 0.0235814 1.05186)
(0.007545 0.0245385 1.04761)
(0.0146591 0.00361526 1.02837)
(0.00571045 0.00292607 1.01764)
(0.0113547 0.0158411 1.03383)
(0.00940892 0.00805628 1.02472)
(0.0107493 0.00352388 1.02433)
(0.0099834 0.00396422 1.02374)
(0.00889231 0.00913798 1.02767)
(0.00855107 0.0105761 1.02555)
(0.00692934 0.00471124 1.0322)
(0.011094 0.0206407 1.06601)
(0.0101181 0.00214831 1.03762)
(0.00715821 0.00170049 1.02264)
(0.00760561 0.00656259 1.03208)
(0.0161408 0.0120769 1.04532)
(0.00382415 -0.00281977 1.02076)
(0.00962082 0.00311489 1.03412)
(0.00742067 0.00226242 1.02652)
(0.00746677 0.00251026 1.02077)
(0.00281665 0.00493381 1.0228)
(0.00628761 0.0156505 1.05822)
(0.0094484 0.00492845 1.03205)
(0.00835439 0.00324099 1.02475)
(0.00696524 0.00827331 1.03751)
(0.00806555 0.00754375 1.03297)
(0.0110543 0.0136261 1.06944)
(0.01311 0.00894415 1.04518)
(0.00725546 0.00340823 1.02064)
(0.00945312 0.0160698 1.03856)
(0.0128416 0.009673 1.0676)
(0.0138993 0.00255382 1.04097)
(0.0081947 0.00505821 1.0444)
(0.0138191 0.00264695 1.02953)
(0.0076384 0.0117495 1.0635)
(0.00809005 0.0175234 1.03495)
(0.00801574 0.00414695 1.02242)
(0.00447849 0.00587641 1.03431)
(0.00549605 0.00531331 1.05324)
(0.0105637 0.0054521 1.04742)
(0.00545701 0.00745081 1.03831)
(0.0110273 0.00398551 1.02847)
(0.0570715 0.00252009 1.01457)
(0.0386512 0.00709946 1.0004)
(0.145943 0.00982175 1.10207)
(0.0832845 0.0126012 1.08795)
(0.0530561 0.00893794 1.02129)
(0.0444006 0.00131758 1.01956)
(0.106032 0.0180403 1.05245)
(0.0887585 0.00119525 1.03432)
(0.023675 0.0062636 1.00065)
(0.0162696 0.00510531 1.00098)
(0.0513457 0.0080962 1.021)
(0.0306626 0.00157817 1.02308)
(0.0241637 0.00605005 1.00336)
(0.0232553 0.00333183 1.00452)
(0.0344623 0.0057676 1.01418)
(0.0336887 0.00257983 1.01253)
(0.291376 -0.032098 1.24574)
(0.124257 -0.00367351 1.13266)
(0.199624 -0.0664139 1.74361)
(0.147137 0.0634219 1.29251)
(0.232905 0.00530594 1.26226)
(0.24972 0.00265519 1.32735)
(0.188947 0.035153 1.28617)
(0.22265 0.0436456 1.30948)
(0.0439056 0.027357 1.12918)
(0.028416 -0.00313541 1.04897)
(0.0666107 0.0260704 1.18526)
(0.0183592 0.0385255 1.09746)
(0.0417038 0.0250565 1.11857)
(0.0426635 0.0234339 1.11301)
(0.0267759 0.0337614 1.12638)
(0.0332069 0.0306234 1.12047)
(0.0394529 0.00607721 1.00405)
(0.153285 0.00688375 1.09956)
(0.0827805 0.0130314 1.08841)
(0.0501195 0.00691246 1.04156)
(0.050259 0.0076937 1.01809)
(0.0779888 0.020064 1.04713)
(0.0495563 -0.00397403 1.03258)
(0.0809131 0.0150048 1.07057)
(0.0376274 0.00185642 1.01204)
(0.0526343 0.00212326 1.04174)
(0.103092 -0.00311492 1.05668)
(0.145081 0.00245668 1.11732)
(0.0523102 0.00790577 1.01744)
(0.048981 0.0062311 1.02637)
(0.0884857 0.00913651 1.04359)
(0.0934615 0.0109759 1.05077)
(0.158117 0.0263132 1.145)
(0.0826666 0.0310603 1.12196)
(0.0463616 0.0117786 1.04464)
(0.0844265 0.0235667 1.16288)
(0.146657 0.0015722 1.16208)
(0.0840229 0.0097674 1.09279)
(0.104997 0.0142572 1.15712)
(0.0467719 0.0463075 1.10665)
(0.178346 -0.00857936 1.12084)
(0.0828797 0.0342498 1.17743)
(0.0520715 0.0142628 1.04878)
(0.0993436 0.0146835 1.06966)
(0.108343 0.0622574 1.16636)
(0.0901542 0.0343075 1.18693)
(0.0793084 0.0191689 1.06618)
(0.054201 -0.0091861 1.08674)
(-0.0399255 0.0922818 1.16331)
(0.0574399 0.140642 1.32977)
(-0.0614716 0.0665348 1.19597)
(0.0959553 0.179135 1.4057)
(-0.0439412 0.0817678 1.15356)
(0.0103002 0.111735 1.28132)
(-0.0358602 0.094533 1.16528)
(-0.0123594 0.11764 1.2322)
(0.11449 0.0947616 1.25417)
(-0.00213985 0.0349224 1.02607)
(0.142754 0.163494 1.22486)
(-0.0219508 0.115502 1.0426)
(0.17649 0.123231 1.28574)
(0.110412 0.104981 1.12321)
(0.157306 0.1651 1.27967)
(0.130892 0.153137 1.18904)
(0.00838245 0.121386 1.24547)
(0.103452 0.17296 1.29971)
(0.0584763 0.154028 1.2974)
(0.116677 0.193215 1.35239)
(0.067001 0.123017 1.30023)
(0.0697047 0.151905 1.32263)
(0.0503884 0.153018 1.30592)
(0.0615704 0.160776 1.30784)
(0.215105 0.202178 1.41651)
(-0.0910495 0.0937226 1.08494)
(0.0914599 0.200077 1.38962)
(-0.072746 0.0754211 1.14524)
(0.219607 0.210843 1.48166)
(0.0698698 0.191205 1.27781)
(0.205124 0.192576 1.47387)
(0.123383 0.219135 1.39458)
(0.0824256 0.137666 1.31249)
(0.04713 0.105134 1.26201)
(0.12181 0.158878 1.44047)
(0.214249 0.181749 1.39328)
(0.0917355 0.125572 1.31277)
(0.0912814 0.131793 1.33204)
(0.202367 0.149576 1.35075)
(0.175935 0.168307 1.36565)
(0.0811754 0.118313 1.28965)
(0.103703 0.162504 1.2288)
(0.127248 0.135024 1.2679)
(0.0164776 0.111703 1.28177)
(0.0876593 0.0917772 1.29899)
(0.157061 0.113405 1.30875)
(0.0288798 0.117745 1.27718)
(0.122624 0.0974865 1.3021)
(0.0564364 0.142815 1.27411)
(0.110325 0.148957 1.41861)
(0.186547 0.176142 1.382)
(0.112139 0.179814 1.39601)
(0.113443 0.156188 1.38581)
(0.137467 0.135988 1.39184)
(0.164779 0.15251 1.3993)
(0.170488 0.154226 1.38053)
(0.0300708 0.120684 1.27232)
(0.111325 0.214938 1.37791)
(0.121423 0.225055 1.29064)
(0.0854405 0.167338 1.28094)
(0.0934576 0.140714 1.33762)
(0.135106 0.182127 1.34009)
(0.0763645 0.161729 1.324)
(0.124961 0.198418 1.31469)
(0.0373749 0.0337373 1.1116)
(0.0300567 0.0185685 1.08053)
(0.0268036 0.0229353 1.08509)
(0.0271103 0.0118536 1.07658)
(0.0394701 0.0254442 1.10229)
(0.0309731 0.0252604 1.08917)
(0.0306349 0.0238948 1.08586)
(0.0283045 0.020836 1.07878)
(0.0259833 0.0294457 1.08963)
(0.0212605 0.0498352 1.10299)
(0.0156052 0.039697 1.09935)
(0.0174525 0.0203626 1.06214)
(0.0212353 0.0323233 1.08804)
(0.0202046 0.045713 1.10156)
(0.0187192 0.0199145 1.07387)
(0.0145131 0.0390644 1.08774)
(0.0159727 0.0210117 1.07578)
(0.0140371 0.0223863 1.07991)
(0.0112805 0.0286912 1.06895)
(0.00846088 0.0209921 1.05106)
(0.015587 0.0212574 1.06374)
(0.0141616 0.0215372 1.06674)
(0.00924907 0.0226681 1.05884)
(0.00892562 0.0246415 1.0656)
(0.0175669 0.00750693 1.04154)
(0.0138795 0.00496303 1.03218)
(0.0107295 0.0138655 1.04133)
(0.0126418 0.00822927 1.02887)
(0.0143526 0.00687588 1.03806)
(0.0156424 0.00847295 1.03858)
(0.010018 0.00806286 1.03503)
(0.00962781 0.0101421 1.0373)
(0.0282087 0.0180702 1.0686)
(0.021987 0.0132164 1.06569)
(0.0250904 0.0121008 1.05785)
(0.0202082 0.00796463 1.04398)
(0.0250946 0.0116569 1.06147)
(0.024484 0.0119082 1.06621)
(0.0218403 0.010144 1.053)
(0.0219611 0.0117311 1.06304)
(0.0273274 0.0246363 1.08536)
(0.0198939 0.0099184 1.0586)
(0.0201245 0.0220575 1.08515)
(0.022194 0.0135581 1.0663)
(0.0217899 0.0214332 1.0765)
(0.0204363 0.0144215 1.06996)
(0.0208509 0.0172483 1.0825)
(0.0189099 0.0166722 1.08444)
(0.0151627 0.014299 1.06697)
(0.0178811 0.00892351 1.05196)
(0.0150846 0.00765127 1.0396)
(0.00957188 0.0147791 1.0458)
(0.0185137 0.013735 1.0581)
(0.0159206 0.0110285 1.05488)
(0.0148114 0.0128688 1.0537)
(0.0133768 0.0101102 1.04658)
(0.0157927 0.0155833 1.06587)
(0.00807657 0.0141412 1.05029)
(0.0137411 0.0121906 1.05918)
(0.0125047 0.0216771 1.08207)
(0.0157873 0.0147514 1.0573)
(0.0147229 0.0128025 1.05143)
(0.0138389 0.0152842 1.07257)
(0.0112609 0.011507 1.07217)
(0.399553 -0.0541222 1.65648)
(0.203343 0.15112 1.72418)
(0.314776 0.00621033 1.6134)
(0.491444 0.235731 1.76792)
(0.365926 0.151911 1.77522)
(0.371207 0.162718 1.70489)
(0.369783 0.145215 1.70637)
(0.369902 0.150057 1.67033)
(0.193315 0.188296 1.67786)