/*--------------------------------*- C++ -*----------------------------------*\
| =========                 |                                                 |
| \\      /  F ield         | OpenFOAM: The Open Source CFD Toolbox           |
|  \\    /   O peration     | Version:  2506                                  |
|   \\  /    A nd           | Website:  www.openfoam.com                      |
|    \\/     M anipulation  |                                                 |
\*---------------------------------------------------------------------------*/
FoamFile
{
    version     2.0;
    format      ascii;
    arch        "LSB;label=32;scalar=64";
    class       volScalarField;
    location    "2000";
    object      p;
}
// * * * * * * * * * * * * * * * * * * * * * * * * * * * * * * * * * * * * * //

dimensions      [0 2 -2 0 0 0 0];

internalField   nonuniform List<scalar> 
57600
(
-0.0211092
-0.0643772
-0.0466992
-0.0513427
-0.0376147
-0.0478243
-0.0449339
-0.0564392
-0.178332
-0.535074
-0.140107
-0.194295
-0.203166
-0.234377
-0.197881
-0.193342
-0.0552004
-0.0963562
-0.049125
-0.0699283
-0.0831092
-0.083461
-0.063777
-0.0583114
-0.0847714
-0.116058
-0.0599808
-0.0846678
-0.090334
-0.0924603
-0.0734234
-0.0762959
-0.0946397
-0.0657862
-0.0744714
-0.132309
-0.106698
-0.0750479
-0.11321
-0.0852712
-0.100901
-0.158569
-0.158308
-0.0666027
-0.129427
-0.130313
-0.100305
-0.134324
-0.0578611
-0.0760492
-0.117802
-0.0571171
-0.0747945
-0.0898939
-0.07841
-0.0877469
-0.0620332
-0.0737751
-0.113461
-0.120035
-0.081095
-0.0871352
-0.106407
-0.094334
-0.00345365
-0.0205683
7.17472e-05
-0.0229742
-0.00850442
-0.0104263
-0.0110244
-0.0106404
-0.045027
-0.0627952
-0.0802266
-0.0587043
-0.053059
-0.0613814
-0.0674612
-0.0794692
-0.0310273
-0.184373
-0.374984
-0.109684
-0.0658497
-0.07693
-0.0997434
-0.128839
-0.0484898
-0.0763214
-0.0855856
-0.0668669
-0.0620891
-0.0730723
-0.0712059
-0.0870465
-0.0315722
-0.0162322
-0.0294951
-0.0606147
-0.040666
-0.0294861
-0.0449135
-0.0391736
-0.037679
-0.0667595
-0.074451
-0.0285656
-0.046022
-0.0618425
-0.040908
-0.0697886
-0.0310406
-0.0389078
-0.0703609
-0.0916492
-0.0543463
-0.045682
-0.0751886
-0.0635323
-0.0362675
-0.116763
-0.0647425
-0.0971103
-0.0823164
-0.0960056
-0.091433
-0.108337
-0.011928
-0.0157874
-0.0589622
-0.047245
-0.0253929
-0.0279085
-0.046643
-0.048158
-0.0192309
-0.0103002
-0.0846368
-0.0900315
-0.0409774
-0.0393623
-0.0893917
-0.0888636
-0.166697
-0.250292
-0.494683
-0.206768
-0.203045
-0.263058
-0.258822
-0.249604
-0.0800049
-0.106613
-0.132433
-0.0910191
-0.0928773
-0.118187
-0.106372
-0.116783
-0.031268
-0.0705592
-0.0614931
-0.0899274
-0.0667082
-0.0645308
-0.0652814
-0.0758057
-0.0287187
-0.108048
-0.114915
-0.0869508
-0.0654509
-0.0790908
-0.0822714
-0.111461
-0.123625
-0.0964183
-0.129564
-0.167381
-0.11215
-0.100421
-0.136355
-0.113902
-0.0974045
-0.188149
-0.135379
-0.18734
-0.160133
-0.18559
-0.177311
-0.171811
-0.502521
-0.164089
-0.170681
-0.206261
-0.199954
-0.235848
-0.225098
-0.204838
-0.073854
-0.039024
-0.0583749
-0.0569226
-0.0492181
-0.0453763
-0.055581
-0.0429004
-0.0692741
-0.0448145
-0.0238525
-0.0514896
-0.0545632
-0.041088
-0.0369286
-0.026749
-0.136602
-0.0627561
-0.0714263
-0.0749723
-0.0719906
-0.0749209
-0.0779626
-0.0727967
-0.115441
-0.126282
-0.112958
-0.0746573
-0.117229
-0.151708
-0.0889883
-0.11872
-0.10709
-0.0760421
-0.0650221
-0.0968291
-0.0978449
-0.075934
-0.0914251
-0.0740518
-0.111337
-0.131761
-0.0728083
-0.0742525
-0.0987053
-0.111111
-0.0831773
-0.0869514
-0.0717757
-0.0576122
-0.0649507
-0.0459125
-0.0769857
-0.0683206
-0.0621223
-0.0594761
-0.0161165
-0.0342045
-0.0124418
-0.0459799
-0.032273
-0.029365
-0.0288347
-0.0271174
-0.0470478
-0.0474945
-0.0408471
-0.0543356
-0.0508758
-0.0498415
-0.0529956
-0.0491924
-0.00873271
-0.0244054
-0.00775965
-0.0295432
-0.0202066
-0.0179811
-0.0176966
-0.0172851
-0.0715221
-0.06081
-0.0529712
-0.0784186
-0.0746075
-0.065986
-0.0688419
-0.0638753
-0.0551369
-0.023951
-0.0572083
-0.0661747
-0.04753
-0.0368932
-0.0591108
-0.0524662
-0.0533889
-0.0618383
-0.0351365
-0.0213106
-0.046134
-0.0516302
-0.0319631
-0.0386468
-0.0246148
-0.0556576
-0.0615411
-0.0419475
-0.0368504
-0.0504826
-0.0431115
-0.058372
-0.0230602
-0.0410291
-0.0582502
-0.0358285
-0.0295128
-0.0382446
-0.0369208
-0.0464051
-0.0184917
-0.0740873
-0.0287937
-0.0897835
-0.0572354
-0.0590176
-0.0597938
-0.0587751
-0.0879968
-0.0836522
-0.0695315
-0.0756639
-0.0873198
-0.086767
-0.0880028
-0.0835639
-0.0195212
-0.046591
-0.0195742
-0.0540184
-0.0439407
-0.0430667
-0.0381814
-0.038561
-0.0978149
-0.0818973
-0.0904072
-0.10839
-0.0798594
-0.077747
-0.0791948
-0.0733696
-0.0998521
-0.0479708
-0.0891894
-0.0888129
-0.10097
-0.0745023
-0.0961726
-0.0866403
-0.103973
-0.0859577
-0.0719219
-0.053547
-0.0861386
-0.090242
-0.0534777
-0.0773227
-0.0489701
-0.086582
-0.0802777
-0.0678284
-0.0811903
-0.0787474
-0.0721467
-0.0801881
-0.0522601
-0.0630527
-0.0766802
-0.0659457
-0.0646747
-0.0689505
-0.0675849
-0.0688002
-0.0466233
-0.0391775
-0.0532208
-0.0408412
-0.0461531
-0.0516061
-0.0461742
-0.0507621
-0.027494
-0.0103511
-0.0335637
-0.0259956
-0.0227918
-0.0207524
-0.0295407
-0.0258847
-0.0598559
-0.0490057
-0.0675965
-0.0518262
-0.0615433
-0.0671812
-0.0590065
-0.0629361
-0.0340193
-0.0273745
-0.0393826
-0.0285686
-0.0341771
-0.0389556
-0.0332399
-0.0385774
-0.0340143
-0.0522476
-0.0397368
-0.0308051
-0.0371875
-0.0455116
-0.0321301
-0.042962
-0.0357625
-0.0331644
-0.0400231
-0.0592658
-0.0355507
-0.0349579
-0.0445835
-0.0370298
-0.050394
-0.039431
-0.0328518
-0.0446115
-0.0440909
-0.0440012
-0.0459547
-0.0408737
-0.0593454
-0.0502652
-0.0327588
-0.0379358
-0.0554454
-0.0512561
-0.0444552
-0.0347384
-0.371808
-0.0368943
-0.191099
-0.173295
-0.0479282
-0.0912722
-0.272405
-0.110897
-0.00552454
-0.000213753
-0.0199292
-0.0202655
0.0028214
0.000812441
-0.0148391
-0.00979973
-0.0775941
-0.0423705
-0.0529629
-0.056331
-0.0525139
-0.050236
-0.0693967
-0.0498401
-0.103058
-0.0501905
-0.0724861
-0.0758396
-0.0816551
-0.0691149
-0.103697
-0.0579848
-0.015608
-0.0584367
-0.108331
-0.0339526
-0.0473104
-0.0681469
-0.0505725
-0.0775719
-0.0143423
-0.0278425
-0.0255105
-0.0710329
-0.0273924
-0.0211916
-0.0517869
-0.030268
-0.141873
-0.13432
-0.0513577
-0.0841509
-0.0936629
-0.100517
-0.0692395
-0.0625475
-0.0838768
-0.0599089
-0.0383413
-0.035181
-0.0508717
-0.0637004
-0.049535
-0.0471332
-0.0369341
-0.0259811
-0.0266995
-0.0274614
-0.0302367
-0.025859
-0.0290777
-0.0239316
-0.0208584
-0.0189929
-0.0167525
-0.0203744
-0.0199892
-0.0191032
-0.0196133
-0.0187713
-0.0150128
-0.0119757
-0.00578788
-0.0119772
-0.013903
-0.0106509
-0.0105957
-0.00728456
-0.0236209
-0.0209553
-0.0176939
-0.0235989
-0.0218021
-0.0197929
-0.0209152
-0.0192109
-0.0225266
-0.0217736
-0.0241284
-0.0202323
-0.0219508
-0.0236994
-0.0220173
-0.0216334
-0.0205671
-0.0194612
-0.0161321
-0.0194605
-0.0198942
-0.0198781
-0.0199805
-0.0181058
-0.0195592
-0.023313
-0.0203269
-0.0158736
-0.0200916
-0.0202081
-0.0181486
-0.020727
-0.0166523
-0.0135256
-0.0197193
-0.0145843
-0.0162367
-0.0153221
-0.0162117
-0.0174184
-0.384609
-0.550045
-0.419405
-0.207174
-0.303949
-0.469886
-0.394023
-0.636734
-0.547644
-0.519958
-0.593224
-0.385869
-0.376193
-0.487023
-0.306043
-0.433989
-0.381375
-0.584749
-0.593369
-0.30311
-0.174922
-0.607875
-0.648506
-0.685687
-0.1339
-0.192365
-0.221086
-0.107062
-0.158123
-0.198287
-0.155878
-0.179892
-0.306133
-0.203218
-0.185985
-0.233645
-0.256592
-0.161501
-0.271338
-0.312261
-0.502617
-0.393776
-0.593955
-0.58894
-0.476121
-0.150208
-0.599977
-0.108195
-0.540436
-0.203388
-0.22221
-0.266269
-0.271586
-0.213567
-0.198355
-0.170898
-0.495425
-0.200171
-0.225553
-0.432691
-0.288918
-0.356664
-0.409886
-0.323306
-0.546608
-0.516879
-0.374403
-0.180969
-0.25286
-0.423688
-0.490855
-0.537905
-0.451859
-0.311789
-0.503961
-0.320208
-0.231205
-0.309495
-0.35557
-0.296875
-0.343606
-0.462634
-0.338528
-0.227808
-0.289204
-0.507501
-0.447402
-0.438412
-0.144696
-0.182471
-0.175991
-0.115898
-0.145477
-0.186354
-0.184087
-0.148561
-0.281255
-0.248704
-0.145838
-0.189584
-0.329168
-0.238395
-0.254892
-0.258981
-0.428055
-0.332221
-0.517459
-0.533767
-0.496159
-0.240061
-0.533986
-0.169928
-0.474566
-0.219852
-0.227124
-0.335891
-0.2283
-0.199853
-0.125114
-0.15929
-0.437302
-0.239559
-0.177364
-0.459078
-0.292272
-0.306168
-0.360946
-0.301046
-0.00645542
-0.0130558
-0.0155471
-0.0158609
-0.0111215
-0.0132784
-0.0139862
-0.0152798
-0.0177857
-0.0195464
-0.0197863
-0.0204161
-0.0188778
-0.019536
-0.0197624
-0.0195563
-0.0246564
-0.0225041
-0.0309806
-0.0265696
-0.0244982
-0.0250406
-0.0275733
-0.0269984
-0.022713
-0.0230965
-0.0250052
-0.02647
-0.0237531
-0.0240263
-0.0260604
-0.0252501
-0.0164638
-0.0184035
-0.0202167
-0.020806
-0.0187935
-0.0182219
-0.0203039
-0.0209657
-0.0181624
-0.021142
-0.0210796
-0.0204238
-0.0190888
-0.0195496
-0.0196089
-0.0202497
-0.022666
-0.0217211
-0.0222214
-0.0255921
-0.0226647
-0.0212798
-0.0243938
-0.0223224
-0.0233054
-0.0248474
-0.0220786
-0.0217561
-0.0234663
-0.0240463
-0.0221044
-0.0214696
0.108349
0.0522755
0.100425
0.0138565
0.0623909
0.0717059
0.0501392
0.0601333
0.0253468
0.00569802
0.0200728
-0.0124634
0.0113171
0.0149989
0.00382268
0.00775949
-0.0235574
-0.00449138
-0.182703
-0.138122
-0.0926911
-0.0757519
-0.139932
-0.209499
-0.0584172
-0.0390404
-0.085689
-0.069549
-0.0658966
-0.0559261
-0.0770571
-0.0791238
0.0336924
0.0225181
-0.0206061
-0.0210861
0.0243838
0.0268889
-0.000420899
-0.00893812
0.0367053
-0.0194093
0.0202869
0.0435708
0.0269482
0.005631
0.0456331
0.0158109
0.00121552
-0.0420175
-0.0324284
-0.114904
-0.0688173
-0.0462821
-0.0927707
-0.056636
0.000102804
-0.133444
-0.0374587
-0.0091941
-0.0474982
-0.084801
-0.00681803
-0.0383269
-0.0308742
-0.0777876
-0.0241793
-0.0897336
-0.07719
-0.077028
-0.0773752
-0.0709115
-0.0931478
-0.0810745
-0.0706198
-0.0785966
-0.0844935
-0.0822725
-0.076197
-0.0739503
-0.0235981
-0.0459102
-0.0162181
-0.0530354
-0.0454592
-0.0441019
-0.0365541
-0.0359024
-0.10084
-0.0884624
-0.0754874
-0.0934237
-0.0903683
-0.0869476
-0.0844507
-0.080688
-0.103604
-0.055522
-0.101122
-0.0966503
-0.103725
-0.0871789
-0.096785
-0.0972717
-0.10512
-0.0925158
-0.0778716
-0.056784
-0.0911156
-0.0982155
-0.0602143
-0.0829816
-0.0493435
-0.0949699
-0.0915683
-0.0625082
-0.0789063
-0.0867453
-0.0719653
-0.0835698
-0.0521684
-0.0612541
-0.0836953
-0.0673645
-0.0640665
-0.0704953
-0.067526
-0.0698037
-0.00784589
-0.00701928
-0.019806
-0.0232702
-0.0112457
-0.00964612
-0.0184699
-0.0174298
-0.00585942
-0.00562898
-0.0152356
-0.0157526
-0.00795627
-0.00717549
-0.0125629
-0.0119614
-0.0278966
-0.0246615
-0.0340463
-0.0314905
-0.0290645
-0.0285259
-0.0312846
-0.0314846
-0.0276699
-0.0235839
-0.0286703
-0.0284717
-0.0262614
-0.0252784
-0.0273321
-0.0261275
-0.00900932
-0.0220828
-0.0230791
-0.019036
-0.0152983
-0.019447
-0.0189518
-0.021631
-0.00798915
-0.0182838
-0.0175802
-0.0204728
-0.0142839
-0.0161732
-0.0165992
-0.0185
-0.0271368
-0.0264296
-0.0215424
-0.0284704
-0.0280342
-0.0248965
-0.0274584
-0.0250826
-0.0263473
-0.0276646
-0.0202944
-0.0225287
-0.025847
-0.0265409
-0.0233094
-0.0240892
-0.27117
-0.41449
-0.560118
-0.357144
-0.493314
-0.343742
-0.399045
-0.394245
-0.359064
-0.490617
-0.546659
-0.321994
-0.388264
-0.479207
-0.47105
-0.411814
-0.480173
-0.474601
-0.500962
-0.289647
-0.403867
-0.494862
-0.43052
-0.389036
-0.232483
-0.187697
-0.194752
-0.107429
-0.18597
-0.254822
-0.149359
-0.163541
-0.395507
-0.410674
-0.214632
-0.268484
-0.482605
-0.366595
-0.225657
-0.314753
-0.444302
-0.307848
-0.530558
-0.548295
-0.433457
-0.366731
-0.560797
-0.403384
-0.339273
-0.320278
-0.276467
-0.194208
-0.36253
-0.271282
-0.256986
-0.20636
-0.378213
-0.243626
-0.231448
-0.388042
-0.287114
-0.366431
-0.341282
-0.315446
-0.308993
-0.370426
-0.476464
-0.285809
-0.366402
-0.338398
-0.294821
-0.351702
-0.425615
-0.440939
-0.322947
-0.165194
-0.361074
-0.431182
-0.260083
-0.322278
-0.308806
-0.268885
-0.326264
-0.194011
-0.340128
-0.35252
-0.247185
-0.39024
-0.170085
-0.105666
-0.17948
-0.118073
-0.153577
-0.190276
-0.130422
-0.161679
-0.380904
-0.320969
-0.269743
-0.189605
-0.254044
-0.187686
-0.250038
-0.330448
-0.385169
-0.247171
-0.331709
-0.41662
-0.338938
-0.223765
-0.308917
-0.317395
-0.221392
-0.162626
-0.20849
-0.175665
-0.243373
-0.229468
-0.229892
-0.147059
-0.365547
-0.240229
-0.205024
-0.285332
-0.201399
-0.261544
-0.224524
-0.174631
-0.525472
-0.154295
-0.194894
-0.25819
-0.237331
-0.177914
-0.221507
-0.1941
-0.0441429
-0.0152534
-0.0145698
-0.0452807
-0.04206
-0.0266399
-0.0352047
-0.02907
-0.111155
-0.027592
-0.0346778
-0.0826856
-0.0751249
-0.0502483
-0.0780005
-0.0507829
-0.15134
-0.0791718
-0.0976108
-0.0857698
-0.0996247
-0.089495
-0.0941782
-0.0908263
-0.0994012
-0.145962
-0.146714
-0.0742265
-0.0992112
-0.157322
-0.0982462
-0.127411
-0.0771609
-0.0627007
-0.0450613
-0.106988
-0.0819636
-0.0648408
-0.0830329
-0.0510748
-0.144137
-0.135464
-0.0804863
-0.105632
-0.130283
-0.124825
-0.107422
-0.105417
-0.112518
-0.082767
-0.0634816
-0.0357856
-0.0865986
-0.0857108
-0.0531995
-0.065035
-0.0075907
-0.0134941
-0.0171181
-0.0163487
-0.0102361
-0.0124455
-0.0142366
-0.0156108
-0.0181078
-0.0196252
-0.0209828
-0.0198646
-0.0188579
-0.0199215
-0.0202904
-0.0201895
-0.0271376
-0.0259421
-0.0353618
-0.0296036
-0.0272324
-0.0283242
-0.0314843
-0.0317066
-0.0225826
-0.0219004
-0.0253125
-0.0230607
-0.0236932
-0.0239268
-0.0250788
-0.0242686
-0.0160667
-0.019026
-0.0186243
-0.0209481
-0.0182606
-0.0180391
-0.0188899
-0.0199799
-0.0176597
-0.0214307
-0.0219312
-0.0211314
-0.0189873
-0.0204991
-0.0208911
-0.0206645
-0.0242315
-0.0218445
-0.022248
-0.0278497
-0.0245629
-0.0224577
-0.0251708
-0.0232554
-0.0253648
-0.0273909
-0.0222163
-0.0242137
-0.0253315
-0.0256293
-0.0240143
-0.0234161
-0.00860274
-0.0221563
-0.00817417
-0.0224905
-0.0154979
-0.0137949
-0.0156604
-0.0140252
-0.0354382
-0.0450921
-0.0354613
-0.0400876
-0.0401005
-0.0404648
-0.0386757
-0.0396245
-0.00776021
-0.0218069
-0.00735525
-0.0200804
-0.0151939
-0.0142503
-0.015349
-0.0144634
-0.028807
-0.0340367
-0.0278963
-0.0301777
-0.0323048
-0.0308384
-0.0314509
-0.0300478
-0.0311618
-0.0158782
-0.0299845
-0.035735
-0.0304796
-0.0213823
-0.0312861
-0.0269589
-0.0285919
-0.0345445
-0.0284194
-0.0141574
-0.0286501
-0.0325762
-0.0214125
-0.0289673
-0.015881
-0.028752
-0.0345816
-0.0262118
-0.0207285
-0.0265569
-0.0268247
-0.0300563
-0.0144983
-0.0252939
-0.0334715
-0.0281616
-0.0209126
-0.0258887
-0.0283578
-0.0304454
-0.0461338
-0.115942
-0.125066
-0.0954722
-0.0990704
-0.090416
-0.0818929
-0.107585
-0.268946
-0.787399
-0.701557
-0.324634
-0.333511
-0.610675
-0.358442
-0.50426
-0.287918
-0.703874
-0.691865
-0.308064
-0.311963
-0.544831
-0.310195
-0.474617
-0.142188
-0.182801
-0.181324
-0.114352
-0.128481
-0.170806
-0.121538
-0.134794
-0.191036
-0.191765
-0.130543
-0.191456
-0.189406
-0.168538
-0.194239
-0.176213
-0.236936
-0.277434
-0.556388
-0.224922
-0.230341
-0.259009
-0.276073
-0.333699
-0.184264
-0.127767
-0.198535
-0.211994
-0.195422
-0.16135
-0.19878
-0.180468
-0.261675
-0.223302
-0.231173
-0.498671
-0.254688
-0.288662
-0.370082
-0.33233
-0.918438
-0.472976
-0.478167
-0.127044
-0.335356
-0.513432
-0.292029
-0.343824
-0.418067
-0.356842
-0.329145
-0.215436
-0.323609
-0.34338
-0.289615
-0.337958
-0.421637
-0.348542
-0.339597
-0.263578
-0.302939
-0.348052
-0.32272
-0.343597
-0.092743
-0.107845
-0.0971771
-0.0676483
-0.0885539
-0.0887698
-0.10934
-0.0943349
-0.350614
-0.371286
-0.175621
-0.169267
-0.240034
-0.247015
-0.174149
-0.198912
-0.367387
-0.230179
-0.331576
-0.423347
-0.307157
-0.289608
-0.43513
-0.318855
-0.33743
-0.166816
-0.129527
-0.203343
-0.13381
-0.178675
-0.19386
-0.124136
-0.321806
-0.185785
-0.168691
-0.340531
-0.350297
-0.225659
-0.315833
-0.24758
-0.33954
-0.362482
-0.337493
-0.20305
-0.317792
-0.315257
-0.272173
-0.322685
-0.398353
-0.499378
-0.440886
-0.278708
-0.349488
-0.425281
-0.329562
-0.385854
-0.3516
-0.371305
-0.34244
-0.235988
-0.304627
-0.369871
-0.264075
-0.333362
-0.119747
-0.121735
-0.0945157
-0.0709558
-0.109107
-0.122647
-0.0978781
-0.109415
-0.331231
-0.32018
-0.195235
-0.187489
-0.26701
-0.274419
-0.26536
-0.250694
-0.346315
-0.279254
-0.387211
-0.361779
-0.337824
-0.300778
-0.377645
-0.30435
-0.313499
-0.1279
-0.141976
-0.180678
-0.22848
-0.205423
-0.216788
-0.151384
-0.322866
-0.236722
-0.18809
-0.3173
-0.292374
-0.288035
-0.333088
-0.281361
-0.917968
-0.67424
-0.473992
-0.212817
-0.489179
-0.587264
-0.481621
-0.416129
-0.524791
-0.477159
-0.445734
-0.263448
-0.399161
-0.437191
-0.31355
-0.398294
-0.377975
-0.421921
-0.432634
-0.346043
-0.367004
-0.394339
-0.268266
-0.414597
-0.0932768
-0.130215
-0.216487
-0.122674
-0.133532
-0.144535
-0.115049
-0.13842
-0.434845
-0.381935
-0.184982
-0.210077
-0.419909
-0.361468
-0.248187
-0.275709
-0.49529
-0.287546
-0.480553
-0.52135
-0.409079
-0.314972
-0.549006
-0.397093
-0.231896
-0.137319
-0.105815
-0.121091
-0.172176
-0.235361
-0.251744
-0.153118
-0.383938
-0.245214
-0.201143
-0.418793
-0.316804
-0.302886
-0.241003
-0.288694
-0.329044
-0.146595
-0.442862
-0.149066
-0.252903
-0.338469
-0.256924
-0.283635
-0.0604419
-0.0604934
-0.125238
-0.0569111
-0.0826139
-0.106684
-0.0928371
-0.0992542
-0.417458
-0.246061
-0.525132
-0.268921
-0.311481
-0.349676
-0.312983
-0.349671
-0.102878
-0.0863243
-0.148038
-0.0771886
-0.110029
-0.128615
-0.112147
-0.142064
-0.159014
-0.291347
-0.176205
-0.113449
-0.173037
-0.180481
-0.34787
-0.177961
-0.198127
-0.105907
-0.14888
-0.28048
-0.181128
-0.0656612
-0.30451
-0.164716
-0.321822
-0.159666
-0.0981483
-0.166559
-0.225197
-0.200683
-0.170936
-0.159159
-0.286275
-0.20672
-0.115334
-0.154843
-0.250557
-0.193328
-0.185239
-0.14519
-0.685464
-0.526435
-0.444677
-0.166384
-0.36652
-0.551683
-0.289619
-0.336314
-0.468698
-0.41951
-0.362839
-0.249299
-0.320808
-0.404789
-0.201025
-0.328013
-0.352016
-0.351958
-0.355241
-0.307408
-0.25183
-0.342057
-0.15786
-0.277416
-0.109781
-0.129445
-0.176704
-0.123325
-0.142663
-0.140553
-0.112388
-0.149335
-0.318773
-0.315659
-0.184669
-0.201172
-0.215399
-0.203631
-0.182339
-0.237223
-0.456755
-0.268775
-0.357739
-0.422239
-0.324147
-0.21861
-0.419639
-0.294535
-0.167576
-0.135384
-0.0972739
-0.0970892
-0.218363
-0.200361
-0.222664
-0.117352
-0.301635
-0.210218
-0.182037
-0.327947
-0.237735
-0.301557
-0.23433
-0.278173
-0.455958
-0.424232
-0.52513
-0.359089
-0.383845
-0.478267
-0.490301
-0.412218
-0.465413
-0.448796
-0.398532
-0.220086
-0.372433
-0.46813
-0.307422
-0.387539
-0.526016
-0.448654
-0.480479
-0.303005
-0.380835
-0.483885
-0.346173
-0.429474
-0.225167
-0.134123
-0.166504
-0.111017
-0.137885
-0.197441
-0.102706
-0.162604
-0.334412
-0.379643
-0.25356
-0.21198
-0.43434
-0.433665
-0.286269
-0.296448
-0.456565
-0.285601
-0.405564
-0.462829
-0.391479
-0.287325
-0.431292
-0.374118
-0.374799
-0.171024
-0.192787
-0.182104
-0.330643
-0.269703
-0.252764
-0.217494
-0.433453
-0.290853
-0.180993
-0.349331
-0.392748
-0.32276
-0.340439
-0.308825
-0.362279
-0.349027
-0.393189
-0.319923
-0.276861
-0.384569
-0.242896
-0.319946
-0.375441
-0.389827
-0.302248
-0.185605
-0.306471
-0.354204
-0.310121
-0.330536
-0.400428
-0.310406
-0.357948
-0.204857
-0.324956
-0.34536
-0.375234
-0.349251
-0.19187
-0.131037
-0.0900046
-0.123662
-0.140888
-0.117409
-0.150366
-0.155675
-0.280513
-0.271295
-0.210981
-0.226819
-0.287465
-0.262305
-0.256749
-0.287358
-0.379044
-0.240774
-0.319723
-0.404368
-0.330359
-0.30826
-0.347816
-0.3043
-0.260843
-0.192483
-0.271791
-0.224463
-0.267002
-0.230818
-0.232037
-0.304135
-0.345012
-0.245745
-0.193102
-0.307068
-0.330414
-0.215174
-0.299701
-0.312288
-0.0128969
-0.0286069
-0.025261
-0.0263445
-0.0193847
-0.0237844
-0.0220978
-0.0258021
-0.0518887
-0.0666588
-0.0569683
-0.0484681
-0.0525607
-0.0591235
-0.0507011
-0.0581248
-0.0364942
-0.049416
-0.0417158
-0.036169
-0.0383051
-0.0447054
-0.0374666
-0.042931
-0.0319009
-0.0352978
-0.0303733
-0.0277679
-0.0304726
-0.0330501
-0.0285115
-0.0303045
-0.0374145
-0.0303928
-0.0293139
-0.0393501
-0.0388842
-0.0318576
-0.0403265
-0.033705
-0.0423119
-0.0431238
-0.0496949
-0.0348782
-0.0442265
-0.0456731
-0.0453504
-0.0437005
-0.0321543
-0.0306842
-0.0379836
-0.0324586
-0.033315
-0.0332275
-0.0342079
-0.0343163
-0.0363355
-0.0351254
-0.0404121
-0.0474268
-0.0398537
-0.0380808
-0.0434446
-0.0415803
-0.189076
-0.0543203
-0.378843
-0.228762
-0.138681
-0.322281
-0.217153
-0.235041
-0.0638281
-0.0517927
-0.079624
-0.0659339
-0.0820905
-0.0829981
-0.0712202
-0.091572
-0.370955
-0.172853
-0.380974
-0.27135
-0.245053
-0.202795
-0.262958
-0.281387
-0.0995038
-0.0708674
-0.149416
-0.0894539
-0.105203
-0.116781
-0.12458
-0.112894
-0.106763
-0.250685
-0.124554
-0.0883361
-0.120046
-0.0704877
-0.0912968
-0.184639
-0.147294
-0.119048
-0.117467
-0.189317
-0.164011
-0.0771437
-0.138097
-0.141665
-0.240733
-0.162083
-0.168798
-0.169121
-0.227898
-0.152443
-0.12934
-0.133407
-0.241603
-0.165598
-0.154894
-0.173268
-0.194716
-0.12793
-0.193625
-0.339466
-0.0102441
-0.0585659
-0.0144609
-0.0478813
-0.0392762
-0.0362762
-0.0445881
-0.0426706
-0.164284
-0.472526
-0.213771
-0.198489
-0.26221
-0.253922
-0.267621
-0.268168
-0.0295031
-0.100337
-0.0232998
-0.0927466
-0.0663462
-0.0413201
-0.0754745
-0.0518729
-0.0614083
-0.106911
-0.0872466
-0.0693671
-0.0780085
-0.0891867
-0.0742602
-0.0860416
-0.100009
-0.0561487
-0.0674518
-0.133252
-0.0998042
-0.0598055
-0.0911239
-0.0679819
-0.106516
-0.173386
-0.127544
-0.0507094
-0.110517
-0.162169
-0.0645228
-0.136072
-0.0554046
-0.0644865
-0.121939
-0.095261
-0.0580817
-0.0744328
-0.0948363
-0.100859
-0.054164
-0.103821
-0.159308
-0.142029
-0.0666597
-0.10109
-0.137482
-0.163854
0.0837327
0.0674126
0.0482215
3.92885e-05
0.0613158
0.072013
0.0382044
0.0476823
-0.0132202
-0.21503
-0.0157414
-0.12919
-0.0749772
-0.0532503
-0.04772
-0.0491733
0.019821
0.0160086
0.00438553
-0.0127492
0.0104311
0.0140911
-0.00142047
0.00278549
-0.0466161
-0.0768086
-0.0365692
-0.0544401
-0.0555866
-0.0561417
-0.0448125
-0.0466142
0.0168606
0.0311393
-0.0259353
-0.0814447
0.0126083
0.0263025
-0.0440746
-0.0192063
0.0316757
-0.0802813
0.0174616
0.0373828
0.0207319
-0.0117971
0.038927
0.00892974
0.013037
-0.0241574
-0.0524801
-0.0255773
-0.00643482
-0.0226864
-0.0252746
-0.0411505
0.0198278
-0.0241118
-0.0566535
0.00224118
0.00717807
-0.0226364
-0.00384494
-0.0331259
0.0100674
0.0199538
0.028851
-0.00856258
0.00738131
0.0188849
0.00359252
0.0146602
-0.0202084
-0.24425
0.00460987
-0.144595
-0.0840683
-0.0883072
-0.0860657
-0.109848
0.0572227
0.0847372
0.103349
0.0235761
0.0576906
0.0821332
0.0485243
0.0777962
-0.0428353
-0.0946441
-0.0362733
-0.0655915
-0.0541376
-0.0704476
-0.0553314
-0.0693067
-0.00173446
0.0294722
-0.0196023
-0.0647172
-0.0107071
0.0137123
-0.0444097
-0.0200519
0.0175792
-0.089314
0.0426044
0.0403059
0.005278
-0.0216357
0.0451684
0.0197078
0.0221374
-0.0233798
-0.0657106
-0.0149725
0.00610474
-0.0192666
-0.0130093
-0.0451667
0.0383762
-0.0073464
-0.096833
0.0313559
0.0370758
-0.00160491
0.00889988
-0.0120749
-0.0185233
-0.0187445
-0.0171184
-0.0184444
-0.0189229
-0.0188562
-0.0185569
-0.0190529
-0.0200255
-0.0230843
-0.0211621
-0.0224805
-0.0217058
-0.0225672
-0.0219324
-0.0232927
-0.0127219
-0.0145453
-0.00619275
-0.0112112
-0.0127954
-0.0121279
-0.00978594
-0.00925313
-0.0181729
-0.0211547
-0.0151203
-0.0192572
-0.0190361
-0.0190682
-0.018224
-0.0185711
-0.0200053
-0.0170428
-0.0186945
-0.0209637
-0.019821
-0.0194568
-0.0198104
-0.0189659
-0.0204416
-0.0209265
-0.0192156
-0.0172274
-0.0206949
-0.0211633
-0.0179084
-0.0191675
-0.015182
-0.0182439
-0.020168
-0.013959
-0.0155486
-0.0188633
-0.0159989
-0.0190706
-0.0158438
-0.0141517
-0.0210525
-0.0177448
-0.0162744
-0.0151965
-0.0171632
-0.018423
-0.0169081
-0.0395171
-0.00886798
-0.0409575
-0.0304032
-0.0277965
-0.0251312
-0.0248664
-0.0457165
-0.0390573
-0.0347666
-0.05395
-0.0467809
-0.0456626
-0.0465756
-0.0444429
-0.00839774
-0.0218133
-0.007372
-0.0271128
-0.0183735
-0.0168669
-0.0173956
-0.0163836
-0.0601458
-0.0645178
-0.0509553
-0.0703862
-0.0711767
-0.064473
-0.0649408
-0.0612139
-0.0466898
-0.02037
-0.0555041
-0.0570636
-0.0442836
-0.0366614
-0.0505349
-0.049955
-0.0448453
-0.0542256
-0.0316244
-0.0182062
-0.0402986
-0.0451385
-0.0288114
-0.0349131
-0.0192988
-0.0503126
-0.0564555
-0.0396383
-0.0344678
-0.0468184
-0.0415565
-0.0506541
-0.019372
-0.0375423
-0.0531068
-0.0312232
-0.0255324
-0.0372481
-0.0336129
-0.0458514
-0.861847
-0.428825
-0.635194
-0.0649431
-0.30989
-0.452118
-0.198413
-0.250761
-0.369933
-0.313452
-0.307082
-0.220116
-0.283378
-0.318961
-0.248329
-0.303049
-0.414766
-0.339545
-0.371292
-0.266409
-0.280174
-0.320573
-0.33365
-0.3149
-0.037758
-0.0865591
-0.0882888
-0.0505296
-0.0809111
-0.0650261
-0.136454
-0.105669
-0.331559
-0.372434
-0.164342
-0.19703
-0.155017
-0.177852
-0.143387
-0.169045
-0.298366
-0.239288
-0.289903
-0.422694
-0.243571
-0.253329
-0.475873
-0.287763
-0.251974
-0.191808
-0.120554
-0.198159
-0.19075
-0.179129
-0.189364
-0.130252
-0.292582
-0.183949
-0.187541
-0.305763
-0.331273
-0.253199
-0.286652
-0.250971
-0.353794
-0.33856
-0.358447
-0.217041
-0.293235
-0.342609
-0.237405
-0.328701
-0.320491
-0.260578
-0.311432
-0.1974
-0.291309
-0.273608
-0.275968
-0.317154
-0.316221
-0.37831
-0.394023
-0.302815
-0.361374
-0.34601
-0.328187
-0.366113
-0.0791057
-0.106003
-0.131079
-0.0509585
-0.113426
-0.108432
-0.0987176
-0.125396
-0.311518
-0.281205
-0.203515
-0.152558
-0.235274
-0.201087
-0.237609
-0.264443
-0.335992
-0.221356
-0.296397
-0.328829
-0.304579
-0.302991
-0.286997
-0.313803
-0.272318
-0.110874
-0.158279
-0.147808
-0.285058
-0.22792
-0.229813
-0.189637
-0.318292
-0.249907
-0.145188
-0.3143
-0.308695
-0.331438
-0.281419
-0.299124
-0.0463133
-0.0372355
-0.0402531
-0.0372737
-0.0435666
-0.0413488
-0.0409498
-0.03926
-0.0228975
-0.00904349
-0.0216454
-0.0175874
-0.0176164
-0.01533
-0.0201574
-0.0184795
-0.0341978
-0.0289352
-0.030026
-0.0277412
-0.0316599
-0.0304155
-0.0298994
-0.0290296
-0.0305978
-0.0233497
-0.0275145
-0.0263529
-0.0282869
-0.0258059
-0.0279478
-0.02601
-0.0310131
-0.0366067
-0.0354112
-0.0245412
-0.0316531
-0.0345189
-0.0284354
-0.0331099
-0.029883
-0.0214221
-0.0263948
-0.034913
-0.0298042
-0.023595
-0.0320461
-0.0283464
-0.0345698
-0.0342098
-0.0250105
-0.02889
-0.031543
-0.0320917
-0.0294179
-0.0288881
-0.033182
-0.0280083
-0.0227461
-0.0271091
-0.0297688
-0.0282627
-0.0279774
-0.0259079
-0.00256311
-0.0148408
-0.00679535
-0.00412544
-0.00535239
-0.0101963
-0.00509006
-0.00970838
-0.0288061
-0.0446655
-0.0283891
-0.046168
-0.0361263
-0.0344222
-0.0355526
-0.0364233
-0.0114324
-0.0215818
-0.0174234
-0.0179126
-0.0170171
-0.0188816
-0.0170889
-0.0195203
-0.0111264
-0.0453915
-0.021846
-0.0320245
-0.0208424
-0.0280886
-0.0202431
-0.0307768
-0.0198668
-0.0116856
-0.00901499
-0.0314326
-0.0196602
-0.0139381
-0.0252584
-0.0171497
-0.0215198
-0.034483
-0.0242185
-0.0147492
-0.0223632
-0.0298241
-0.0184528
-0.0235392
-0.0114433
-0.00898854
-0.0309546
-0.0183801
-0.0103859
-0.0174781
-0.0178524
-0.023159
-0.0149216
-0.023107
-0.0364127
-0.0250891
-0.0201792
-0.0216742
-0.0236103
-0.0264597
-0.0189317
-0.0200838
-0.018904
-0.0205616
-0.0200917
-0.0200089
-0.0200184
-0.021481
-0.0222316
-0.026392
-0.0261724
-0.025458
-0.0253606
-0.0261827
-0.0251565
-0.0264923
-0.0149257
-0.0196626
-0.00816115
-0.0146374
-0.016955
-0.0163594
-0.012616
-0.0122412
-0.0214723
-0.0245527
-0.020448
-0.0231903
-0.0236395
-0.0239021
-0.02208
-0.0233435
-0.0221299
-0.0209086
-0.0221765
-0.0247953
-0.0220626
-0.0215851
-0.0224091
-0.0221762
-0.0221427
-0.0253455
-0.0244031
-0.0200587
-0.0235782
-0.0244611
-0.0217742
-0.0244826
-0.0173155
-0.0206496
-0.0237874
-0.0176984
-0.0191409
-0.0225316
-0.0217966
-0.0233079
-0.0192766
-0.0187636
-0.0248218
-0.0223998
-0.0200079
-0.020801
-0.0215858
-0.0230643
-0.00602639
-0.0168507
-0.005092
-0.0159074
-0.010405
-0.0101785
-0.0109377
-0.011202
-0.0283159
-0.0391935
-0.0332233
-0.0337519
-0.0344817
-0.0354098
-0.0341262
-0.0362373
-0.00579397
-0.021129
-0.00868176
-0.0211925
-0.0138916
-0.0143167
-0.0150708
-0.0151641
-0.0235048
-0.0294662
-0.0276943
-0.0258279
-0.0270502
-0.0278867
-0.0272592
-0.0284246
-0.02172
-0.0119119
-0.0204525
-0.0296153
-0.0220836
-0.0160075
-0.0255358
-0.0206546
-0.0220847
-0.0308368
-0.0269444
-0.0112867
-0.0233347
-0.0284642
-0.0177643
-0.0259629
-0.012757
-0.0208165
-0.0298789
-0.0250058
-0.017376
-0.0215604
-0.0242239
-0.0268762
-0.0123942
-0.0261359
-0.0315774
-0.0277747
-0.0189425
-0.0254248
-0.0267017
-0.0298809
-0.340677
-0.16689
-0.348684
-0.228154
-0.218306
-0.304238
-0.179248
-0.278725
-0.0435972
-0.0628746
-0.141758
-0.0373247
-0.0747529
-0.0817536
-0.0953453
-0.0968374
-0.35163
-0.289949
-0.521281
-0.248597
-0.275015
-0.315471
-0.252601
-0.322088
-0.124155
-0.0835111
-0.133875
-0.0856648
-0.0843512
-0.108376
-0.0906922
-0.1069
-0.129051
-0.279166
-0.158798
-0.0875819
-0.112262
-0.22027
-0.286045
-0.161796
-0.187571
-0.0861926
-0.159333
-0.275519
-0.162094
-0.114959
-0.236296
-0.158195
-0.275869
-0.158519
-0.0642947
-0.165512
-0.214955
-0.182652
-0.190897
-0.156944
-0.265538
-0.206743
-0.102827
-0.179106
-0.252669
-0.22805
-0.166268
-0.155147
-0.00405875
-0.0131633
-0.00341168
-0.00980366
-0.00863272
-0.00992202
-0.00681847
-0.00907327
-0.021318
-0.0243507
-0.025005
-0.0231262
-0.0237858
-0.0265703
-0.0233088
-0.0267764
-0.00379744
-0.0179319
-0.0073215
-0.0119329
-0.0102225
-0.0132051
-0.00843883
-0.0121366
-0.0143007
-0.0211795
-0.0160259
-0.0182672
-0.0176503
-0.0203404
-0.0162622
-0.0198235
-0.0181744
-0.00899154
-0.0131563
-0.0215622
-0.0166178
-0.0133104
-0.0181405
-0.0150018
-0.0200577
-0.0234331
-0.0234247
-0.0108876
-0.0194268
-0.0228483
-0.0148684
-0.0207084
-0.00779106
-0.0119144
-0.020628
-0.0123396
-0.0104464
-0.0136525
-0.0141547
-0.0173374
-0.0100851
-0.01612
-0.0232223
-0.0229218
-0.0148286
-0.0174019
-0.0190931
-0.0212064
-0.402432
-0.219913
-0.243271
-0.154899
-0.204324
-0.19531
-0.193156
-0.163108
-0.132061
-0.0882873
-0.0974523
-0.0692925
-0.10732
-0.107928
-0.116716
-0.0964993
-0.101221
-0.100102
-0.0379721
-0.0958076
-0.114302
-0.0840113
-0.102637
-0.0660342