/*--------------------------------*- C++ -*----------------------------------*\
| =========                 |                                                 |
| \\      /  F ield         | OpenFOAM: The Open Source CFD Toolbox           |
|  \\    /   O peration     | Version:  2506                                  |
|   \\  /    A nd           | Website:  www.openfoam.com                      |
|    \\/     M anipulation  |                                                 |
\*---------------------------------------------------------------------------*/
FoamFile
{
    version     2.0;
    format      ascii;
    arch        "LSB;label=32;scalar=64";
    class       volVectorField;
    location    "1100";
    object      U;
}
// * * * * * * * * * * * * * * * * * * * * * * * * * * * * * * * * * * * * * //

dimensions      [0 1 -1 0 0 0 0];

internalField   nonuniform List<vector> 
60096
(
(-42.3534 20.7324 36.1617)
(-33.7603 14.5713 31.1394)
(-30.1134 7.0191 17.6127)
(-25.899 12.4057 22.4658)
(-31.9993 12.4564 30.8217)
(-29.7692 11.8343 25.881)
(-29.5803 10.0637 26.9926)
(-25.803 9.82171 18.5952)
(-30.2298 9.8022 18.07)
(-20.1616 13.5703 -37.6135)
(-19.1632 14.1991 13.4215)
(-27.5605 7.46841 13.4198)
(-26.7806 7.90409 9.29046)
(-21.9577 3.04062 -6.52343)
(-27.7096 5.50974 7.87137)
(-24.8683 1.99278 -0.261433)
(-42.2197 7.8871 14.9328)
(-32.9252 10.7319 18.0387)
(-58.3173 12.524 11.8645)
(-34.5922 11.3141 18.998)
(-37.4628 8.90265 17.0597)
(-45.7512 15.0231 17.0916)
(-38.1148 14.0027 16.5707)
(-45.2062 14.9455 17.5057)
(-19.319 10.4764 22.7252)
(-15.1664 9.11395 25.0193)
(-17.6045 13.2009 25.0343)
(-14.975 12.6892 28.2838)
(-16.9263 10.1418 25.6437)
(-16.72 10.6367 24.1628)
(-16.4883 12.7932 25.6924)
(-17.6133 11.716 26.2834)
(-28.3433 12.5232 27.7037)
(-24.7078 8.25154 17.8846)
(-23.2368 10.8172 24.1437)
(-17.8368 9.2299 22.7435)
(-24.4264 8.37569 24.035)
(-25.0568 7.63578 19.5517)
(-18.5006 11.4693 24.2079)
(-21.9338 8.59714 22.5959)
(-24.3103 7.61034 18.9611)
(-23.2399 7.37717 14.3811)
(-25.2777 13.0602 12.4984)
(-28.0078 10.4996 16.936)
(-19.3262 5.61591 11.4383)
(-20.4177 7.48305 11.4702)
(-22.988 9.03535 17.3314)
(-21.96 11.0576 15.7182)
(-25.2725 9.67797 18.3627)
(-21.5132 9.65301 24.251)
(-19.0862 8.86386 22.0213)
(-21.622 13.0712 20.481)
(-23.5115 9.04873 18.9085)
(-19.8824 8.75037 20.2058)
(-17.8589 10.4861 21.1685)
(-18.7065 8.4047 22.0934)
(-31.7782 11.1305 18.6059)
(-28.5359 12.511 20.2665)
(-21.5192 7.82932 15.158)
(-27.0022 11.3485 15.0762)
(-30.1206 9.86701 19.3014)
(-24.5866 11.0232 19.6044)
(-23.1184 11.0395 15.482)
(-18.7677 12.5127 17.7218)
(35.1268 -36.0992 -493.317)
(18.1521 -1.48354 -116.994)
(20.3312 27.8723 -159.654)
(45.3645 -39.0005 -427.533)
(37.3066 -35.2843 -486.248)
(22.7289 -7.356 -290.37)
(40.8823 -33.9334 -475.04)
(29.6909 -5.20062 -334.699)
(14.3985 -18.4827 -23.7037)
(12.4324 -3.00321 -17.2322)
(20.6621 -7.21984 -13.7334)
(15.3889 -7.63757 -15.8927)
(16.0705 -13.4781 -21.2144)
(19.9164 0.958912 -10.4772)
(25.7187 -4.91854 -22.0501)
(18.6348 -1.59841 -9.85113)
(-2.65291 35.2324 -48.7392)
(19.9024 -12.7269 -7.50417)
(-1.66002 -4.18415 -18.8447)
(-0.3949 12.7038 -121.003)
(5.67486 24.0973 -53.0392)
(-5.75526 -1.76711 -13.7645)
(2.0523 12.59 -23.6519)
(1.09558 -4.06827 -6.70899)
(41.1442 -29.7421 -363.014)
(-3.33138 -59.081 -219.237)
(-6.372 11.3885 -297.096)
(20.7352 3.91334 -343.895)
(25.9359 -49.029 -406.568)
(-2.83234 -44.7147 -371.77)
(25.3744 -19.9301 -361.406)
(1.2187 -34.0309 -351.227)
(29.2404 5.90891 -87.4903)
(12.4715 29.3419 -191.17)
(43.2941 -48.2414 -433.704)
(33.1467 -34.8467 -125.996)
(32.6171 -17.0281 -94.9062)
(33.0596 2.51753 -316.815)
(23.7978 -26.9693 -125.384)
(17.2882 -14.6608 -336.397)
(7.87953 1.39024 0.81318)
(-1.56362 -12.0345 -13.5597)
(17.9247 -2.84669 -19.2756)
(13.6761 9.48214 -74.4999)
(1.98444 13.8875 27.5715)
(26.4734 -12.017 -16.7743)
(13.7808 -7.54492 -28.0475)
(17.2973 -11.0745 -23.8089)
(19.9279 19.9216 -181.721)
(33.542 -36.8244 -407.144)
(39.7423 -32.8613 -99.1536)
(21.5438 8.88242 -227.451)
(17.8005 9.01075 -223.24)
(9.68166 -18.4952 -361.664)
(3.45201 14.9764 -255.217)
(10.9136 -5.81788 -344.007)
(3.75079 1.70096 -100.775)
(-13.2535 0.659558 -160.608)
(-0.854464 30.204 -12.1902)
(10.7636 -8.48394 -23.9456)
(16.1783 4.20486 -49.8349)
(-2.05578 -13.2407 -133.781)
(35.8553 -9.64891 0.504437)
(-17.9298 -9.50965 -74.7604)
(-10.3285 9.08186 24.8689)
(-14.3943 11.6832 21.3771)
(-11.0703 9.39546 29.4946)
(-11.5459 10.6003 27.1326)
(-11.6129 9.62585 25.2632)
(-12.3464 9.06917 26.4007)
(-10.942 9.91959 26.8457)
(-12.044 9.15991 27.8873)
(-18.7438 13.1685 19.865)
(-19.3083 10.869 16.0404)
(-16.2061 10.0942 22.6903)
(-17.9052 14.4167 20.8066)
(-18.4381 13.0346 18.243)
(-19.2461 12.2779 20.3362)
(-17.3141 14.0201 22.7095)
(-17.9646 12.5022 22.0739)
(-10.0129 7.76229 30.8823)
(-11.1827 5.47619 25.7708)
(-7.34965 4.40795 32.1246)
(-8.6753 3.92352 29.9169)
(-10.0116 7.03929 29.6128)
(-11.2532 6.50762 28.245)
(-8.6432 4.91625 30.4674)
(-10.0262 4.01618 29.36)
(-10.8672 11.3988 28.9936)
(-14.538 12.9234 26.2532)
(-10.6127 7.57374 29.8814)
(-11.3892 10.9348 28.9066)
(-11.8726 12.3759 28.5861)
(-12.1937 9.71385 29.0707)
(-11.1781 11.6329 30.6278)
(-13.2387 8.20494 30.4262)
(-14.9773 10.9451 21.643)
(-11.5676 10.107 29.8293)
(-12.0256 11.699 27.6106)
(-15.4199 14.1185 26.3576)
(-14.3099 12.5961 26.1489)
(-12.425 9.50233 27.9433)
(-14.8675 12.7746 25.8416)
(-12.4699 9.99171 28.8574)
(-15.8587 10.0044 24.1112)
(-15.1307 12.1389 25.1686)
(-14.6488 7.94074 27.1261)
(-12.3549 9.19268 31.0222)
(-14.9376 11.4541 26.242)
(-15.8635 10.3792 26.0488)
(-13.7227 9.98387 27.195)
(-14.6127 10.1111 26.9304)
(-10.6732 9.29254 31.6104)
(-9.94884 10.9896 28.483)
(-13.7242 13.8385 27.6647)
(-9.94769 8.13776 31.426)
(-11.2299 8.93757 30.8655)
(-12.5723 9.29112 30.344)
(-12.1137 9.502 31.3549)
(-13.4792 9.0493 30.3643)
(-11.5914 7.76867 31.1203)
(-10.7493 5.52567 29.0111)
(-15.9579 9.30473 25.6709)
(-12.7659 6.73121 24.7652)
(-11.8738 7.90104 30.4905)
(-11.9833 7.43954 30.9446)
(-12.8351 9.09375 27.1743)
(-13.9384 8.86506 26.099)
(-0.312284 -2.37293 3.48667)
(-1.45347 -4.25526 10.456)
(-4.17384 -2.33386 7.65079)
(2.32708 -0.253144 10.5139)
(2.25999 0.859278 6.70099)
(0.326366 -2.63345 7.90239)
(-0.0660445 -1.8045 7.51561)
(-0.429035 -1.37355 10.6733)
(-2.27877 -5.70113 19.8082)
(-2.74123 -7.02288 25.2936)
(-4.56454 -3.08502 22.8286)
(0.285569 -6.24753 21.5506)
(-2.92607 -7.01642 21.3224)
(-2.88975 -6.76343 22.9429)
(-1.19316 -8.15133 22.3274)
(-1.44899 -7.64673 25.0296)
(-8.64158 -2.63469 11.8416)
(-8.22514 -3.14805 18.8578)
(-12.5152 -3.0375 14.3509)
(-7.06314 -2.52856 16.3441)
(-7.42709 -3.02914 13.9671)
(-10.2369 -3.61443 16.2877)
(-8.6211 -3.47133 15.4807)
(-9.68821 -2.8907 16.2633)
(2.9775 0.166261 16.7288)
(3.2256 -1.40198 20.3997)
(-1.31069 -1.66165 20.7094)
(1.31803 1.99211 20.5715)
(3.50811 2.26871 19.0232)
(2.31877 -0.89675 18.8092)
(1.82648 1.97247 18.8938)
(0.239007 -0.458072 22.2848)
(-1.42947 -5.60814 13.5547)
(-3.96769 -3.01325 10.4882)
(4.35725 1.89318 13.4694)
(3.48495 -2.98592 18.4193)
(0.0222458 -4.11921 14.8793)
(-1.55546 -2.94909 11.5266)
(3.46153 -3.53071 16.7328)
(2.8141 0.159752 14.0534)
(-1.51433 -6.30669 17.2519)
(1.78641 -4.29351 19.9235)
(-6.03087 -4.19901 19.4421)
(-5.82405 -4.56839 13.0809)
(-0.463498 -5.28206 19.5565)
(-1.65902 -4.60999 18.6935)
(-5.78978 -2.61285 15.1962)
(-4.59595 -2.46877 16.3311)
(-4.03827 -2.10967 12.188)
(0.25039 -1.19429 13.9779)
(1.28688 -1.26595 19.4233)
(-4.84146 -2.2002 17.9286)
(-3.32677 -2.95779 13.8139)
(0.724962 -0.115584 15.583)
(-1.52741 -2.42446 16.3332)
(-0.312891 -1.47382 17.5263)
(-6.70298 -3.91735 14.655)
(-5.76179 -2.59255 19.8524)
(-0.486767 -3.83219 23.843)
(-5.12339 -4.09846 20.6262)
(-6.94592 -3.93083 15.5283)
(-4.85915 -3.37354 15.874)
(-5.95628 -4.22142 17.5816)
(-2.28192 -2.90868 20.1453)
(-18.5629 3.90631 27.1381)
(-20.696 11.919 24.7747)
(-18.2903 9.65261 22.0419)
(-19.6277 10.2111 28.8693)
(-17.3548 6.92575 25.9233)
(-20.1326 8.54882 25.3205)
(-17.7263 6.3238 24.319)
(-17.9037 11.0034 22.1087)
(-20.7069 15.9493 19.49)
(-19.8729 12.9426 15.2042)
(-22.4313 20.588 19.5169)
(-18.6431 15.671 19.951)
(-20.1756 15.6108 19.2028)
(-21.9872 17.2255 19.4286)
(-19.7359 16.1035 20.3879)
(-21.1319 19.6083 17.1217)
(-19.4225 24.4127 16.4323)
(-20.3451 29.9163 18.7307)
(-14.1935 37.4481 8.45671)
(-16.7368 33.5487 20.0616)
(-20.1521 29.1106 14.3273)
(-19.5378 32.0025 13.8851)
(-17.9459 33.4662 15.2851)
(-18.7569 40.381 11.6742)
(-20.8474 11.8203 28.1944)
(-15.4735 16.1394 24.7417)
(-15.3927 18.5112 24.0145)
(-14.3043 12.3191 29.0642)
(-16.5045 12.4886 29.2447)
(-18.4335 15.9544 25.348)
(-15.8036 12.828 26.8976)
(-15.6199 18.3006 24.6885)
(-19.7194 13.0971 23.8723)
(-19.0628 14.9993 20.5376)
(-18.5731 12.4478 26.7633)
(-17.7125 14.2011 22.4344)
(-19.3348 12.7945 23.3484)
(-19.3325 13.3691 23.7423)
(-18.0288 13.922 23.8151)
(-19.1985 13.796 24.9642)
(-21.3146 15.2701 22.6713)
(-20.8164 18.4952 21.7349)
(-22.9203 25.3668 19.6966)
(-21.7885 20.4498 19.5787)
(-20.3682 17.9236 20.6246)
(-20.778 18.2124 21.4019)
(-21.6821 18.2957 19.5369)
(-20.4382 22.4739 19.5127)
(-16.7924 16.0418 21.0927)
(-18.8951 12.4394 27.3144)
(-17.6479 16.4745 22.1964)
(-16.4225 23.1115 21.8849)
(-18.8763 16.8431 23.7583)
(-17.5672 16.3662 23.3954)
(-18.9512 19.6843 20.1724)
(-18.1635 16.728 22.8428)
(-20.0509 25.108 17.4051)
(-17.5925 29.4271 20.0726)
(-18.1315 21.0689 21.6123)
(-20.3349 29.1187 17.7922)
(-20.5522 25.2866 18.0648)
(-19.7673 24.6619 19.901)
(-18.8386 24.3585 18.4599)
(-19.2871 22.9612 21.5096)
(4.10899 -0.651023 -14.4738)
(2.8558 -4.0502 -55.6874)
(5.9842 0.285153 -15.831)
(10.7932 -1.51795 -10.2555)
(2.94474 2.55328 -13.8894)
(3.97872 1.07964 -32.9453)
(2.90641 -4.42516 -11.5459)
(5.53874 2.37894 -27.3208)
(36.4178 8.88562 -110.839)
(43.635 -27.834 -548.298)
(36.8277 0.150854 -85.3534)
(19.8211 9.11564 -127.57)
(12.2529 -6.28149 -126.091)
(34.2483 -2.66807 -269.913)
(1.58185 11.3408 -131.64)
(34.1003 26.2258 -232.04)
(16.1287 -2.15421 -12.7736)
(24.8473 3.67066 -24.6968)
(13.0231 0.186726 -17.9383)
(17.3385 -2.18626 -13.9304)
(12.4329 -5.65867 -16.1288)
(18.0402 -3.99148 -14.9572)
(15.1957 -2.98851 -13.4697)
(16.4504 -6.58265 -13.968)
(13.1986 20.1953 -3.62324)
(1.01211 26.6851 -54.9667)
(13.3358 0.202693 -16.7207)
(24.3552 5.35981 -7.91277)
(6.79441 13.1167 -9.18465)
(18.0353 18.1801 6.98295)
(13.0534 7.81194 -7.4458)
(2.51832 0.709004 -6.59373)
(20.8795 19.1393 -50.5169)
(9.33386 -0.223263 -22.9479)
(15.2186 16.3471 2.99652)
(9.54227 10.0648 -59.2105)
(22.887 13.4578 -55.2367)
(10.8654 -1.78446 -34.1638)
(30.3836 15.5476 -44.1826)
(-5.74341 -5.77322 -17.3398)
(16.3067 20.1334 -21.3297)
(31.3397 25.0468 -64.2057)
(22.5986 9.78021 -26.5593)
(12.221 4.78199 -18.0737)
(7.74091 3.74067 -14.6595)
(6.47777 0.211525 -66.403)
(11.2167 7.25785 -21.6573)
(8.50862 -5.20078 -32.4034)
(9.3428 -0.812053 -19.1135)
(14.8484 0.820209 -5.40429)
(9.23269 9.74531 -57.7941)
(11.0965 -6.05467 -17.6307)
(10.4794 0.920391 -18.3464)
(-3.14405 -1.02317 -14.7071)
(10.1216 -6.28063 -23.4808)
(9.24842 -9.36456 -24.4145)
(10.6531 0.0991282 -14.6093)
(17.4465 -5.84061 -18.4135)
(14.1399 22.5041 -45.578)
(14.1793 8.01127 -37.3337)
(7.30985 -1.10756 -21.9623)
(19.6519 -2.31064 -21.6691)
(4.49241 4.17693 -31.3306)
(12.7165 10.4658 -23.8983)
(-91.4523 14.8152 10.2049)
(-82.3628 13.1927 9.52476)
(-56.3586 9.43133 11.2248)
(-39.7012 12.2866 12.0118)
(-88.8623 13.02 10.5791)
(-86.5784 12.2658 10.3156)
(-58.5264 10.061 12.0368)
(-56.7786 10.8139 11.6618)
(-71.835 12.4865 10.1689)
(-61.2704 11.901 11.2513)
(-44.2095 8.83407 12.9228)
(-38.9329 11.4999 14.866)
(-68.9983 11.8237 11.2067)
(-65.9886 11.3883 11.8322)
(-52.5239 14.2965 16.2677)
(-51.7126 12.7537 15.5235)
(-37.6465 9.57713 17.3984)
(-32.2742 9.08573 19.2733)
(-45.7137 17.4992 36.689)
(-35.9726 13.6866 30.7409)
(-32.7668 7.98407 17.1556)
(-32.8981 7.64588 17.4739)
(-35.8543 14.2997 24.1456)
(-30.1829 10.4611 24.5135)
(-21.0594 13.9629 10.7112)
(-19.2745 13.1729 11.9691)
(-26.1877 6.30777 22.2376)
(-19.3094 8.36513 -12.857)
(-21.6242 14.5834 8.0192)
(-23.8218 9.74664 10.609)
(-19.8301 9.49504 0.399769)
(-22.6057 9.36726 17.4654)
(-79.1654 11.5374 10.882)
(-54.5243 9.47968 11.7843)
(-37.9298 12.7236 13.1306)
(-35.742 12.6056 12.9258)
(-54.6631 11.3925 11.8795)
(-55.3946 11.3692 12.3984)
(-39.293 14.5673 13.5504)
(-39.2706 11.2596 12.8028)
(-76.7571 11.0687 10.9788)
(-38.3895 9.74517 14.7678)
(-46.2184 7.89566 12.7892)
(-53.3741 9.03004 11.7719)
(-54.6365 12.6982 14.7387)
(-50.4422 12.1712 13.4625)
(-51.2236 8.73036 11.1163)
(-48.3216 8.43193 12.3772)
(-36.3029 9.43671 12.9653)
(-32.4062 13.5544 11.5169)
(-28.2355 13.3387 11.7757)
(-27.352 11.878 19.1405)
(-32.7023 10.2709 14.318)
(-31.158 13.3857 10.8308)
(-28.4481 10.0999 14.0331)
(-29.2334 12.0249 13.0942)
(-35.4241 10.3515 12.7012)
(-23.3194 10.5464 19.106)
(-30.3542 11.6145 14.6881)
(-34.5176 10.0587 17.3242)
(-33.2796 8.41145 14.9343)
(-26.9529 8.15632 14.8398)
(-32.2777 10.6901 13.8294)
(-25.4858 8.27927 14.4209)
(-9.74163 3.03577 29.5489)
(-10.9262 7.92792 23.7464)
(-11.1117 8.23365 26.0452)
(-10.9883 6.49505 27.1502)
(-7.98059 7.59894 27.7166)
(-9.38713 6.8594 24.872)
(-10.5671 8.8172 29.9846)
(-12.0994 7.88528 26.0662)
(-16.604 8.3427 20.6098)
(-17.9705 8.15484 17.2393)
(-15.9394 4.62236 18.6695)
(-16.0826 2.52606 17.6857)
(-16.3347 7.45016 17.2178)
(-17.8099 7.0469 16.6904)
(-16.5688 5.04274 18.6112)
(-17.2019 4.34424 18.4737)
(-14.3538 6.63384 24.7403)
(-13.8249 4.34516 19.6649)
(-11.918 4.08761 20.4167)
(-12.1766 2.72251 21.1576)
(-12.222 5.23416 20.9161)
(-12.6986 4.47262 18.723)
(-11.8366 4.07336 20.2363)
(-12.6266 2.97676 19.4838)
(-12.8535 3.47541 24.7502)
(-13.9972 1.17339 19.6011)
(-12.1709 1.75462 21.9859)
(-12.0188 1.8308 23.199)
(-12.0663 2.59365 21.8785)
(-12.834 1.53843 20.5713)
(-11.8072 2.20517 23.3356)
(-12.2405 1.42854 21.0997)
(-13.2033 8.02859 22.5264)
(-12.1632 8.39435 24.7061)
(-11.3326 6.56656 25.0387)
(-13.9534 4.21734 19.5979)
(-14.2949 6.96243 24.2747)
(-12.3923 7.93231 23.6913)
(-14.8436 5.06318 21.4983)
(-13.0786 5.84321 22.0571)
(-15.3506 8.60006 21.9087)
(-14.9159 3.38319 18.2529)
(-15.0593 4.75433 17.6309)
(-14.9231 8.08725 23.3544)
(-16.4311 6.65961 22.982)
(-14.9295 5.3298 19.7734)
(-15.8189 7.8974 24.072)
(-13.6307 6.02642 19.9125)
(-12.8362 8.10147 24.936)
(-12.092 6.2079 25.6323)
(-13.9352 2.98519 20.523)
(-11.9226 3.28087 22.2488)
(-13.8044 5.03442 24.0691)
(-13.8396 4.74529 22.8871)
(-12.1758 3.88852 21.2707)
(-12.1168 3.43925 21.1005)
(-15.3553 6.48337 24.421)
(-12.6966 2.45151 20.7312)
(-14.4144 1.9311 19.2942)
(-14.8305 2.97507 18.7817)
(-12.4387 5.15 20.3217)
(-13.1425 3.08551 19.9067)
(-13.8312 4.19115 19.3446)
(-14.0609 2.73417 19.9624)
(-10.6893 6.2588 18.8845)
(-12.9794 8.62385 24.4237)
(-10.8961 6.88151 18.663)
(-12.547 6.90205 18.3006)
(-11.3114 6.2504 18.536)
(-12.1108 7.62938 20.4235)
(-12.1319 6.36969 18.4204)
(-11.9678 7.26794 19.531)
(-9.95198 7.15219 28.4744)
(-9.01667 6.81524 31.6709)
(-10.111 7.7841 30.2267)
(-10.8867 6.5097 28.1732)
(-10.2624 7.31771 28.8246)
(-10.1386 7.54186 28.1752)
(-10.3986 7.03504 27.2883)
(-10.353 7.43959 29.2434)
(-10.7633 8.62625 20.6089)
(-10.9668 8.78202 29.3747)
(-9.88857 8.49192 24.2575)
(-12.5108 9.61345 20.6403)
(-11.7681 9.04168 21.7531)
(-11.1626 8.2877 26.6104)
(-11.6466 9.44837 20.0404)
(-11.0978 8.8767 26.2348)
(-15.499 7.24505 17.7649)
(-16.309 10.4931 23.3107)
(-16.2413 11.2885 19.0025)
(-19.1254 9.96793 17.2971)
(-16.3247 7.03253 17.5816)
(-17.0868 10.0932 20.6506)
(-17.8816 9.52446 16.5057)
(-18.0041 11.4501 19.7687)
(-13.6175 9.13363 25.051)
(-12.3945 7.24189 19.9802)
(-13.5464 6.44716 18.4697)
(-15.0387 9.46829 24.6847)
(-14.6463 9.57402 23.4247)
(-13.5797 8.75392 20.4784)
(-14.9641 9.81684 24.6657)
(-14.466 8.73158 20.2288)
(-12.4165 7.62772 27.8145)
(-13.5879 7.55579 27.5313)
(-11.4404 8.65557 30.7341)
(-11.5915 8.16193 24.0107)
(-12.516 8.08307 27.6363)
(-13.2564 8.28818 27.809)
(-12.3196 9.16613 27.3858)
(-12.4864 9.44559 27.4353)
(-12.7793 7.86382 18.0505)
(-14.777 6.88053 17.5795)
(-15.946 10.2219 22.1516)
(-15.4064 9.92721 18.2102)
(-13.9423 7.85133 18.7662)
(-15.0622 8.93786 20.4425)
(-14.3649 9.00209 19.5813)
(-16.0153 9.78857 20.1073)
(-12.3273 7.91996 22.2715)
(-14.7528 9.72387 22.7524)
(-13.824 8.32655 27.0366)
(-11.7232 9.04844 30.0502)
(-13.2815 9.05305 23.62)
(-14.1854 8.46047 23.8502)
(-13.0789 9.9495 26.5195)
(-13.5619 10.0018 27.3418)
(-17.0825 27.1729 9.07115)
(-13.8429 16.5752 16.4154)
(-20.171 22.6059 13.2262)
(-15.5907 21.6219 14.466)
(-15.4409 22.2334 13.4235)
(-16.1641 20.2929 14.5647)
(-14.8615 20.2512 13.6091)
(-16.1762 18.9277 16.2818)
(-16.548 8.0669 15.5439)
(-17.5888 7.31896 15.5793)
(-21.9392 11.5258 21.7497)
(-17.1681 3.09764 17.1825)
(-17.0207 5.92003 16.0889)
(-19.4857 10.2628 16.9304)
(-17.2927 6.32186 15.7175)
(-19.2133 9.55729 16.8048)
(-21.4774 14.8962 19.662)
(-22.663 9.7057 24.3021)
(-17.6555 5.63443 23.5185)
(-21.0153 10.5567 21.0595)
(-20.6727 11.8745 19.0323)
(-20.7222 8.01898 23.5353)
(-20.5985 10.4541 21.7107)
(-19.2947 7.28327 25.1391)
(-14.1326 14.3067 19.2508)
(-15.7596 0.827373 18.9896)
(-17.5655 7.30387 19.4194)
(-14.1222 6.69734 20.1826)
(-14.0984 10.534 19.2068)
(-14.0562 3.57535 19.2296)
(-13.4218 8.45484 20.1808)
(-13.9484 2.85968 21.3794)
(-13.8156 12.5129 16.1631)
(-18.1569 16.7147 15.1131)
(-15.4165 17.5719 16.9932)
(-15.2407 4.50108 17.7068)
(-15.0273 10.4503 16.4561)
(-15.0817 13.6997 17.0162)
(-15.4189 8.18703 17.8374)
(-14.1627 10.5564 18.4001)
(-15.3158 11.262 15.071)
(-16.0799 5.39567 16.8962)
(-21.3684 11.7819 21.1903)
(-20.296 15.1326 17.8489)
(-17.3222 9.97837 15.7542)
(-16.0037 8.5649 16.1972)
(-19.8267 12.7699 18.5504)
(-19.3466 10.1793 17.9243)
(-19.2942 15.7025 15.726)
(-14.7732 16.5935 17.2085)
(-14.7843 4.23245 17.196)
(-17.7283 9.29846 19.1503)
(-18.3971 13.4918 15.9708)
(-13.9705 9.0896 19.8183)
(-17.4385 9.50758 17.5828)
(-13.7402 7.03482 19.8414)
(-21.1324 13.4956 19.5932)
(-20.7686 7.93815 21.7233)
(-15.8903 5.23431 16.7525)
(-22.7338 9.82287 22.849)
(-20.1588 10.661 19.8425)
(-20.0813 8.50736 20.6073)
(-20.2959 9.41496 19.257)
(-20.0538 7.46035 19.1303)
(3.09543 0.848113 -12.1664)
(12.115 -7.07654 -4.51726)
(7.50628 -1.33821 -10.461)
(3.0321 -0.0356764 -12.4146)
(2.67324 0.00627872 -8.45929)
(2.30663 -1.29542 -10.6191)
(2.62973 0.223486 -10.7041)
(3.12429 -1.01924 -11.0211)
(14.3501 -7.66315 -11.067)
(8.11167 -10.1312 2.1548)
(19.4209 -9.43645 -13.7766)
(9.58446 1.83952 -0.676956)
(11.7899 1.46965 -6.56474)
(12.3136 -4.78447 -7.95239)
(13.0955 -1.33402 -4.95838)
(8.72419 -1.40903 -8.26387)
(12.0894 -0.748251 -9.56304)
(17.8027 -4.97872 -11.1268)
(7.37962 3.26234 -16.6395)
(13.9322 -2.91849 -9.15445)
(14.4754 -2.8763 -10.878)
(16.2255 -2.66997 -11.3265)
(13.0655 1.24095 -11.7524)
(15.6775 -0.184589 -12.3993)
(4.97546 0.775995 -4.33985)
(13.9597 0.116038 0.751834)
(15.2249 -0.870142 -3.6876)
(12.2985 0.145392 2.1796)
(9.67256 1.3577 -2.67802)
(10.8605 -0.870245 -2.42289)
(9.27572 0.881096 -2.2789)
(12.9497 -0.117841 -2.45534)
(9.224 -4.73764 -4.00816)
(7.53724 -1.49807 -10.665)
(5.15247 2.06222 -11.419)
(14.103 1.60472 -2.00573)
(10.4954 1.15606 -7.94548)
(6.01539 -0.233278 -11.1763)
(13.305 1.2667 -5.9712)
(6.36115 2.15099 -8.71071)
(11.9746 -0.217151 -8.47452)
(12.7106 -0.864385 -4.20021)
(14.116 -4.34119 -8.40528)
(6.66464 -1.70155 -10.7252)
(15.09 2.04088 -9.39843)
(14.3732 -1.67049 -6.28693)
(10.5336 -1.8297 -6.91785)
(13.3637 -1.42414 -9.09111)
(7.99579 -0.588975 -11.4856)
(3.89899 1.64631 -10.1389)
(13.6291 -0.541403 -1.39691)
(11.6566 -1.61501 -7.9052)
(8.35854 -2.66199 -11.8515)
(7.92084 1.96627 -8.46885)
(11.9871 -1.68555 -7.18636)
(11.4248 1.43019 -4.94594)
(8.92972 -3.34046 -10.6658)
(14.346 -2.863 -9.04881)
(13.3054 -1.6424 -3.39469)
(14.333 -5.2356 -12.3732)
(13.206 -3.91042 -12.0542)
(13.1937 -2.44951 -8.98375)
(15.4091 -2.71265 -9.9125)
(15.3152 -3.02576 -6.89086)
(-15.6181 26.7557 6.11564)
(-17.0323 34.173 5.68908)
(-20.1777 24.2972 11.6362)
(-16.5174 18.802 11.3893)
(-17.2221 31.7309 11.8722)
(-18.0773 32.4931 7.41554)
(-19.2704 27.49 12.8376)
(-19.2412 28.2293 10.3139)
(-17.0379 39.5288 6.07087)
(-15.4809 40.7553 5.64448)
(-19.359 26.6182 14.3796)
(-19.6178 30.1403 15.7151)
(-18.9429 43.4563 10.5512)
(-17.2022 39.0932 7.14519)
(-20.8668 36.1529 13.8875)
(-20.202 31.6208 10.3944)
(-21.7164 15.4585 19.5111)
(-20.4822 14.3597 20.5365)
(-19.9275 4.2713 24.0427)
(-20.8944 10.4503 24.7291)
(-20.4708 13.2941 21.6945)
(-20.4967 12.9062 19.8901)
(-19.6425 9.73694 22.631)
(-20.7862 9.96749 23.2482)
(-17.4077 10.135 14.1538)
(-20.1315 18.9301 15.4829)
(-21.123 14.7391 20.2993)
(-18.8141 11.4986 15.7112)
(-18 13.9781 14.8288)
(-21.7148 17.834 17.6355)
(-19.7314 13.8452 16.2776)
(-21.5365 15.0979 19.2815)
(-20.6439 39.4294 10.3545)
(-19.3527 22.2286 15.1954)
(-13.8703 17.243 12.2863)
(-17.961 26.215 13.0112)
(-20.3628 31.9506 12.7763)
(-19.3226 26.1136 13.5492)
(-18.0694 24.8461 12.0166)
(-17.1447 20.5656 12.5985)
(-18.2974 37.3116 7.88078)
(-18.7248 26.0339 15.1134)
(-20.574 25.2288 14.2872)
(-21.5686 24.4884 13.9987)
(-20.4203 31.0415 10.7506)
(-20.1096 28.0648 15.2767)
(-20.2163 26.8042 13.1702)
(-19.1664 25.3434 17.1426)
(-21.4305 19.4967 17.5558)
(-16.7934 15.2097 14.1348)
(-20.2172 21.1259 15.8899)
(-22.0616 13.1696 21.659)
(-21.8997 15.9432 16.586)
(-18.8881 16.9795 15.4612)
(-20.4642 15.6882 18.3483)
(-19.3123 17.8916 16.7121)
(-22.2197 19.7449 16.9057)
(-22.4117 14.9935 23.193)
(-21.2749 24.0178 19.8325)
(-22.5418 20.5033 17.3129)
(-21.8662 16.639 20.3377)
(-23.1602 16.9076 21.3478)
(-22.0073 21.0361 17.002)
(-21.6387 19.1678 20.1061)
(-11.3809 3.76661 3.28528)
(-10.5789 1.65812 8.24146)
(-7.23777 -0.209295 4.56943)
(-9.27634 8.80678 14.0901)
(-11.4738 5.47705 8.98763)
(-11.5673 2.1799 7.44631)
(-9.08719 4.05078 8.83792)
(-11.2705 1.23541 8.59347)
(-10.7111 -1.60204 11.3149)
(-13.6551 -3.89784 15.4591)
(-9.67523 -3.01007 10.8563)
(-9.91373 -2.07958 17.5281)
(-11.2825 -1.85234 13.2101)
(-11.7932 -2.5244 13.7998)
(-9.88288 -2.86729 14.1298)
(-10.4512 -2.42451 13.3358)
(-4.28791 -2.59014 3.38756)
(-4.91681 -2.80656 6.46381)
(-2.40385 -2.8168 3.30007)
(-3.566 -5.40529 10.1928)
(-5.05296 -2.78647 6.4549)
(-3.0219 -1.1312 5.47866)
(-3.63948 -3.59172 6.63233)
(-2.1111 -4.1605 5.77109)
(-6.05977 3.60041 19.5781)
(-5.08936 -1.66042 20.8487)
(-4.51068 -7.02102 18.107)
(-3.76998 -4.35262 23.1645)
(-5.84805 2.12765 20.5742)
(-5.96603 -0.216756 21.1931)
(-3.5575 -2.37052 24.0959)
(-3.86884 -3.81721 21.486)
(-9.84359 0.935642 12.8948)
(-9.27692 -0.169104 7.44357)
(-8.78915 7.04763 18.2185)
(-7.79302 0.848098 17.8995)
(-10.0878 0.408035 12.1256)
(-12.7545 0.631503 10.763)
(-7.65277 1.55994 15.4949)
(-9.36069 3.88877 15.7976)
(-10.3952 -0.650743 11.3122)
(-8.1769 -0.903736 17.1521)
(-7.60237 -2.08747 9.44025)
(-6.80392 0.414532 6.39471)
(-9.36435 -1.17654 12.35)
(-10.8993 -1.14923 14.1055)
(-7.3097 -1.59074 6.85845)
(-7.82553 -1.32184 9.4868)
(-8.88112 -2.19523 9.16388)
(-7.575 4.19814 15.95)
(-5.72517 -1.97731 18.1949)
(-3.5554 -3.63978 16.7944)
(-6.7797 -0.739795 12.1443)
(-8.42525 0.645572 17.4196)
(-8.22336 -2.0937 14.9034)
(-7.71992 -0.160707 18.7443)
(-6.98796 -2.16748 8.2841)
(-3.65691 -3.93237 14.3258)
(-6.68133 -2.32944 17.3567)
(-6.72105 -2.91622 10.6706)
(-6.83021 -1.75597 9.09015)
(-6.39932 -1.37779 13.4287)
(-6.38959 -3.74403 11.9578)
(-5.49666 -1.5796 13.8233)
(-13.1194 -3.44843 15.7298)
(-10.5902 -2.27026 20.7815)
(-13.2312 -1.59641 13.3052)
(-13.7865 -0.515032 19.1897)
(-13.4535 -1.08774 16.2498)
(-11.9987 -2.73018 16.256)
(-13.8908 -1.69132 15.2642)
(-11.8527 -2.58422 16.8493)
(-6.10955 -2.75921 24.2703)
(-4.47372 -1.93882 24.1565)
(-7.08946 2.83159 21.9401)
(-3.78981 -1.07346 25.305)
(-4.71514 -1.8329 22.8461)
(-5.50311 0.112241 23.5923)
(-5.05274 -0.224795 22.0702)
(-5.2632 2.27723 22.4354)
(-11.8296 0.333527 11.1759)
(-8.70398 5.53833 16.0527)
(-12.6874 8.15705 7.61586)
(-10.3409 7.32601 14.8062)
(-9.31849 3.3375 12.0884)
(-12.8756 8.47977 14.6277)
(-9.62373 3.67332 10.2292)
(-12.0768 9.1982 11.8605)
(-10.8271 2.11489 22.7552)
(-6.18375 0.988355 24.7325)
(-10.3764 7.65836 19.9647)
(-9.45106 4.49474 22.784)
(-9.07217 3.63846 21.1304)
(-9.3394 3.60159 22.2846)
(-8.59265 3.99768 20.5559)
(-8.3634 5.15694 21.6858)
(-8.08799 -2.21895 20.5066)
(-10.8063 -0.786677 14.7415)
(-11.1436 -0.0650001 18.8642)
(-6.00441 -0.0515225 22.9562)
(-9.00457 -1.26361 19.4075)
(-11.4464 -0.555344 17.0172)
(-7.11905 0.198544 22.7398)
(-10.6919 0.400205 18.6861)
(-7.11745 -3.23321 20.654)
(-5.47302 -0.861069 23.0288)
(-8.23366 4.34956 20.818)
(-10.9195 -0.254757 16.303)
(-6.57013 -0.851745 21.1791)
(-5.97743 0.0592129 22.9101)
(-8.95711 -0.936342 17.1994)
(-6.89761 1.39921 19.4343)
(-11.4552 -0.492709 12.8852)
(-11.6465 0.663947 17.3453)
(-6.18533 1.85812 21.6477)
(-8.84408 4.86556 16.912)
(-12.0664 -0.459638 14.8406)
(-10.0048 1.23587 18.9818)
(-9.37177 4.57347 17.13)
(-8.62459 4.55795 20.5069)
(-9.59393 -0.60251 14.2091)
(-8.74553 6.53429 17.8142)
(-5.54263 1.8841 23.3497)
(-8.23598 5.60268 18.7118)
(-8.82237 3.67428 16.2089)
(-9.90658 4.29269 19.7815)
(-6.853 1.49086 19.7388)
(-7.79562 3.65272 21.2504)
(-51.9941 70.0426 -152.492)
(-47.2478 -10.7617 -181.317)
(-59.743 1.374 -140.831)
(-25.5096 -10.6012 -220.033)
(-38.5145 5.441 -158.082)
(-57.6505 -7.72202 -119.299)
(-40.4798 18.068 -205.858)
(-62.3485 -11.2592 -163.149)
(-21.0087 -2.78243 -94.4828)
(5.9089 0.518697 -33.5358)
(-7.52966 -10.2669 -13.1228)
(-10.7711 3.06822 -88.9233)
(-6.9138 12.8231 -68.3166)
(2.44196 -2.55911 -25.2413)
(-6.99906 7.60879 -76.1516)
(5.43903 -5.16786 -10.2808)
(-45.2336 4.20355 -90.2053)
(-40.1807 10.5973 -42.3819)
(-57.9782 17.7791 -61.8468)
(-47.9817 -15.1791 -92.9303)
(-48.5863 1.13683 -85.9366)
(-61.9353 13.6325 -70.9522)
(-54.7686 7.4194 -86.6406)
(-61.4305 11.5273 -68.3941)
(-11.4615 -4.343 -297.664)
(-4.92002 -1.34985 -265.667)
(-40.2913 -7.19688 -181.369)
(3.33381 -11.7141 -366.355)
(-16.5624 0.28975 -325.475)
(-8.50689 -14.4402 -220.059)
(-8.44932 -7.54825 -345.397)
(-0.538165 -16.9253 -240.581)
(-45.863 -4.52801 -202.432)
(-51.1894 4.32075 -136.001)
(-29.092 -5.95648 -251.582)
(-8.67347 6.40992 -231.671)
(-40.1109 -0.890874 -207.78)
(-42.6052 -14.13 -160.172)
(-18.0998 -2.03224 -219.028)
(-17.6165 -7.80065 -197.526)
(-41.7293 -9.74682 -101.615)
(-10.4912 6.4687 -69.7525)
(-10.5858 -5.18458 -41.6821)
(-59.9783 -8.09864 -101.642)
(-19.4257 3.64282 -67.6897)
(4.00138 5.11396 -63.9525)
(-28.6216 6.58083 -80.8208)
(-9.08528 8.28765 -75.0658)
(-46.7537 5.07259 -145.324)
(-13.3319 -8.02445 -278.298)
(-9.56706 4.76203 -245.102)
(-33.505 -8.50886 -155.62)
(-28.5938 -6.10366 -149.485)
(-26.5168 -11.7542 -203.495)
(-33.2642 -3.94906 -154.834)
(-11.7098 -6.63913 -219.728)
(-43.1692 -8.9026 -95.7659)
(-33.3694 -16.2317 -118.029)
(-5.19023 -15.9281 -104.561)
(-5.25534 -2.81397 -37.849)
(-41.2354 -14.0804 -104.246)
(-22.1166 -18.1866 -110.588)
(-18.099 3.95579 -86.6496)
(1.46844 -1.24158 -86.3402)
(-97.2744 16.6775 10.2557)
(-46.2492 16.1588 10.7915)
(-59.614 9.90392 11.8973)
(-66.0581 18.9174 10.99)
(-57.1614 18.1961 7.95509)
(-57.4791 11.4068 11.4108)
(-70.2759 15.3408 10.7031)
(-60.7589 9.24427 16.8469)
(-25.2034 13.7138 11.7405)
(-11.1424 9.55647 -9.26013)
(-29.2848 5.08439 23.899)
(-17.8908 18.7757 11.1074)
(-20.2438 21.1788 12.5832)
(-15.3899 13.7262 6.2951)
(-22.259 13.1839 14.2453)
(-11.9149 5.06462 5.47855)
(-36.6292 9.2926 16.9849)
(-37.3981 13.489 32.8608)
(-43.8873 21.3758 36.1943)
(-37.4716 19.6293 26.1634)
(-38.9712 19.3271 25.5857)
(-39.5139 15.2518 29.3107)
(-44.3869 18.9874 28.002)
(-42.1941 12.7872 33.334)
(-49.4044 20.9011 13.0673)
(-32.6498 18.4502 16.3514)
(-40.0484 18.8654 19.5364)
(-47.1221 23.198 20.3705)
(-40.1957 21.8458 12.0674)
(-36.4328 17.0052 18.1254)
(-45.2001 19.9678 18.2143)
(-38.1584 15.747 21.274)
(-29.1368 19.8104 13.4121)
(-38.8193 14.809 11.7)
(-41.9422 19.0515 9.56309)
(-29.4563 22.312 12.488)
(-37.3843 14.6922 11.4426)
(-36.3032 11.1023 11.7497)
(-37.1287 17.1226 13.6002)
(-42.6654 13.4504 13.2929)
(-30.9453 11.9156 12.6458)
(-27.0518 14.0546 15.4504)
(-26.6814 10.5298 21.7467)
(-36.6414 10.0472 12.5046)
(-36.0835 6.9017 11.7052)
(-25.4822 9.02627 15.8575)
(-31.5089 12.2429 12.7148)
(-29.895 14.2403 19.9532)
(-44.0896 9.1721 13.0996)
(-51.5697 17.3604 12.7571)
(-33.8992 18.6577 18.9153)
(-40.0917 18.0932 18.5936)
(-42.3496 10.0983 13.5917)
(-44.6196 7.88754 15.2032)
(-36.1167 18.4082 15.5046)
(-34.2949 18.0721 15.1941)
(-39.3647 5.98413 16.0696)
(-36.9548 10.6095 25.6822)
(-27.8993 9.377 17.4015)
(-29.5617 10.1167 24.7042)
(-34.1608 16.3824 20.0872)
(-33.566 13.1142 18.9057)
(-32.3334 13.5832 21.2467)
(-30.4113 8.95069 22.8305)
(-10.6259 2.88032 -11.6407)
(-2.25008 1.01142 -24.6276)
(-2.62858 -5.01283 25.8317)
(-9.40844 3.89244 26.2115)
(0.112347 -3.8237 -8.94104)
(6.61868 -10.282 -0.764314)
(-0.578859 -3.03682 4.43442)
(0.101312 -0.919034 12.3234)
(3.35507 4.73382 -8.45743)
(-9.68148 3.75623 -60.1804)
(-9.73999 -2.48119 13.8623)
(-19.0623 8.21484 16.0051)
(-9.7954 9.5445 -17.8756)
(-9.27884 8.25762 -24.9058)
(-17.0879 3.70091 3.04275)
(-13.207 0.625092 10.5185)
(-6.02474 -5.75526 26.541)
(-12.71 -4.0826 23.1305)
(-10.088 -1.18045 20.7676)
(-18.1036 4.72261 28.5424)
(-10.2347 -4.75924 24.0213)
(-8.9138 -6.25707 26.7652)
(-12.8847 1.21763 22.861)
(-13.1026 -0.54278 24.636)
(-12.8887 7.35607 32.3203)
(-16.4436 12.049 30.1326)
(-19.2463 6.99975 30.7667)
(-15.2089 9.33327 31.3433)
(-13.5797 7.69854 31.7844)
(-16.5153 9.26381 30.1286)
(-15.3434 7.19475 32.5543)
(-17.3906 6.7856 31.0379)
(-2.70579 4.67061 -20.0219)
(-5.5772 -5.04573 27.3433)
(-10.7881 4.1538 30.093)
(-18.6535 6.33115 24.0312)
(-7.10492 -0.60967 -5.88403)
(-1.66751 -3.81598 2.43493)
(-15.828 5.67957 20.9362)
(-12.6034 5.89613 24.501)
(1.98384 0.239378 -19.0419)
(-16.5902 4.25544 12.0006)
(-5.50397 -5.68118 14.5732)
(-4.22187 -13.0691 16.7237)
(-5.22904 1.04011 -0.190268)
(-13.6988 -6.32763 6.15033)
(-6.72031 -8.53849 11.8295)
(-9.21695 -10.9479 16.4359)
(-12.0939 -2.41635 31.4721)
(-12.2468 3.53002 32.4826)