/*--------------------------------*- C++ -*----------------------------------*\
| =========                 |                                                 |
| \\      /  F ield         | OpenFOAM: The Open Source CFD Toolbox           |
|  \\    /   O peration     | Version:  2506                                  |
|   \\  /    A nd           | Website:  www.openfoam.com                      |
|    \\/     M anipulation  |                                                 |
\*---------------------------------------------------------------------------*/
FoamFile
{
    version     2.0;
    format      ascii;
    arch        "LSB;label=32;scalar=64";
    class       volScalarField;
    location    "1200";
    object      p;
}
// * * * * * * * * * * * * * * * * * * * * * * * * * * * * * * * * * * * * * //

dimensions      [0 2 -2 0 0 0 0];

internalField   nonuniform List<scalar> 
50112
(
-0.00350626
-0.0172991
-0.0246156
-0.016547
-0.00690538
-0.0160464
-0.0163077
-0.0264675
-0.0381649
-0.0745204
-0.065962
-0.0664836
-0.0484726
-0.0587401
-0.0575383
-0.0702149
-0.0349114
-0.0409868
-0.0156175
-0.0406813
-0.0417246
-0.0371616
-0.037968
-0.0267977
-0.0390934
-0.0688519
-0.0665961
-0.0658017
-0.0542034
-0.0607575
-0.061785
-0.0702636
-0.0223557
-0.0356625
-0.0250856
-0.046052
-0.034644
-0.0310779
-0.0378002
-0.0355539
-0.0349144
-0.0570648
-0.0540923
-0.03685
-0.0492283
-0.0510836
-0.040302
-0.0538247
-0.0377693
-0.0332826
-0.0616856
-0.0524855
-0.0405335
-0.0493826
-0.0602447
-0.0555364
-0.0417802
-0.0489258
-0.074896
-0.0570138
-0.0444404
-0.0531752
-0.0535879
-0.0613354
-0.0908378
-0.0730153
-0.0487828
-0.0835398
-0.0913572
-0.0779284
-0.0766419
-0.0630771
-0.0371803
-0.0123836
-0.0417165
-0.0426014
-0.0324034
-0.0299926
-0.0417549
-0.0401419
-0.0244536
-0.0328004
-0.0122888
-0.0183036
-0.0247135
-0.0212778
-0.0154342
-0.0154292
-0.0817534
-0.0770048
-0.0482728
-0.0782035
-0.0833596
-0.0639142
-0.0605539
-0.0513848
-0.0658683
-0.0469801
-0.0846344
-0.0642804
-0.0668344
-0.0566728
-0.0722973
-0.0683044
-0.0594394
-0.05296
-0.0393112
-0.0432815
-0.0602953
-0.051623
-0.051135
-0.04751
-0.0370418
-0.0683716
-0.0612963
-0.0384749
-0.0444454
-0.0606882
-0.0491304
-0.056449
-0.0360353
-0.0349791
-0.0556438
-0.0390428
-0.0373959
-0.0429764
-0.0438046
-0.0513069
-0.02217
-0.0928118
-0.0271004
-0.033066
-0.0435156
-0.0721538
-0.0741335
-0.0932921
-0.0986453
-0.128131
-0.0291971
-0.116535
-0.0909372
-0.0475776
-0.0477368
-0.0207626
-0.00977234
-0.00538257
-0.00653807
-0.0202116
-0.0104071
-0.00823493
-0.0113818
-0.00874792
0.0177894
-0.0502689
-0.0682865
-0.0989838
0.0442688
-0.140216
-0.0751261
-0.0490391
-0.0772239
-0.0256283
-0.0474957
-0.0556648
-0.0409836
-0.11186
-0.0766053
-0.118996
-0.0450532
-0.0451017
-0.0177934
-0.0187041
-0.0259022
-0.0335082
-0.0271372
-0.0332055
-0.0166045
-0.101469
0.020539
-0.0326743
-0.0381066
-0.142373
-0.0370354
-0.150988
-0.0108338
-0.0286447
-0.0335681
-0.0101056
-0.0147457
-0.0319727
-0.022791
-0.0470162
-0.12074
-0.0275333
-0.00130902
-0.125032
-0.0203996
0.103635
-0.0900503
-0.060937
0.00208792
-0.000174342
0.0153641
-0.00283365
0.00400277
0.0123062
0.00527207
0.00440741
0.00925717
0.00057876
-0.0254563
-0.0721697
-0.0190115
0.0155193
-0.000337377
-0.00336775
-0.108439
-0.0335627
-0.0948137
-0.115245
-0.0555733
-0.0309886
-0.0230943
-0.0250216
0.000822571
-0.0243541
-0.0534966
-0.0091269
0.000841044
-0.01428
-0.0340264
0.018214
0.0397368
0.000837632
0.008225
0.034076
0.00106096
0.00362008
0.0237318
0.0024754
-0.0160286
-0.081681
-0.00805971
-0.0215672
-0.0587094
-0.049453
-0.0448666
-0.0384229
-0.0235913
-0.0211605
-0.0106623
0.00989172
-0.0275064
-0.0252914
0.00775524
0.0026641
-0.119583
-0.127359
-0.0560662
-0.0363103
-0.0538008
-0.0640559
0.00644534
-0.0568581
-0.107711
-0.133427
-0.0971261
-0.026991
-0.0731479
-0.0686121
-0.0189881
-0.0409074
-0.0358002
-0.062387
-0.0311551
0.0016331
-0.0340853
0.00862616
0.00158677
0.0105188
-0.00874772
-0.00153379
0.0023844
-0.00437691
-0.0108804
-0.00124283
-0.00511624
-0.00695269
-0.0711588
-0.0469959
-0.0219793
-0.024177
-0.0129495
-0.0510666
-0.032224
-0.00412141
-0.079093
-0.0127774
-0.00751474
-0.0428404
-0.0651715
-0.0587414
-0.0790799
-0.0442034
0.0104905
-0.0169997
-0.0188649
0.000116879
-0.0071506
-0.0128351
-0.00896492
-0.00741081
-0.0407884
-0.00323067
-0.010891
-0.0042273
-0.0409394
-0.00210518
-0.038665
-0.013633
-0.18153
-0.0339474
-0.165717
-0.0600952
-0.0293246
0.0522491
-0.0980921
-0.00883712
-0.0028051
0.00196882
0.000935721
0.00828294
0.00403993
0.00340137
0.00286342
0.00132519
-0.120284
-0.0253
-0.076355
-0.0359525
-0.0250296
0.00633034
-0.0651022
-0.0219896
-0.0189274
0.0151469
-0.0232509
0.0112962
-0.0966606
0.0391369
0.00865555
-0.0903931
-0.00360177
-0.0128256
-0.0135589
0.00933809
-0.00711769
-0.0222768
0.00285473
-0.00227687
0.0212304
0.00467481
0.0129321
0.0393539
0.00358717
-0.00296104
-0.0337936
0.00367732
-0.0514004
-0.0345698
0.00871901
-0.0418452
-0.0270073
-0.0052014
-0.0150847
0.0226775
-0.0246481
-0.0225174
-0.00146106
-0.00951119
-0.0210409
-0.0045019
0.00439576
0.00712621
-0.161849
-0.0413648
-0.167613
-0.0585036
-0.0280836
0.0263901
-0.0941285
-0.0510585
-0.0115049
-0.0075726
-0.0038292
-0.00318606
-0.008186
-0.00319934
-0.00626733
-0.00318459
-0.12112
-0.0221737
-0.0735097
-0.033357
-0.0424291
-0.00920035
-0.0757528
-0.032544
-0.033175
0.0106134
-0.0318495
0.016532
-0.0807579
0.0233787
0.0240984
-0.082666
-0.0103448
-0.0437502
-0.0194865
-0.00476615
-0.020215
-0.0271513
-0.00725569
-0.0086911
0.0103149
-0.00179006
0.000170417
0.000983318
-0.00277966
-0.00866891
-0.0379699
-0.0180885
-0.0864412
-0.0492577
-0.0012612
-0.0682603
-0.0555395
-0.0358441
-0.0394652
0.00834249
-0.0465367
-0.0363452
-0.000747198
-0.00934693
-0.0409756
-0.0251064
-0.0149149
-0.00974114
-0.249562
-0.0672874
-0.237173
-0.165673
-0.136446
-0.0888774
-0.156804
-0.100947
-0.0218638
-0.00689577
-0.0154474
-0.0136126
-0.0162283
-0.0141965
-0.0160472
-0.0175732
-0.193244
-0.0453051
-0.136685
-0.0957689
-0.0480892
-0.0626669
-0.082346
-0.0838635
-0.120959
-0.0370444
-0.0847051
-0.0797322
-0.0544343
-0.0589642
-0.0618152
-0.0604409
-0.0599474
-0.103013
-0.0902374
-0.0340583
-0.0633161
-0.0810136
-0.058134
-0.0730999
-0.0676728
-0.026587
-0.0449496
-0.0742858
-0.0738637
-0.033028
-0.0378201
-0.054302
-0.130921
-0.101733
-0.0533508
-0.0684675
-0.143484
-0.0780282
-0.0483914
-0.0627874
-0.0745631
-0.073706
-0.0406588
-0.0447781
-0.0643503
-0.0593265
-0.0540994
-0.0445365
-0.237473
-0.0598125
-0.227554
-0.167294
-0.134672
-0.0906938
-0.160782
-0.10743
-0.0195314
-0.00755734
-0.0180741
-0.020022
-0.0191166
-0.0182667
-0.0239649
-0.0199884
-0.177812
-0.0302492
-0.180283
-0.111651
-0.0770019
-0.0724696
-0.104441
-0.0831502
-0.11263
-0.0282771
-0.0904687
-0.0673614
-0.0434014
-0.0473065
-0.0513055
-0.0447436
-0.060025
-0.0980405
-0.077265
-0.0256446
-0.0625661
-0.0736522
-0.0573209
-0.0704949
-0.0605099
-0.0180933
-0.0314348
-0.0740089
-0.0619725
-0.023596
-0.0395625
-0.0367772
-0.130657
-0.0942686
-0.0405213
-0.0784982
-0.132249
-0.0742752
-0.0619219
-0.0512272
-0.0749851
-0.062119
-0.024509
-0.0336181
-0.0470114
-0.0467996
-0.0448436
-0.0398366
-0.00743876
-0.0205196
-0.0114899
-0.0195851
-0.0110972
-0.0133463
-0.0128039
-0.014461
-0.0694227
-0.304869
-0.160656
-0.243899
-0.0526153
-0.11286
-0.0755455
-0.136751
-0.0368992
-0.108362
-0.0713651
-0.0741825
-0.0581263
-0.0352434
-0.065427
-0.0519652
-0.0408327
-0.209911
-0.103158
-0.170306
-0.0545476
-0.0555581
-0.0842653
-0.0941185
-0.0671904
-0.0280881
-0.0467188
-0.0519577
-0.0627067
-0.0340349
-0.033704
-0.0547934
-0.0491604
-0.102353
-0.0649207
-0.0353238
-0.0636526
-0.06064
-0.0578546
-0.0613355
-0.0409764
-0.0444569
-0.0670269
-0.0779419
-0.049413
-0.0548049
-0.045439
-0.0501248
-0.0462536
-0.0666726
-0.127984
-0.0809819
-0.0573065
-0.0439105
-0.0612557
-0.139018
-0.288551
-0.108507
-0.103493
-0.324198
-0.0968571
0.0411134
-0.175025
-0.0756034
-0.0348442
-0.000998497
-0.0189742
-0.017597
-0.0191721
-0.00862981
-0.0281936
-0.0171094
-0.0659009
-0.0446771
-0.0382513
-0.0300514
-0.050265
-0.0418952
-0.0656254
-0.0554981
-0.278127
-0.0459926
-0.0430464
-0.204847
-0.0651271
0.0272414
-0.120271
-0.0210927
-0.0488959
-0.0743427
-0.0885965
-0.0385143
-0.0726799
-0.0729473
-0.0705045
-0.00174892
-0.0213463
0.000243776
-0.00510596
-0.0637057
-0.0488074
-0.0226926
-0.070189
-0.0293501
-0.0972903
-0.144091
-0.0624914
-0.0884463
-0.0761781
-0.0289539
-0.0326711
-0.0312485
-0.0637896
-0.0286596
-0.0354812
-0.0254802
-0.03692
-0.0246585
-0.0436622
-0.0524307
-0.251343
-0.0949402
-0.0820361
-0.267962
-0.0853374
0.0221249
-0.141976
-0.0590796
-0.0321531
-0.00620834
-0.0212417
-0.0254981
-0.0179573
-0.0129861
-0.0275381
-0.0159703
-0.0471578
-0.039108
-0.0196631
-0.0278605
-0.0307428
-0.0195205
-0.0643609
-0.0214092
-0.225267
-0.0437354
-0.0452746
-0.148014
-0.0795159
-0.00646443
-0.117047
-0.0390576
-0.0397421
-0.0560738
-0.073607
-0.0391333
-0.0663107
-0.0661397
-0.0551641
-0.00680924
-0.0111073
-0.0181947
-0.0168121
-0.0544698
-0.0350937
-0.0321279
-0.0502451
-0.0310018
-0.0761169
-0.103796
-0.0534769
-0.074124
-0.0528205
-0.0208734
-0.0349204
-0.0406916
-0.0410855
-0.0338942
-0.0359673
-0.0279709
-0.0305367
-0.0342755
-0.0400241
-0.0469834
-0.00402563
-0.0292431
-0.0179369
-0.00940912
-0.0355081
-0.0152662
-0.0125926
-0.0140096
-0.066042
-0.374008
-0.276349
-0.11197
0.0891491
-0.0987588
-0.0720907
-0.199413
-0.051358
-0.298233
-0.146718
-0.0449837
0.0510376
-0.0705077
-0.0345691
-0.100891
-0.0591602
-0.0449208
-0.0209526
-0.00850771
-0.0200646
-0.012954
-0.0115073
-0.0433938
-0.0715021
-0.0168672
-0.0152778
-0.0403215
-0.0609546
-0.0410463
-0.0738613
-0.0399143
-0.059826
-0.0483104
-0.0600553
-0.0443421
-0.0688214
-0.0566598
-0.0613561
0.0325253
-0.043324
-0.0287109
-0.0324971
-0.0331251
-0.0656644
-0.062878
-0.0317676
-0.0196006
-0.0724833
-0.0517034
-0.0755259
-0.10928
-0.020447
-0.0166675
-0.00429948
-0.0506806
-0.0721036
-0.0585898
-0.0687853
-0.0324914
-0.0573544
-0.0770178
-0.04228
-0.053475
-0.0751629
-0.083301
-0.0669793
-0.0192382
-0.0328622
-0.0700786
-0.021669
-0.0394946
-0.0613429
-0.0521122
-0.0460826
-0.0283296
-0.0470189
-0.0595305
-0.0298511
-0.0354076
-0.0144071
-0.0085331
-0.0103029
-0.00842907
-0.0115385
-0.0111333
-0.0105284
-0.011001
-0.0492913
-0.0467982
-0.0332896
-0.0198968
-0.0350653
-0.0419522
-0.0333988
-0.0342341
-0.0773891
-0.0239121
-0.0554009
-0.062251
-0.0475888
-0.057281
-0.0460067
-0.051738
-0.0329469
-0.0241846
-0.0135399
-0.0178488
-0.0369916
-0.0290824
-0.0241819
-0.0213702
-0.0390776
-0.0222293
-0.0179598
-0.04433
-0.0355935
-0.0292436
-0.0356454
-0.0291503
-0.00147427
0.00116978
-0.00394368
-0.0115596
-0.000547046
-0.00140139
-0.00461719
-0.00312193
-0.0108896
-0.0914509
-0.0606509
-0.0691072
-0.00757245
-0.0196394
-0.0211429
-0.0571267
-0.0107053
-0.0840148
-0.0396603
0.0285989
-0.105676
-0.0659052
-0.102318
-0.0506074
-0.0534249
-0.00614357
0.0167376
-0.0811384
-0.0215023
-0.130173
-0.0291156
0.100505
-0.00100001
-0.00148593
-0.0143614
-0.00372422
-0.0147401
-0.00772225
-0.0207875
-0.0212191
-0.00778847
-0.00610852
-0.0179027
-0.0110178
-0.0183429
-0.011843
-0.0190898
0.00601755
-0.00523451
-0.0159442
0.0613845
-0.0627901
-0.0258711
-0.0144601
-0.129408
-0.163564
-0.0133181
0.0152696
-0.023457
-0.0494848
-0.0978982
-0.105825
-0.0174494
-0.0574835
-0.0801546
-0.0556695
-0.0297968
-0.0668832
-0.0552906
-0.0540041
-0.0563409
-0.053109
-0.0507946
-0.123377
-0.00728944
-0.0628191
-0.0182768
-0.0946616
-0.0476468
-0.108567
-0.012113
-0.00979923
-0.00564183
-0.00751891
-0.0101153
-0.00932329
-0.00977379
-0.00570451
-0.0669297
-0.071195
-0.0122881
-0.0752377
-0.0721063
-0.0546047
-0.030675
-0.0396728
-0.0525216
-0.0304025
-0.0531775
-0.0323088
-0.0486694
-0.0443279
-0.0615991
-0.0533142
-0.0635004
-0.0617258
-0.0217685
-0.0231878
-0.0407808
-0.052586
-0.0304732
-0.0177098
-0.0209776
-0.0326572
-0.0429501
-0.0195319
-0.0229595
-0.0197534
-0.0190807
-0.0226524
-0.0118561
-0.00945761
-0.0411652
-0.0206323
-0.0135148
-0.0176592
-0.0206176
-0.0187865
-0.0526411
-0.0441009
-0.0619394
-0.0327637
-0.0424448
-0.0481806
-0.0419291
-0.0434274
-0.0151719
-0.00550752
-0.00971329
-0.0173446
-0.0154271
-0.0118064
-0.0177642
-0.0136785
-0.074315
-0.033721
-0.0932979
-0.0412529
-0.052923
-0.059311
-0.0520489
-0.0578091
-0.0157971
-0.0182332
-0.0191326
-0.00977373
-0.0143493
-0.0197274
-0.0111688
-0.0161002
-0.0336145
-0.0471627
-0.0271528
-0.0235537
-0.0378361
-0.0338515
-0.0268099
-0.033521
-0.0277873
-0.0229098
-0.0346189
-0.0497671
-0.0308899
-0.0218337
-0.0381625
-0.0331657
-0.0468033
-0.0233123
-0.0238522
-0.0269063
-0.0378364
-0.0284457
-0.030042
-0.0225003
-0.0469662
-0.0317363
-0.0228101
-0.0290844
-0.0216321
-0.0335944
-0.0297649
-0.0253653
-0.00310931
-0.0024389
-0.0027869
-0.0107728
-0.00592206
-0.00255663
-0.00758637
-0.00505028
-0.00161469
-0.00119956
-0.00164872
-0.00628744
-0.00254821
-0.00130234
-0.00347197
-0.00243485
-0.00343731
-0.00251356
-0.00317254
-0.0118824
-0.00552883
-0.00240561
-0.00821143
-0.00483517
-0.0129327
-0.0108112
-0.0134309
-0.0100129
-0.0119498
-0.0125198
-0.011813
-0.0126195
-0.00347304
-0.00514567
-0.0120169
-0.00847093
-0.0054821
-0.00721135
-0.00911341
-0.00964382
-0.0014747
-0.00747235
-0.00166813
-0.00244568
-0.00285956
-0.0044578
-0.00220039
-0.00348085
-0.00839249
-0.0129643
-0.00922184
-0.0140112
-0.0101569
-0.0117185
-0.0117545
-0.0117662
-0.00544561
-0.0121725
-0.00841966
-0.00336524
-0.00773088
-0.00833345
-0.0056208
-0.00815267
-0.0026839
-0.00655867
-0.00523316
-0.00669994
-0.00476948
-0.00512582
-0.00532559
-0.00595348
-0.00863913
-0.00760165
-0.00778222
-0.00806306
-0.0086748
-0.00816816
-0.00820434
-0.00795613
-0.00649187
-0.00747799
-0.00691369
-0.00777908
-0.00756743
-0.00736157
-0.00755042
-0.00741814
-0.0097465
-0.00812521
-0.00860791
-0.00909243
-0.0091373
-0.00873376
-0.00908118
-0.00861992
-0.00779055
-0.0067928
-0.00856908
-0.00865912
-0.0080014
-0.00734751
-0.0091169
-0.00838982
-0.00762934
-0.00827456
-0.00781939
-0.00681718
-0.0081061
-0.00853304
-0.00722815
-0.00818847
-0.00708771
-0.00871957
-0.00853235
-0.00836564
-0.00777814
-0.00862758
-0.00841973
-0.00868311
-0.00726499
-0.00814188
-0.00822338
-0.00780432
-0.00795667
-0.00808788
-0.00798327
-0.00812742
-0.111533
-0.0942569
-0.0868223
-0.0202961
-0.0268708
-0.100418
0.00977668
-0.0407739
-0.0945512
-0.0278123
0.00423915
-0.0198929
-0.0704167
-0.0445722
-0.0941874
-0.0881323
-0.0133383
-0.012629
-0.112005
-0.0619995
-0.110487
0.0803737
-0.0246205
-0.0183135
-0.00646734
-0.0136827
-0.0267408
-0.010358
-0.00968606
-0.013827
-0.00992109
-0.0144172
-0.0320821
-0.0263154
-0.0116609
-0.0191118
-0.0123367
-0.0247047
-0.0306224
-0.0353463
-0.0771727
-0.019415
0.0265285
-0.0422383
-0.0290706
-0.105181
-0.056991
-0.114306
-0.0279223
0.00152782
-0.0155503
-0.0271328
-0.0502752
-0.0184899
-0.0309914
-0.0214693
0.0398591
-0.0221074
-0.0115907
-0.0449809
-0.159112
-0.0208578
-0.128942
-0.0371759
-0.0666533
-0.0297372
-0.0279358
-0.0560894
-0.0519763
-0.0603199
-0.0342111
-0.0415976
-0.00479494
-0.00605141
-0.0219347
-0.0177368
-0.0170981
-0.0165274
-0.0172103
-0.0150038
-0.0407759
-0.0451015
-0.0421763
-0.0631815
-0.0512224
-0.0520801
-0.040641
-0.0528222
-0.0825003
-0.0371713
-0.0702124
-0.107032
-0.0773774
-0.0668669
-0.0696946
-0.0746402
-0.0378481
-0.0428127
-0.0717453
-0.036954
-0.0387949
-0.062552
-0.0321395
-0.0771713
-0.0411829
-0.0343716
-0.031092
-0.0437445
-0.0364583
-0.0335148
-0.0310469
-0.031428
-0.0264875
-0.0482154
-0.0335167
-0.0526117
-0.0569491
-0.0588674
-0.0587443
-0.0624027
-0.0317209
-0.0577685
-0.0307805
-0.0326144
-0.0497478
-0.0588504
-0.0368872
-0.04307
-0.0190979
-0.0344226
-0.0273923
-0.0276833
-0.0215006
-0.0233643
-0.00631836
-0.0261328
-0.0202045
-0.00563665
-0.01542
-0.0164997
-0.0162491
-0.0122876
-0.0189794
-0.0143749
-0.00733381
-0.0126444
-0.00427384
-0.0105302
-0.00967163
-0.00748853
-0.00595348
-0.00529574
-0.057423
-0.0419211
-0.0297507
-0.0794513
-0.0795711
-0.0335692
-0.0502138
-0.0391581
-0.0341042
-0.0323872
-0.0545957
-0.038659
-0.0278055
-0.0213884
-0.0410797
-0.0236096
-0.0200854
-0.0207583
-0.0152137
-0.0173009
-0.0198231
-0.0153736
-0.0229819
-0.0214275
-0.0235327
0.0112281
-0.0295793
-0.0332799
-0.0310683
-0.0275612
-0.0338136
-0.0301294
-0.0140997
-0.0184833
-0.0200195
-0.014759
-0.0140833
-0.0205858
-0.0206832
-0.0232688
-0.0703671
-0.0442364
-0.0529756
-0.0729792
-0.0591121
-0.0548728
-0.0731033
-0.0339856
-0.0291323
-0.0688898
-0.0576398
-0.034509
-0.0385383
-0.0851879
-0.0582593
-0.0865811
-0.0125297
-0.0159478
-0.0058889
-0.0195425
-0.0154704
-0.0141279
-0.0127499
-0.0133464
-0.0707553
-0.0640362
-0.0458074
-0.0539604
-0.0535612
-0.0452916
-0.0760382
-0.0419502
-0.0476441
-0.0640623
-0.0586442
-0.0645261
-0.0877901
-0.0482617
-0.0883531
-0.00903516
-0.0599155
-0.0486486
-0.0338241
-0.0415022
-0.0390477
-0.048382
-0.0623278
-0.0495622
-0.0570226
-0.0564279
-0.0684094
-0.0403469
-0.0472558
0.00623142
-0.0414566
-0.0291212
-0.0378746
-0.0375714
-0.031793
-0.0298367
-0.0412347
-0.0422286
-0.0426279
-0.0435841
-0.0463678
-0.0472063
-0.0501467
-0.0393561
-0.0387056
-0.0537211
-0.0284005
-0.0352149
-0.0175575
-0.00864569
-0.0179797
-0.0230879
-0.0143988
-0.0110115
-0.019458
-0.0155469
-0.0695431
-0.0582428
-0.0974562
-0.0356335
-0.0575809
-0.0699682
-0.0496806
-0.0631099
-0.0174096
-0.0194756
-0.0228826
-0.0126378
-0.0159685
-0.0228822
-0.0113478
-0.018028
-0.0440632
-0.0417654
-0.0338521
-0.0234026
-0.0393252
-0.0300875
-0.0252685
-0.0335922
-0.041724
-0.0255492
-0.0444985
-0.0567385
-0.0416419
-0.0359502
-0.0545987
-0.0457986
-0.0273541
-0.0275516
-0.0222665
-0.0316186
-0.0394187
-0.0321556
-0.0374614
-0.0258483
-0.0396436
-0.0348213
-0.0239664
-0.041604
-0.0279602
-0.0350141
-0.0443177
-0.0278084
-0.0999365
-0.0555283
-0.0204911
-0.0270272
-0.0577477
-0.0804368
-0.0400011
-0.0373826
-0.114596
-0.1044
-0.0133875
-0.0302581
-0.164179
-0.203135
-0.0325315
-0.0542438
-0.0103892
-0.0203832
-0.00505389
-0.0164037
-0.0180813
-0.0113038
-0.0158085
-0.00999395
-0.0155085
-0.0120671
-0.0163359
-0.00873119
-0.0114873
-0.0147247
-0.0103531
-0.0120576
-0.053035
-0.0300215
-0.0262687
-0.0298628
-0.0249226
-0.0196293
-0.0284047
-0.0260614
-0.0415301
-0.0365261
-0.035434
-0.0287545
-0.0265401
-0.0168181
-0.0307989
-0.027292
-0.0244924
-0.0201132
-0.0187613
-0.0189166
-0.0246138
-0.0224309
-0.0248794
-0.0185406
-0.0239216
-0.0182569
-0.0225992
-0.0204379
-0.0168948
-0.0256186
-0.0291558
-0.026929
-0.00215831
-0.00278491
-0.00659706
-0.00682355
-0.00341789
-0.00376557
-0.00528754
-0.00539426
-0.0042104
-0.00557022
-0.0121828
-0.0117771
-0.00669903
-0.00706751
-0.00908061
-0.0108466
-0.00881742
-0.0103155
-0.00790753
-0.00813694
-0.0100315
-0.00961893
-0.00870996
-0.00902443
-0.0104776
-0.0117842
-0.00822614
-0.00919917
-0.0101582
-0.0108668
-0.00949196
-0.00984599
-0.00471997
-0.00801408
-0.00851265
-0.0104702
-0.00726074
-0.00749199
-0.00878319
-0.00931518
-0.00514574
-0.0112925
-0.0103117
-0.00871485
-0.00712003
-0.0104394
-0.00888544
-0.00985836
-0.00803998
-0.00905041
-0.0112867
-0.00912947
-0.0095815
-0.00951521
-0.0103066
-0.0106914
-0.00842641
-0.00908665
-0.0119469
-0.0120792
-0.0101847
-0.0109317
-0.0101413
-0.0123167
-0.00603848
-0.0196642
-0.0218956
-0.0184452
-0.015632
-0.0183929
-0.0189155
-0.0218771
-0.0462152
-0.0629142
-0.0513838
-0.029343
-0.0397289
-0.0607772
-0.0389473
-0.0480242
-0.036822
-0.0497404
-0.012238
-0.0182924
-0.0429209
-0.0535241
-0.037743
-0.0282838
-0.015943
-0.0129898
-0.0080423
-0.0084687
-0.0120149
-0.0131464
-0.00912821
-0.00767867
-0.0312223
-0.030606
-0.0211258
-0.0246264
-0.0325471
-0.0259893
-0.0274521
-0.0262277
-0.0451901
-0.0269621
-0.0561634
-0.0356369
-0.0368599
-0.0321549
-0.039358
-0.0426693
-0.0300473
-0.0193924
-0.0181952
-0.0144195
-0.0254801
-0.0232245
-0.0210371
-0.0181243
-0.0341892
-0.0159707
-0.0225957
-0.0506982
-0.0365727
-0.0264303
-0.0437262
-0.028578
-0.00886433
-0.0135782
-0.013934
-0.021321
-0.014382
-0.0134674
-0.0141353
-0.0147611
-0.0411644
-0.0779486
-0.0620409
-0.0506621
-0.102004
-0.1155
-0.082015
-0.0626515
-0.049859
-0.0750479
-0.082108
-0.0757499
-0.0638769
-0.0806766
-0.0862946
-0.0846022
-0.0423184
-0.0705162
-0.0868172
-0.0980196
-0.0485173
-0.0621997
-0.0861146
-0.0899984
-0.0292219
-0.0304493
-0.0404611
-0.0703199
-0.0415318
-0.033056
-0.0568225
-0.0463733
-0.0299114
-0.0731434
-0.100878
-0.0365148
-0.0485761
-0.0850118
-0.0482759
-0.0908572
-0.0436474
-0.0439341
-0.0681479
-0.0771662
-0.0466565
-0.051412
-0.046261
-0.0463881
-0.0527832
-0.0714657
-0.0609205
-0.0673412
-0.0739965
-0.062922
-0.0827477
-0.0576316
-0.00657555
-0.0194624
-0.0225034
-0.0100055
-0.013321
-0.0170278
-0.0142627
-0.0189814
-0.0430204
-0.111673
-0.0608234
-0.0723147
-0.0351775
-0.0914315
-0.0585401
-0.101564
-0.0510092
-0.0499433
-0.0575305
-0.0419608
-0.0525808
-0.0585147
-0.0552631
-0.0664023
-0.0725061
-0.0385641
-0.047303
-0.0784723
-0.0484961
-0.0501404
-0.0476938
-0.0626222
-0.0331433
-0.0332075
-0.0339643
-0.0445172
-0.0373879
-0.0338563
-0.0482135
-0.0431484
-0.0362015
-0.0748366
-0.066181
-0.0416115
-0.050291
-0.0588967
-0.0511046
-0.0546637
-0.0441621
-0.0457596
-0.0502383
-0.0512244
-0.0479588
-0.0498673
-0.0495559
-0.0418346
-0.0478205
-0.0474816
-0.0643411
-0.0684602
-0.0537261
-0.0583229
-0.0504057
-0.039568
-0.0478226
-0.0300477
-0.0435505
-0.0563753
-0.0403567
-0.0403856
-0.0388633
-0.040014
-0.00867088
-0.00499223
-0.00503287
-0.0123703
-0.00813395
-0.000590148
-0.0107146
-0.00825205
-0.0476153
-0.0213224
-0.0632465
-0.0640294
-0.0438502
-0.0261214
-0.0545651
-0.0461118
-0.0614374
-0.0369
-0.062358
-0.0665048
-0.0516236
-0.0518256
-0.0528357
-0.0565425
-0.0231425
-0.044084
-0.0459225
-0.0281649
-0.0326211
-0.0461094
-0.0331054
-0.0484981
-0.012493
-0.0236805
-0.0045361
-0.0447935
-0.0210575
-0.015879
-0.0280237
-0.0188912
-0.0351462
-0.0480522
-0.0331996
-0.0515358
-0.0518205
-0.0444348
-0.044688
-0.0456277
-0.04035
-0.0347569
-0.0250197
-0.0149859
-0.0405042
-0.0345706
-0.0305477
-0.0328429
-0.00777579
-0.0221547
-0.0181718
-0.0169094
-0.0129942
-0.0174814
-0.0169151
-0.0197067
-0.0365195
-0.0198191
-0.0202624
-0.0364528
-0.0376923
-0.0165094
-0.0336385
-0.0160077
-0.0133643
-0.00814991
-0.00725044
-0.0116531
-0.0146714
-0.00958367
-0.0108316
-0.0042172
-0.0332781
-0.0332037
-0.0300101
-0.0538778
-0.0426103
-0.0365296
-0.0443109
-0.0377259
-0.029271
-0.0214185
-0.0271786
-0.0371372
-0.0288938
-0.0249812
-0.0322084
-0.0297873
-0.02473
-0.0319025
-0.0164774
-0.0188089
-0.0236381
-0.0317091
-0.0208419
-0.0292063
-0.0188597
-0.0299902
-0.0326789
-0.023431
-0.0223755
-0.0302748
-0.0297451
-0.0308423
-0.0175512
-0.0160474
-0.0270169
-0.0077476
-0.013247
-0.0216406
-0.0196472
-0.0317897
-0.0398732
-0.0328364
-0.0402563
-0.0276692
-0.0435725
-0.0487959
-0.0417655
-0.0423288
-0.0313014
-0.0402344
-0.0360217
-0.0235011
-0.024916
-0.0295435
-0.0368176
-0.0388427
-0.0238682
-0.0240612
-0.0104459
-0.0227631
-0.0221988
-0.0178284
-0.0168622
-0.0122267
-0.0144517
-0.0119237
-0.0188561
-0.0121722
-0.0102868
-0.0156325
-0.0115086
-0.0147697
-0.0295563
-0.0326849
-0.0205068
-0.016209
-0.0385346
-0.0357554
-0.0241675
-0.0271329
-0.0398389
-0.0233621
-0.0371488
-0.0390022
-0.0393522
-0.0353752
-0.0392992
-0.0313464
-0.0297958
-0.0190202
-0.0135068
-0.0198612
-0.0238519
-0.0242315
-0.0228647
-0.020255
-0.0330571
-0.0211655
-0.0160433
-0.0299978
-0.03023
-0.0256806
-0.0301952
-0.0270123
-0.0680317
-0.0495266
-0.0399619
-0.046244
-0.058534
-0.0596841
-0.0695178
-0.0451226
-0.0537313
-0.0566469
-0.0437245
-0.0284328
-0.0491338
-0.115088
-0.0798052
-0.106434
-0.014946
-0.0185235
-0.00675118
-0.0149349
-0.013348
-0.0175101
-0.0127138
-0.0165833
-0.0587276
-0.0426458
-0.050225
-0.095862
-0.0704903
-0.0642986
-0.0853168
-0.0517475
-0.0507772
-0.0477406
-0.0410978
-0.0488615
-0.0691036
-0.049019
-0.0544026
-0.0577446
-0.0902088
-0.0757617
-0.0285434
-0.027823
-0.0941123
-0.102354
-0.0438112
-0.0427586
-0.0403265
-0.0554335
-0.0696431
-0.0479136
-0.0460882
-0.0477034
-0.0520962
-0.0524566
-0.0247452
-0.0460932
-0.0610263
-0.0165007
-0.0261308
-0.045434
-0.0323664
-0.0602956
-0.0673182
-0.0455485
-0.0668243
-0.0283411
-0.0499602
-0.0538825
-0.0449477
-0.0485678
-0.0201818
-0.00754601
-0.0207507
-0.0191371
-0.0171436
-0.0176514
-0.0161009
-0.0142267
-0.0663544
-0.0424207
-0.060741
-0.0251332
-0.0505474
-0.0467765
-0.0425264
-0.0420232
-0.013604
-0.0142452
-0.0114461
-0.00911239
-0.0122768
-0.0154743
-0.00873991
-0.0130509
-0.0371255
-0.0511221
-0.0251071
-0.0220149
-0.036618
-0.0336671
-0.0256256
-0.0294689
-0.0360093
-0.0247563
-0.0373074
-0.0457004
-0.0348881
-0.0288471
-0.0471815
-0.0403671
-0.0479414
-0.0195429
-0.0195581
-0.0113694
-0.0309223
-0.0228148
-0.0233124
-0.016241
-0.04291
-0.0221026
-0.0209441
-0.0347277
-0.0292185
-0.0323397
-0.0356577
-0.0224763
-0.0693077
-0.00227638
-0.0207689
-0.0822257
-0.0716432
-0.0343118
-0.0314577
-0.010677
-0.172096
-0.141834
-0.0887168
-0.0141387
-0.129628
-0.0702428
-0.0487549
0.0392465
-0.0247642
-0.0237577
-0.00794677
-0.0296145
-0.0258893
-0.00733137
-0.0132194
0.0114124
-0.0544176
-0.0577789
-0.0393404
-0.0533677
-0.0599439
-0.0485489
-0.0480648
-0.0401273
-0.00727366
-0.0238645
-0.0861292
-0.0145063
-0.0943484
-0.0210265
-0.0191152
-0.0369594
-0.0426361
-0.0159492
-0.0378663
-0.0389552
-0.066797
-0.0674025
-0.0652488
-0.0645322
-0.0257003
-0.0447143
-0.0440424
-0.0288177
-0.0313053
-0.0271039
-0.0292721
-0.0221073
-0.039577
-0.0294064
-0.0376841
0.0220477
-0.0468216
-0.0319813
-0.0214768
-0.0501779
-0.0697473
-0.0449242
-0.0441486
-0.0638714
-0.0910251
-0.0325925
-0.0591926
-0.0416874
-0.0547179
-0.102147
-0.0426305
-0.08462
-0.092221
-0.0850091
-0.076988
-0.0482284
-0.029198
-0.0170656
-0.0067708
-0.019244
-0.0280939
-0.0180963
-0.0170584
-0.0162885
-0.0653765
-0.0711332
-0.0440003
-0.0751767
-0.0815634
-0.0667609
-0.0652075
-0.0350096
-0.0570424
-0.0437364
-0.0553669
-0.0802486
-0.050687
-0.0631744
-0.0430594
-0.0608291
-0.0718374
-0.0781689
-0.0403369
-0.0307579
-0.0774848
-0.0708893
-0.0410437
-0.0456889
-0.033603
-0.0642516
-0.0692736
-0.0375961
-0.0387493
-0.0723026
-0.0428245
-0.0561543
-0.0304524
-0.0382228
-0.0416413
-0.0458479
-0.0356818
-0.0385064
-0.0378766
-0.0436147
-0.123472
-0.012671
-0.0868706
-0.0773013
-0.0282599
-0.0172252
-0.0787488
-0.0403593
0.000468312
-0.00648934
-0.011558
-0.00636864
-0.00563396
-0.00752144
-0.00495307
-0.00797179
-0.0270588
-0.0384567
-0.0553936
-0.0351003
-0.0621333
-0.0555053
-0.0410744
-0.0530508
-0.069311
-0.028134
-0.0432686
-0.054715
-0.0435781
-0.0445258
-0.0622452
-0.0641164
-0.00906391
-0.0426943
-0.0318738
-0.0158681
-0.0221915
-0.0290696
-0.0187319
-0.0177949
-0.0044157
-0.0101762
-0.0166975
-0.0356495
-0.0194589
-0.0109229
-0.0293275
-0.0231837
-0.0624231
-0.0593141
-0.0261041
-0.0439085
-0.0547968
-0.0283741
-0.0599621
-0.0463476
-0.026835
-0.0434469
-0.0214931
-0.0296236
-0.064285
-0.0626081
-0.036104
-0.0358207
-0.00662348
-0.00715113
-0.00617396
-0.00637124
-0.0067931
-0.00702732
-0.00642297
-0.00664482
-0.00753598
-0.00751282
-0.00767857
-0.00758787
-0.00760696
-0.00788277
-0.0075809
-0.00796554
-0.00500977
-0.00579329
-0.00259058
-0.00483867
-0.00523773
-0.00476327
-0.00419365
-0.00376111
-0.00621891
-0.00693955
-0.00583172
-0.00625954
-0.00646857
-0.00663422
-0.00620968
-0.00627244
-0.00726919
-0.00637094
-0.00654718
-0.00709407
-0.00698531
-0.0068466
-0.00695131
-0.00676583
-0.00753691
-0.00736733
-0.00726168
-0.00649617
-0.00732076
-0.0074498
-0.00672854
-0.00703084
-0.00575986
-0.00623068
-0.00682779
-0.0056494
-0.00608287
-0.00643216
-0.00623015
-0.00661581
-0.00583367
-0.00563897
-0.00713632
-0.00696008
-0.00613226
-0.00620025
-0.00661453
-0.00695604
-0.0872872
-0.0560868
-0.101671
-0.0613525
-0.0881332
-0.0703223
-0.0611107
-0.0883022
-0.0531061
-0.0712309
-0.0462836
-0.0318358
-0.0581124
-0.0581529
-0.0421034
-0.0649365
-0.117088
-0.0562025
-0.061835
-0.0402626
-0.0826217
-0.0635622
-0.107589
-0.0852762
-0.017032
-0.00930139
-0.0154485
-0.00713902
-0.0130704
-0.0148618
-0.0156191
-0.0113908
-0.0664984
-0.0750575
-0.0447745
-0.0384629
-0.0505533
-0.0631237
-0.0585882
-0.053443
-0.0648369
-0.0387252
-0.0530326
-0.0865311
-0.0644953
-0.0425431
-0.0822136
-0.0656137
-0.0421583
-0.0355133
-0.0355536
-0.0390723
-0.0447088
-0.0468489
-0.045555
-0.0390351
-0.0922955
-0.0421359
-0.0346554
-0.0659918
-0.0740348
-0.0394274
-0.0592442
-0.0390751
-0.0032096
-0.00337827
-0.00291585
-0.00266648
-0.00316226
-0.00328638
-0.00291556
-0.0029713
-0.00366907
-0.00403359
-0.00348774
-0.0031582
-0.00374968
-0.00393358
-0.00335669
-0.00353304
-0.00217122
-0.00234958
-0.000919228
-0.000759925
-0.00182253
-0.00197271
-0.00138039
-0.00124861
-0.00180445
-0.00188507
-0.000716503
-0.000638583
-0.00153577
-0.00160834
-0.00113658
-0.00108514
-0.00343167
-0.00271464
-0.00251068
-0.0028117
-0.00306201
-0.00285078
-0.00282061
-0.00257175
-0.00357194
-0.00293608
-0.00324714
-0.00285085
-0.00317704
-0.00312649
-0.00311108
-0.00304658
-0.00241695
-0.00215235
-0.00222791
-0.00121962
-0.00189979
-0.00216326
-0.00164885
-0.00189495
-0.00239579
-0.00114823
-0.00229038
-0.00249927
-0.00212919
-0.00174265
-0.00243574
-0.00208587
-0.00482033
-0.00444271
-0.00388488
-0.00510866
-0.00471585
-0.00458766
-0.00459104
-0.00443022
-0.00329483
-0.00135895
-0.00105517
-0.00376486
-0.00303627
-0.0020876
-0.00294625
-0.00217649
-0.00235856
-0.000933042
-0.000737819
-0.00264124
-0.00215515
-0.00141754
-0.00214182
-0.00144915
-0.00563999
-0.00537472
-0.00468765
-0.00625885
-0.00578018
-0.00536687
-0.00566301
-0.00522972
-0.00423956
-0.00361459
-0.00518669
-0.00479425
-0.00419078
-0.00413385
-0.0049052
-0.00496396
-0.00378159
-0.00398586
-0.00174975
-0.00308732
-0.00365236
-0.00321345
-0.0027625
-0.00253236
-0.00356567
-0.0050667
-0.00471208
-0.00397953
-0.0042021
-0.00481302
-0.00407521
-0.0045531
-0.00303063
-0.00332003
-0.00386553
-0.00179097
-0.00262404
-0.00333464
-0.00244308
-0.00313226
-0.0032159
-0.00337412
-0.00278184
-0.00312247
-0.00321295
-0.00320979
-0.00311543
-0.00301749
-0.0036069
-0.00393579
-0.00321282
-0.00363466
-0.00373318
-0.00375169