/*--------------------------------*- C++ -*----------------------------------*\
| =========                 |                                                 |
| \\      /  F ield         | OpenFOAM: The Open Source CFD Toolbox           |
|  \\    /   O peration     | Version:  2506                                  |
|   \\  /    A nd           | Website:  www.openfoam.com                      |
|    \\/     M anipulation  |                                                 |
\*---------------------------------------------------------------------------*/
FoamFile
{
    version     2.0;
    format      ascii;
    arch        "LSB;label=32;scalar=64";
    class       volVectorField;
    location    "1600";
    object      U;
}
// * * * * * * * * * * * * * * * * * * * * * * * * * * * * * * * * * * * * * //

dimensions      [0 1 -1 0 0 0 0];

internalField   nonuniform List<vector> 
71680
(
(0.00287524 -0.00448336 1.07624)
(0.00409286 -0.00985574 1.07001)
(0.006568 -0.00791315 1.114)
(-0.00166349 0.00281419 1.07784)
(0.00562801 -0.00467348 1.07631)
(0.00838193 -0.00776083 1.07658)
(0.00499103 -0.00323115 1.07879)
(0.00399845 -0.0016552 1.08137)
(0.00576267 -0.0194087 1.06867)
(0.00692202 -0.0245233 1.06855)
(0.0107025 -0.0312613 1.10602)
(0.00540483 -0.00893588 1.08654)
(0.0108748 -0.0205406 1.08397)
(0.0157357 -0.0288193 1.07961)
(0.0124191 -0.0238289 1.08333)
(0.0135808 -0.0266489 1.08192)
(0.0195356 -0.0115712 1.16597)
(0.0207264 -0.0318425 1.16424)
(0.0258343 -0.0276403 1.2711)
(0.0240262 -0.00382355 1.20824)
(0.0201272 -0.0139433 1.20461)
(0.0240938 -0.0267715 1.20507)
(0.0225814 -0.0183543 1.20306)
(0.0273544 -0.0210806 1.2027)
(-0.00221916 0.00855792 1.08415)
(0.000971327 0.00706441 1.08946)
(0.0141505 0.0199137 1.11228)
(-0.000129153 0.016899 1.0882)
(0.00419279 0.00524289 1.09161)
(0.00639913 0.0022683 1.09395)
(0.00543297 0.0119884 1.09363)
(0.00353971 0.0142422 1.09488)
(0.00513797 -0.0105395 1.07941)
(0.0178527 -0.00381363 1.12289)
(0.00216534 0.00190424 1.07214)
(0.00841424 -0.00888398 1.08672)
(0.00792771 -0.0113773 1.08077)
(0.00489804 -0.00437202 1.08484)
(0.00406216 -0.0049452 1.08123)
(0.00545641 -0.00713702 1.08214)
(0.011326 -0.0182699 1.07583)
(0.00967641 -0.0149947 1.08922)
(0.0205268 -0.0372261 1.13203)
(0.0183315 -0.0184047 1.12424)
(0.011624 -0.0166884 1.07998)
(0.0156374 -0.0235853 1.09351)
(0.0107893 -0.0219615 1.10753)
(0.00992883 -0.024911 1.13262)
(0.0149856 -0.0118891 1.13293)
(0.00370458 0.00256644 1.08277)
(0.00948918 -0.00555332 1.093)
(0.00716229 -0.00533435 1.15265)
(0.0195469 -0.00301063 1.11896)
(-0.000127114 0.0023441 1.09704)
(0.00870743 -0.00806502 1.12701)
(0.0126144 -0.00447691 1.09768)
(0.016684 -0.0133903 1.13158)
(0.00767874 -0.00314368 1.15037)
(0.00833292 -0.00437311 1.09721)
(0.0199292 -0.0322869 1.13359)
(0.0147813 -0.0250503 1.13823)
(0.0142206 -0.0176332 1.13887)
(0.0164181 -0.0285087 1.13512)
(0.00853203 -0.0101804 1.13845)
(-0.00480069 -0.000105912 1.00095)
(-0.00721205 0.00173305 1.00451)
(-0.00958978 0.00212662 1.00873)
(-0.0059275 -0.000521242 1.00424)
(-0.00611526 0.000810319 1.00234)
(-0.00677553 0.0017632 1.00383)
(-0.00756321 0.000524117 1.00569)
(-0.00760218 0.00101456 1.00542)
(-0.00693958 0.00317552 1.0089)
(-0.00557317 0.00409065 1.01274)
(-0.00597009 0.00417088 1.01512)
(-0.00474947 0.00300476 1.01095)
(-0.00626931 0.0034592 1.00984)
(-0.00596467 0.00492737 1.01218)
(-0.00565294 0.00251063 1.01204)
(-0.00578328 0.00424592 1.01256)
(-0.00938052 0.00321641 1.01635)
(-0.00584029 0.00286707 1.01914)
(-0.00526443 0.00318416 1.02387)
(-0.00631005 0.000214324 1.02032)
(-0.00693424 0.00249034 1.01684)
(-0.00584759 0.00452213 1.02013)
(-0.00684442 0.00126309 1.02018)
(-0.00566164 0.00296233 1.02038)
(-0.00587588 -0.00244234 1.00796)
(-0.00509164 5.8591e-05 1.0113)
(-0.00648656 -0.00171252 1.01751)
(-0.00588405 -0.00463139 1.01378)
(-0.00509867 -0.00169308 1.00887)
(-0.00495014 -0.000873895 1.01031)
(-0.00635304 -0.00315472 1.01339)
(-0.00580923 -0.00260547 1.01261)
(-0.00701865 0.00193838 1.00601)
(-0.00840537 0.00189713 1.00906)
(-0.00589045 5.50579e-05 1.00533)
(-0.00493414 0.00163288 1.00925)
(-0.0073062 0.00120975 1.0082)
(-0.00656731 0.000728366 1.0077)
(-0.00634226 0.00146954 1.00733)
(-0.00603012 0.000697607 1.00684)
(-0.00714927 0.00320855 1.00843)
(-0.00510182 0.00261626 1.01074)
(-0.00617253 0.00415228 1.01439)
(-0.00863605 0.00341052 1.01203)
(-0.00715941 0.00216974 1.00874)
(-0.0054899 0.00229694 1.01085)
(-0.00852181 0.00296455 1.01232)
(-0.00693685 0.00308032 1.01247)
(-0.00904193 0.000879201 1.0131)
(-0.00725883 -0.00106526 1.00921)
(-0.00504167 0.000772554 1.01232)
(-0.00700286 -0.0010988 1.01632)
(-0.00794109 -0.000223977 1.01235)
(-0.00684434 -0.000696762 1.00878)
(-0.00577426 -0.000314385 1.01248)
(-0.00522458 -0.000703889 1.0109)
(-0.00860906 0.00165857 1.01298)
(-0.00614278 -0.000259338 1.01601)
(-0.00495399 0.00123408 1.01212)
(-0.0059822 0.00296418 1.01592)
(-0.00598543 0.00137929 1.01628)
(-0.00554324 0.00116958 1.0148)
(-0.00614638 0.00210853 1.01654)
(-0.005319 0.00160209 1.0152)
(0.014138 -0.00614739 1.22493)
(0.0186879 -0.0109621 1.19944)
(0.00343056 -0.0234343 1.18807)
(0.00719379 0.00270392 1.19609)
(0.0132823 -0.000895669 1.23398)
(0.0309678 -0.0226177 1.22017)
(0.0070078 -0.0100968 1.19821)
(0.00588144 -0.0129536 1.19626)
(0.0202737 -0.0209854 1.19411)
(0.0295167 -0.000909375 1.24653)
(0.0162125 -0.0366553 1.19556)
(0.0145397 5.89976e-05 1.20255)
(0.0228452 -0.0342057 1.2304)
(0.00035906 -0.00860701 1.26149)
(0.0128142 -0.0118515 1.19503)
(0.0185174 -0.0238956 1.19581)
(0.0045327 -0.0375037 1.11552)
(0.00625086 -0.0379358 1.13741)
(0.00592569 -0.0293578 1.07698)
(0.00726544 -0.0147612 1.08926)
(0.00655203 -0.0246816 1.11521)
(0.00484662 -0.0275527 1.11391)
(0.0057837 -0.020315 1.08475)
(0.00598594 -0.0243318 1.08199)
(0.00255615 0.0163815 1.13628)
(0.00580915 0.0116512 1.1362)
(0.00228228 0.00328325 1.09403)
(-0.000717518 0.0238373 1.08663)
(0.00278844 0.0236287 1.12249)
(0.012785 0.00957954 1.12851)
(-0.000863266 0.0159065 1.09696)
(0.00018461 0.00881671 1.09447)
(0.0139025 -0.00631351 1.2119)
(0.00780636 -0.017027 1.19854)
(-0.00174982 0.00593777 1.20258)
(0.0103999 0.0119225 1.21537)
(0.00543837 -0.00798199 1.2088)
(0.00649437 -0.011181 1.19944)
(0.00585794 0.00293994 1.2122)
(0.0071519 0.00515854 1.20581)
(0.0262436 -0.0205336 1.20633)
(0.0135677 -0.0178419 1.21503)
(0.0171129 -0.0312789 1.20618)
(0.00966942 -0.0250602 1.19478)
(0.00585334 -0.00787237 1.20411)
(0.0145192 -0.0141609 1.215)
(0.00579628 -0.0207772 1.19822)
(0.0171361 -0.0251212 1.21345)
(0.00634851 -0.0196491 1.13084)
(0.00111754 0.0180623 1.13461)
(0.00169884 0.0108448 1.16545)
(0.00160991 -0.00196675 1.09133)
(0.00525109 -0.00679344 1.12981)
(0.00232558 -0.00405477 1.13803)
(0.00523759 -0.00431206 1.12567)
(0.00541814 0.0111939 1.12858)
(0.00422215 -0.0205812 1.12881)
(0.0045562 -0.00941592 1.09469)
(0.00273416 -0.00674127 1.15388)
(0.00916228 -0.0294224 1.14811)
(0.00809341 -0.0126959 1.1243)
(0.00834321 -0.00300422 1.12358)
(0.00615256 -0.0203653 1.15224)
(0.00992876 -0.0067593 1.15231)
(-0.0007789 1.4268e-05 1.00022)
(-0.00235327 0.00145355 1.00158)
(-0.00107005 -8.03276e-05 0.999983)
(-0.00217965 -0.000484533 1.00176)
(-0.0016145 0.000500881 1.00093)
(-0.00203218 0.000740931 1.00191)
(-0.00165006 0.000538294 1.00101)
(-0.00163012 0.000746932 1.00197)
(-0.00388744 0.00271008 1.00503)
(-0.00557748 0.00423685 1.00991)
(-0.00611963 0.00263686 1.00602)
(-0.00430329 0.00245045 1.00831)
(-0.00426807 0.00348127 1.00677)
(-0.00530109 0.00372669 1.00994)
(-0.0052742 0.00306551 1.00726)
(-0.00506916 0.00354353 1.00955)
(-0.00156177 -4.46047e-05 0.99998)
(-0.00505948 0.00129104 1.00237)
(-0.00205759 0.00044974 0.999565)
(-0.00414466 -5.95415e-05 1.0012)
(-0.00342148 0.000244278 1.0012)
(-0.00489206 0.0010113 1.00295)
(-0.00307148 0.00036106 1.00106)
(-0.00376001 0.00102638 1.00285)
(-0.0037689 -0.00204215 1.00426)
(-0.00403539 -0.000109811 1.00852)
(-0.00488712 -0.00231504 1.00383)
(-0.00464343 -0.0049932 1.00914)
(-0.00392363 -0.00182351 1.00656)
(-0.00427155 -0.000422701 1.00897)
(-0.00473454 -0.00211378 1.00728)
(-0.00397026 -0.00145133 1.00801)
(-0.0030786 0.0018657 1.00292)
(-0.00237046 0.000306357 1.00099)
(-0.00259932 -5.40423e-05 1.0032)
(-0.00348256 0.00128767 1.00613)
(-0.00356798 0.0014232 1.00333)
(-0.0030662 0.000684146 1.00191)
(-0.003191 0.000965967 1.00426)
(-0.00311141 0.00020095 1.0042)
(-0.00385175 0.0023577 1.00523)
(-0.00399578 0.0016737 1.00822)
(-0.00577901 0.00245876 1.00649)
(-0.00335196 0.0010333 1.00227)
(-0.00346509 0.001853 1.00491)
(-0.00483321 0.00204533 1.0051)
(-0.0036141 0.00144311 1.00169)
(-0.00471348 0.00183966 1.00347)
(-0.00223955 0.000529134 1.00109)
(-0.00331445 -0.000348576 1.003)
(-0.00449567 0.000565054 1.00672)
(-0.00439245 -0.000511634 1.00344)
(-0.00310574 -0.000137238 1.0014)
(-0.00275178 0.000125386 1.00461)
(-0.00413863 -0.000283358 1.00357)
(-0.00455969 0.000390792 1.00538)
(-0.0024655 0.000915437 1.00255)
(-0.00408783 0.000270067 1.00471)
(-0.00417558 0.00152482 1.00925)
(-0.00528835 0.00199925 1.00614)
(-0.00445329 0.000759672 1.0024)
(-0.00493172 0.000685857 1.00498)
(-0.0051819 0.00160528 1.00394)
(-0.00486867 0.00127008 1.00471)
(-0.00121512 0.000502473 1.00067)
(-0.00134373 0.000908692 1.00198)
(-0.00245631 0.00159616 1.00293)
(-0.0021097 4.06253e-05 1.00206)
(-0.00107713 0.000306402 1.001)
(-0.00106191 0.000610467 1.00141)
(-0.00188886 0.000637801 1.00162)
(-0.00167254 0.000617415 1.00207)
(-0.00072025 0.00108716 1.0039)
(0.000722235 0.00120466 1.00671)
(-0.000486266 0.00201293 1.00673)
(-0.000862427 -0.000245119 1.00764)
(-6.29751e-05 0.000636423 1.00551)
(3.87272e-05 0.00120486 1.00586)
(-0.000947119 0.00119313 1.00643)
(-0.000386951 0.00116607 1.00711)
(-0.00355191 0.00318926 1.00588)
(-0.00176315 0.00326486 1.00723)
(-0.00487407 0.00439482 1.00906)
(-0.00430565 0.00196311 1.00816)
(-0.00327732 0.00307683 1.00587)
(-0.00265429 0.00330328 1.00691)
(-0.00455499 0.00346284 1.00829)
(-0.00341776 0.00342276 1.00854)
(-0.00319221 -0.00166044 1.00495)
(-0.00225626 -0.00160001 1.00984)
(-0.00435325 -0.00132876 1.00911)
(-0.00462071 -0.00463392 1.01199)
(-0.00269868 -0.00245473 1.00781)
(-0.00223069 -0.00129497 1.00848)
(-0.00387411 -0.00192423 1.00879)
(-0.00354077 -0.00210835 1.00982)
(-0.000824005 0.000451498 1.00296)
(-0.00229171 0.00133536 1.00299)
(-0.00182262 -0.00064637 1.00332)
(-0.00123244 -0.000752973 1.00608)
(-0.00170079 0.00100606 1.00396)
(-0.00180112 0.000747742 1.00261)
(-0.00185722 5.26989e-05 1.00453)
(-0.00155775 -0.000186964 1.00385)
(-0.000586723 0.000908176 1.00345)
(-0.00090365 -3.60814e-05 1.00662)
(-0.00127019 0.0022081 1.00585)
(-0.00178693 0.00160481 1.00384)
(-0.00133999 0.00082623 1.00431)
(-0.00105566 0.00130109 1.00532)
(-0.00215674 0.00193094 1.00478)
(-0.00154653 0.00164794 1.00525)
(-0.00321497 0.00198013 1.00434)
(-0.00307237 -0.000238412 1.00441)
(-0.00230284 -9.03806e-05 1.00727)
(-0.003906 0.00115006 1.00769)
(-0.00287699 0.0012473 1.00541)
(-0.00269896 -0.000285319 1.00487)
(-0.0030121 0.000547542 1.00594)
(-0.00286817 6.2893e-05 1.00614)
(-0.00275814 0.00194586 1.00467)
(-0.00319665 0.000964445 1.00818)
(-0.00160706 -0.000268194 1.00801)
(-0.00164733 0.00208842 1.00708)
(-0.00266003 0.00205506 1.00548)
(-0.00235719 0.00169345 1.00688)
(-0.00244 0.00216102 1.00667)
(-0.00190468 0.000744238 1.00791)
(0.0174102 -0.0254904 1.26643)
(0.00363099 0.00457641 1.21819)
(-0.00142354 0.00546815 1.19538)
(0.00333883 -0.0215468 1.21292)
(0.00739053 -0.0181625 1.23157)
(0.00529044 -0.00694931 1.20645)
(0.00130948 -0.0195089 1.20696)
(0.00111349 -0.00661122 1.18505)
(-0.00715824 0.0191605 1.14627)
(-0.00770742 0.0210708 1.08537)
(-0.0117439 0.016117 1.07608)
(-0.00747291 0.00282648 1.08222)
(-0.0069339 0.0126233 1.10318)
(-0.00728921 0.0156909 1.08714)
(-0.00693935 0.00385512 1.09396)
(-0.0066724 0.00852519 1.07984)
(-0.00626203 0.018614 1.12007)
(-0.0100005 0.0212486 1.07819)
(-0.00119967 0.0292878 1.0808)
(-0.00528224 0.00780626 1.07925)
(-0.0103769 0.0281374 1.08334)
(-0.00436501 0.0255728 1.0842)
(-0.00333044 0.0136125 1.08766)
(-0.000678731 0.0171802 1.08653)
(-0.00287479 -0.0333797 1.12398)
(-0.00819803 -0.0157972 1.08578)
(-0.00794884 -0.0133776 1.07369)
(-0.00763841 -0.0294507 1.06804)
(-0.00777402 -0.0235989 1.09532)
(-0.0057389 -0.0196825 1.08068)
(-0.00388405 -0.0331012 1.06824)
(0.000299518 -0.025373 1.06626)
(-0.0187833 0.00588978 1.16173)
(-0.00754425 0.00710153 1.1295)
(0.00109221 -0.031176 1.16063)
(-0.00501719 -0.00999503 1.104)
(-0.00945472 -0.00614075 1.13679)
(-0.00661164 -0.00762623 1.13421)
(-0.00677771 -0.0132671 1.13924)
(-0.001106 -0.0158888 1.13161)
(-0.0077805 0.00702422 1.14153)
(-0.00853104 -0.00668677 1.09214)
(-0.00666962 0.0180163 1.08175)
(-0.00515948 0.00855904 1.13225)
(0.00411299 -0.0003844 1.11868)
(-0.00567753 0.00045961 1.1023)
(-0.00507924 0.0124285 1.1104)
(-0.0102278 0.0181591 1.09055)
(-0.00501966 -0.00167603 1.13187)
(-0.00338221 -0.0290651 1.12276)
(-0.0109201 -0.0121199 1.08688)
(-0.00354487 -0.00902116 1.08338)
(-0.00630149 -0.00771824 1.12019)
(-0.00631368 -0.0144239 1.10207)
(-0.00914021 0.000436636 1.08269)
(-0.00358305 -0.0112665 1.08441)
(-0.0012249 0.00888958 1.13127)
(-0.00172539 -0.00468644 1.08382)
(-0.00703476 -0.0013116 1.0748)
(-0.00572324 0.0104745 1.07614)
(-0.003976 0.00929943 1.08882)
(-0.00493219 -0.000268735 1.08475)
(-0.00806989 0.00639864 1.08332)
(-0.0098371 0.00348701 1.0796)
(0.0188263 -0.00139153 1.24724)
(0.0158483 0.0167955 1.21105)
(0.0213432 -0.0105301 1.17982)
(0.0212171 0.0047032 1.20452)
(0.0185468 0.00719884 1.2312)
(0.0298005 -0.000178108 1.25245)
(0.0205733 -0.0111229 1.20444)
(0.0284098 -0.0127776 1.20199)
(0.0278543 0.0239574 1.17883)
(0.0343363 0.0304682 1.23624)
(0.019803 0.00543845 1.20109)
(0.00353703 0.0524289 1.18156)
(0.0189838 0.0404753 1.21672)
(0.00446508 0.0597198 1.1787)
(0.0121393 0.0188626 1.19913)
(0.0145904 0.0220517 1.19948)
(0.0127957 -0.00706201 1.11641)
(0.0100655 -0.00148259 1.12473)
(0.00300728 -0.00307631 1.07505)
(0.000297192 0.00756431 1.07669)
(0.00922222 -0.00374679 1.12149)
(0.00641048 -0.00316145 1.11566)
(0.00244536 1.49722e-05 1.08018)
(0.00458268 0.00174375 1.07734)
(0.00473654 0.00770269 1.13531)
(0.0014562 0.0260019 1.11645)
(0.00261665 0.0145757 1.08302)
(-0.000924974 0.0242578 1.0853)
(0.00438936 0.0189797 1.12974)
(0.00207382 0.0133596 1.12583)
(0.000901793 0.0162451 1.09116)
(0.00575648 0.0188229 1.08924)
(0.0223461 0.0232989 1.20233)
(0.021 -0.0101191 1.18227)
(0.0244388 0.0116005 1.21353)
(0.011934 0.0381956 1.20044)
(0.0154291 0.00370066 1.20734)
(0.0211204 -0.0116479 1.20348)
(0.0243927 0.0199714 1.20564)
(0.00679743 0.0126919 1.19159)
(0.0296654 0.0320719 1.22817)
(0.0113521 0.0163828 1.18911)
(0.0150116 0.00218672 1.17843)
(0.017207 -0.00793736 1.17927)
(0.0262844 0.00202291 1.20334)
(0.0186421 0.00233953 1.21126)
(0.021167 -0.00642433 1.17866)
(0.0171977 0.00148027 1.19194)
(0.00994862 -0.00725399 1.13437)
(0.0053373 -0.000273451 1.14932)
(0.00352269 0.0125881 1.13741)
(0.000905238 0.00764836 1.08531)
(0.00677908 -0.00289298 1.13264)
(0.012007 0.00166555 1.14316)
(0.00842743 0.00450449 1.13064)
(0.00684354 0.00541551 1.14474)
(0.0146099 -0.00646743 1.13275)
(0.00555139 0.00829791 1.08219)
(0.0119272 0.0172898 1.13261)
(0.0109166 0.00533408 1.12815)
(0.00746176 -0.0037054 1.13536)
(0.00114271 0.00220817 1.12613)
(0.00536059 0.00242296 1.13284)
(0.00773096 0.0128022 1.12056)
(-0.000447943 0.000151656 1.00008)
(-0.000744391 0.000244205 1.00019)
(-0.000360202 2.96671e-05 1.00003)
(-0.00186577 -0.000387077 1.00163)
(-0.00111061 0.00018702 1.00032)
(-0.000754875 0.000196095 0.999919)
(-0.00125165 -9.0988e-05 1.00083)
(-0.00104236 -4.61373e-05 1.00045)
(-0.00104166 0.000342043 1.00023)
(-0.00132104 -0.000137461 1.00007)
(-0.000814577 -0.000678672 0.999878)
(-0.0041077 -0.000551115 1.00141)
(-0.00194975 3.33812e-05 1.00012)
(-0.00138629 0.000121481 0.999783)
(-0.0027053 -0.000386931 1.00016)
(-0.0025068 -0.000454626 0.999827)
(-0.000440463 -0.00011135 1.00004)
(-0.000570532 -0.00073507 0.999861)
(-0.000420422 -0.000804192 0.999881)
(-0.00232615 -0.00168464 1.00068)
(-0.00111839 -0.000645998 0.999974)
(-0.000674374 -0.000289963 0.999898)
(-0.00176521 -0.000674017 1.00008)
(-0.00155331 -0.00100593 0.999834)
(-0.00312676 -0.00219534 1.00419)
(-0.00475632 -0.00228952 1.00417)
(-0.00408812 -0.00346265 1.00358)
(-0.00459991 -0.00489928 1.00965)
(-0.00446367 -0.00286431 1.00447)
(-0.003857 -0.00192164 1.00341)
(-0.00495334 -0.00409818 1.0062)
(-0.00495192 -0.00375025 1.00509)
(-0.00153992 0.000266295 1.00039)
(-0.00133108 -0.000183855 1.00024)
(-0.00290416 -0.000586574 1.00152)
(-0.00373664 -0.000874794 1.00174)
(-0.00182371 -0.000327931 1.00083)
(-0.00151569 -0.000279329 1.00051)
(-0.00284737 -0.000321946 1.00179)
(-0.00252769 -0.000236192 1.00075)
(-0.00109102 0.000273183 0.999841)
(-0.00305143 -0.00020465 1.00099)
(-0.000967889 -0.000161046 0.999863)
(-0.000770224 -0.000142599 0.999822)
(-0.0015685 2.60571e-05 1.00044)
(-0.00200946 -0.000419262 1.00039)
(-0.000500564 -6.34602e-05 0.999985)
(-0.00143655 -0.000221807 0.999891)
(-0.00161933 -0.000363539 1.00059)
(-0.00290729 -0.00129834 1.00232)
(-0.004514 -0.00179098 1.00202)
(-0.00363478 -0.00237848 1.00192)
(-0.00171816 -0.000915996 1.00073)
(-0.00272002 -0.00115132 1.00178)
(-0.00311592 -0.00156283 1.00146)
(-0.00314074 -0.00199737 1.00217)
(-0.00110027 -0.000643807 1.00016)
(-0.00351291 -0.00241902 1.00148)
(-0.00410811 -0.0013673 1.00165)
(-0.0018967 -0.00071732 0.999789)
(-0.00169659 -0.000652688 1.00014)
(-0.00237073 -0.00105022 1.00084)
(-0.00215883 -0.000478075 1.00025)
(-0.00255531 -0.00124648 1.00067)
(0.0296861 -0.0171935 1.25153)
(0.0262268 -0.00631226 1.18502)
(0.0222788 0.00991695 1.21667)
(0.00642573 0.00771879 1.22306)
(0.0277589 -0.0183528 1.24717)
(0.027815 -0.00812844 1.23504)
(0.0209656 -0.000971121 1.24842)
(0.0180692 0.00463822 1.24024)
(0.0164009 -0.00444403 1.12173)
(0.00489996 -0.00181455 1.07606)
(0.00432451 0.00785288 1.10171)
(0.00211996 -0.0034094 1.09602)
(0.0103315 -0.00541808 1.10897)
(0.00623974 -0.00340507 1.09937)
(0.00499079 -0.00122351 1.11305)
(0.00525074 0.00377933 1.10745)
(0.031207 0.029899 1.16199)
(0.00255068 0.0231013 1.14794)
(0.0136345 0.0689531 1.16171)
(0.0106609 0.0551472 1.19273)
(0.0227923 0.0280091 1.1929)
(0.00859165 0.0416626 1.16789)
(0.0197372 0.061851 1.20209)
(0.00776844 0.0688959 1.18257)
(0.000731583 0.0127614 1.15522)
(0.00401083 0.00509383 1.11535)
(-0.000723939 0.0237684 1.17899)
(0.00760892 0.00904005 1.12686)
(0.00844295 0.00755563 1.15067)
(0.0102803 0.00743353 1.14303)
(0.000764555 0.010864 1.15208)
(0.0108584 0.00914301 1.14205)
(0.0212257 -0.00502402 1.16483)
(0.0248728 0.00515102 1.23149)
(0.0178304 0.0075481 1.20015)
(0.0139655 -0.00264332 1.12974)
(0.0178897 -0.000731022 1.16777)
(0.0241058 0.00762061 1.23316)
(0.0245877 0.00548953 1.14044)
(0.0296329 0.00552349 1.19972)
(0.0157831 -0.00928025 1.16071)
(0.00900446 0.00213791 1.12767)
(0.0107296 0.00364633 1.14293)
(0.0215823 0.0104991 1.20873)
(0.0175321 0.00276393 1.16608)
(0.0182512 0.00423672 1.15281)
(0.0182963 -0.000134648 1.17075)
(0.0184276 0.0114597 1.15911)
(0.0146004 0.026269 1.2309)
(0.0160037 0.0112969 1.20129)
(0.00789425 0.0077035 1.13366)
(0.0127927 0.0293166 1.20829)
(0.0137706 0.031483 1.22006)
(0.0110197 0.013432 1.19471)
(0.0138746 0.0271894 1.20479)
(0.0206139 0.00320417 1.17257)
(0.0133665 0.0320766 1.21467)
(0.00559809 0.0323165 1.18654)
(0.00707501 0.00525109 1.13132)
(0.00565311 0.0172458 1.15947)
(0.0175085 0.0340881 1.20957)
(0.0120867 0.0292495 1.17775)
(0.010181 0.0172782 1.17604)
(0.00301884 0.019984 1.13879)
(-0.00400254 0.00444926 1.01068)
(-0.00242297 0.00293869 1.00805)
(-0.00232187 0.00489591 1.01187)
(-0.00289294 0.00277483 1.01006)
(-0.00400647 0.00419005 1.00977)
(-0.00224921 0.00337592 1.01018)
(-0.00354743 0.00475276 1.01015)
(-0.00305417 0.00410672 1.01028)
(-0.000723818 0.00207355 1.00785)
(0.000509789 0.00150337 1.00727)
(0.000178104 0.00272179 1.00914)
(-0.000743327 0.000497138 1.00856)
(-0.000491042 0.00170098 1.00744)
(0.000326124 0.00267161 1.00836)
(-0.00099751 0.00152444 1.00814)
(-0.000114177 0.00223481 1.00872)
(-0.0011826 0.00410683 1.01152)
(-0.000336078 0.00385265 1.01088)
(-0.000558888 0.00407603 1.0113)
(-0.000815347 0.00341651 1.012)
(-0.00101064 0.00331939 1.01152)
(-0.000573963 0.00381344 1.01102)
(-0.00105963 0.00391991 1.01187)
(-0.000621833 0.00397529 1.01139)
(-0.00295546 -9.76502e-05 1.01124)
(-0.00242753 -0.00107039 1.01047)
(-0.00183579 0.000886522 1.01398)
(-0.00277307 -0.00293595 1.01353)
(-0.00336728 -0.000761033 1.01082)
(-0.00215283 0.00012956 1.01246)
(-0.00378717 -0.00134345 1.01148)
(-0.00289902 -0.00066144 1.01215)
(-0.0020322 0.00255879 1.0076)
(-0.00216288 0.00335615 1.0107)
(-0.00311401 0.00189299 1.00928)
(-0.00188122 0.000466234 1.00851)
(-0.00223344 0.00252153 1.00823)
(-0.00235017 0.0028261 1.0094)
(-0.00215146 0.000989855 1.00925)
(-0.00223447 0.00225322 1.01052)
(-0.000934079 0.00262675 1.00875)
(-0.000901786 0.00127315 1.00935)
(-0.000402496 0.00393358 1.00986)
(-0.00138728 0.00331543 1.01078)
(-0.0012981 0.00287383 1.00926)
(-0.000955003 0.00223314 1.0092)
(-0.00148629 0.00311144 1.00981)
(-0.00105395 0.00259379 1.00956)
(-0.00212832 0.00401247 1.01112)
(-0.00316867 0.0016403 1.00966)
(-0.0021998 -3.84692e-05 1.00961)
(-0.00188986 0.0021874 1.0122)
(-0.00194732 0.00340228 1.01192)
(-0.00282391 0.0021037 1.01024)
(-0.00201574 0.00174404 1.01154)
(-0.00222681 0.000612456 1.0106)
(-0.00148857 0.00365696 1.01087)
(-0.00157526 0.00228634 1.01182)
(-0.00115226 0.00116025 1.0102)
(-0.000647381 0.00315147 1.0104)
(-0.00115283 0.00322147 1.01105)
(-0.00129413 0.00257838 1.01114)
(-0.00123922 0.00227906 1.01047)
(-0.00138074 0.00121319 1.01024)
(0.0514704 0.0301456 1.19662)
(0.0567435 0.0248815 1.15817)
(0.0288095 0.0256726 1.17651)
(0.0404919 0.0365466 1.22187)
(0.0648701 0.0318831 1.18453)
(0.0610703 0.0246459 1.16732)
(0.0353701 0.022646 1.20417)
(0.0385579 0.0233039 1.19259)
(0.0533875 0.0230289 1.14006)
(0.0489314 0.0264059 1.11787)
(0.0385816 0.0243002 1.10612)
(0.039782 0.0276617 1.13926)
(0.0506409 0.0204977 1.13955)
(0.047186 0.0215156 1.12138)
(0.041027 0.0234657 1.13307)
(0.0383233 0.0246355 1.11757)
(0.0173194 0.0255603 1.12764)
(0.0261057 0.0203812 1.09987)
(0.01674 0.0172548 1.07759)
(0.00787995 0.0166465 1.09485)
(0.0216758 0.0275038 1.11537)
(0.0232832 0.02012 1.10144)
(0.0133564 0.011818 1.10736)
(0.0163695 0.0127123 1.09058)
(0.0209027 0.0329641 1.17456)
(0.0257608 0.0281527 1.13934)
(0.00871103 0.018877 1.10493)
(-0.00332972 0.0275374 1.1275)
(0.016218 0.0318524 1.15879)
(0.0179634 0.0251191 1.13342)
(-0.00188966 0.0214523 1.12947)
(0.0109453 0.0213197 1.10946)
(0.0587991 0.0243722 1.15743)
(0.0315763 0.0308656 1.1601)
(0.0352848 0.0324697 1.20398)
(0.0349236 0.0274648 1.16192)
(0.0461474 0.0250087 1.16868)
(0.0455819 0.025143 1.17019)
(0.0406199 0.0268502 1.17366)
(0.0382437 0.0291301 1.17881)
(0.0541296 0.0223011 1.14606)
(0.0356925 0.0246368 1.13326)
(0.0360315 0.0239652 1.1141)
(0.0343255 0.0213176 1.14713)
(0.0432921 0.0246519 1.15606)
(0.0416847 0.0221878 1.13413)
(0.0354376 0.0220416 1.13758)
(0.0381085 0.0258369 1.12478)
(0.0199871 0.0138833 1.15416)
(0.0153211 0.0285733 1.17592)
(0.0225058 0.0236168 1.13088)
(0.00827377 0.0163894 1.11353)
(0.0208949 0.0242049 1.14374)
(0.0214449 0.0244667 1.15408)
(0.0169595 0.0284799 1.12753)
(0.0256116 0.0246014 1.13528)
(0.0213711 0.0127436 1.14196)
(0.0104527 0.0124986 1.09887)
(0.0263241 0.0231396 1.11289)
(0.0319409 0.0178521 1.10812)
(0.0323204 0.0195001 1.1222)
(0.0205679 0.0183858 1.11256)
(0.0324034 0.0171079 1.11929)
(0.0226267 0.0205663 1.1089)
(0.0148096 -0.0224058 1.25907)
(0.0013203 -0.00748735 1.18986)
(-0.000534646 -0.031646 1.17966)
(-0.00156552 -0.0324886 1.2025)
(0.00281999 -0.022598 1.19937)
(0.00521599 -0.0163488 1.19137)
(0.00434798 -0.0291001 1.19152)
(-0.00302242 -0.0229606 1.18829)
(-0.00550272 0.0173621 1.12738)
(0.00165528 0.0231763 1.08023)
(0.000384287 0.00561783 1.08259)
(-0.00158717 0.00482219 1.08314)
(-0.00397792 0.0195651 1.09737)
(0.00204908 0.0182282 1.08395)
(-0.00151471 0.00397168 1.08942)
(0.0018095 0.00749514 1.08094)
(-0.0060712 -0.029436 1.10888)
(0.00284564 -0.0117259 1.07233)
(0.00300448 -0.0230006 1.05834)
(-0.000482713 -0.0248586 1.05777)
(0.000907836 -0.0233741 1.0753)
(0.00307782 -0.0165858 1.06959)
(0.00413075 -0.0282738 1.06847)
(0.00455966 -0.0196197 1.06571)
(-0.0120005 -0.0417831 1.10918)
(-0.00394185 -0.0176542 1.07472)
(-0.00676449 -0.0301979 1.0597)
(-0.0128613 -0.0372473 1.05696)
(-0.00148053 -0.0358682 1.08288)
(-0.00343683 -0.0217135 1.06946)
(-0.0037243 -0.0368604 1.06102)
(0.000460746 -0.0267016 1.06322)
(-0.00862541 0.00185496 1.14221)
(-0.00698178 -0.0205856 1.12638)
(-0.00297226 -0.0348541 1.13079)
(-0.00365093 -0.00444788 1.09277)
(-0.0102377 -0.00612529 1.12617)
(-0.0032862 -0.0172069 1.1336)
(-0.00475479 -0.0108013 1.12446)
(-0.00167098 -0.0222479 1.11939)
(-0.00518699 0.00711542 1.12547)
(-0.00034024 -8.704e-06 1.07974)
(0.00381123 -0.000902245 1.08072)
(-0.00318034 -0.0160149 1.11896)
(-0.00285507 -0.00187498 1.12342)
(4.16804e-05 0.00222743 1.09351)
(-0.00656061 -0.00540189 1.11889)
(-0.000829699 -0.00524266 1.08696)
(-0.00363234 -0.0322589 1.11734)
(-0.00129618 -0.0409506 1.11492)
(-0.00438481 -0.0130376 1.07863)
(0.000629411 -0.0292042 1.06907)
(-0.0109894 -0.0345531 1.11103)
(-0.00316289 -0.0265916 1.1206)
(-0.00351594 -0.0250212 1.07161)
(0.0018812 -0.0180248 1.08519)
(-0.00103616 -0.0229867 1.11617)
(0.000830884 -0.0220336 1.0666)
(0.000695413 -0.0100907 1.07621)
(0.00160487 -0.00636511 1.07821)
(0.00189574 -0.0153017 1.0812)
(0.00144496 -0.0181331 1.07033)
(0.00232435 -0.0101113 1.08523)
(-0.00180526 -0.0125491 1.07435)
(-0.00281491 0.00369634 1.02267)
(-0.00423402 0.00362167 1.01831)
(-0.00151557 0.00381816 1.01827)
(-0.00494829 0.000389708 1.01986)
(-0.00320421 0.00349322 1.02199)
(-0.00357595 0.00345567 1.01948)
(-0.00222848 0.00271892 1.0218)
(-0.0028039 0.00305261 1.01818)
(-0.0049744 0.00431458 1.01482)
(-0.00508545 0.00455456 1.01228)
(-0.00327524 0.0046417 1.01193)
(-0.00394396 0.0028453 1.01076)
(-0.00469278 0.00431457 1.01395)
(-0.00485656 0.003769 1.01299)
(-0.00341479 0.00392217 1.01351)
(-0.00395014 0.00410287 1.01181)
(-0.000809416 0.00438716 1.01354)
(-0.00163592 0.00429189 1.01171)
(-0.000855921 0.00406364 1.01163)
(-0.00145149 0.00315353 1.01292)
(-0.00117073 0.00448596 1.01344)
(-0.000988402 0.00438308 1.01249)
(-0.000685742 0.00391527 1.0132)
(-0.000683154 0.0039994 1.01172)
(-0.00530446 -0.00165762 1.01685)
(-0.00436345 -0.000138442 1.01169)
(-0.00287445 0.000362975 1.01389)
(-0.0045937 -0.00392679 1.01427)
(-0.00407908 -0.00151702 1.01372)
(-0.00426734 -0.000205453 1.01259)
(-0.00374653 -0.00191772 1.01708)
(-0.00405692 -0.000711503 1.01351)
(-0.00441894 0.00352462 1.01708)
(-0.00163192 0.00426848 1.01786)
(-0.00403928 0.000636017 1.01698)
(-0.00355927 0.00215611 1.01314)
(-0.00300284 0.00356111 1.01723)
(-0.00332939 0.00314889 1.01669)
(-0.00436722 0.00174191 1.01488)
(-0.00401191 0.00141651 1.01566)
(-0.00477529 0.00414115 1.01548)
(-0.00377387 0.00270637 1.01151)
(-0.00234797 0.00447385 1.0134)
(-0.00161198 0.0046073 1.01607)
(-0.00367678 0.00374837 1.01434)
(-0.00358469 0.0037057 1.01276)
(-0.00281598 0.00443227 1.01447)
(-0.00215965 0.00437133 1.01426)
(-0.00140375 0.00370204 1.01714)
(-0.00370325 0.000623287 1.01867)
(-0.00337524 0.00160785 1.01452)
(-0.00214876 0.00195038 1.01552)
(-0.00252742 0.00217124 1.01583)
(-0.00375306 0.00151953 1.01537)
(-0.00206963 0.0024064 1.01532)
(-0.00369003 0.00107723 1.01391)
(-0.00128794 0.00364489 1.01412)
(-0.00200703 0.002524 1.01335)
(-0.00325113 0.00210456 1.01142)
(-0.00192423 0.00395845 1.01181)
(-0.0019488 0.00389808 1.01295)
(-0.00190801 0.00263777 1.01316)
(-0.00210909 0.00397269 1.01301)
(-0.00258264 0.002979 1.0117)
(-0.0400241 0.0549743 1.13086)
(0.00893309 -0.0371858 1.10306)
(-0.0219916 0.0320099 1.00428)
(0.0178177 0.00383935 1.2111)
(0.0306664 0.0051665 1.2452)
(-0.0132122 -0.00754722 0.982941)
(0.0240508 0.0183513 1.2715)
(0.0340334 0.0228257 1.20952)
(0.0204266 -0.0143668 1.13171)
(0.0337445 -0.0298518 1.20581)
(0.0394533 -0.0320389 1.21539)
(0.00212248 -0.000432462 1.2058)
(0.0167803 -0.00587601 1.21581)
(0.0151161 -0.0263804 1.1545)
(0.00861224 0.0237914 1.24725)
(0.01004 -0.00362773 1.18925)
(0.00444878 -0.0199285 1.0025)
(0.083129 -0.0292813 1.29027)
(0.0741046 0.00758596 1.27004)
(-0.00497764 0.0803164 1.21872)
(0.00626331 0.0602326 1.21029)
(0.0589291 -0.0367093 1.26536)
(-0.0119912 0.0888277 1.20614)
(0.0113196 0.0294314 1.24154)
(-0.00103626 0.0125683 1.1643)
(-0.00192484 0.0329828 1.13679)
(0.00606377 0.0316611 1.1402)
(-0.0010262 0.0252553 1.09143)
(0.00455141 0.0160894 1.13526)
(-0.00375231 0.0334391 1.14166)
(0.00683763 0.0218079 1.13118)
(0.000274231 0.0297199 1.13128)
(0.0131893 -0.0163941 1.20776)
(0.033144 0.0235219 1.22652)
(0.00999373 0.00756179 1.21176)
(0.0112079 0.0221143 1.20842)
(0.0221775 0.00771912 1.23146)
(0.0059536 -0.0146277 1.24984)
(0.012514 0.0214463 1.21732)
(0.011948 0.00409329 1.22116)
(0.0050454 -0.0166232 1.07591)
(0.00383675 0.0154913 1.20481)
(0.0222075 -0.0165544 1.20542)
(-0.00897182 -0.0242474 0.993142)
(0.0212005 -0.000274916 1.14454)
(0.0123036 0.0453103 1.24507)
(0.0089237 -0.0291438 1.08688)
(0.0100063 0.00100901 1.20419)
(0.0266528 0.0470864 1.25606)
(0.00872554 0.0239064 1.21763)
(0.00863863 0.0274692 1.213)
(0.0122993 0.0336196 1.18206)
(0.0241903 0.0346872 1.25058)
(0.0175407 0.0130191 1.21705)
(0.0131716 0.0271073 1.22015)
(-0.015208 0.0164995 1.18506)
(0.0230622 0.0481555 1.19465)
(0.00413369 0.0474087 1.20342)
(0.00583663 0.0244395 1.20993)
(0.0107726 -0.00114717 1.18784)
(0.0280947 0.0814241 1.29119)
(-0.00847577 0.0533706 1.2381)
(-0.000706605 0.053638 1.21615)
(-0.00590928 0.0290159 1.21554)
(-0.0279142 0.00630455 1.21021)
(-0.0300939 0.00695538 1.20902)
(-0.0218489 0.0162649 1.19553)
(-0.0344762 0.0175363 1.16722)
(-0.0209679 0.00216474 1.21783)