/*--------------------------------*- C++ -*----------------------------------*\
| =========                 |                                                 |
| \\      /  F ield         | OpenFOAM: The Open Source CFD Toolbox           |
|  \\    /   O peration     | Version:  2506                                  |
|   \\  /    A nd           | Website:  www.openfoam.com                      |
|    \\/     M anipulation  |                                                 |
\*---------------------------------------------------------------------------*/
FoamFile
{
    version     2.0;
    format      ascii;
    arch        "LSB;label=32;scalar=64";
    class       volScalarField;
    location    "1300";
    object      p;
}
// * * * * * * * * * * * * * * * * * * * * * * * * * * * * * * * * * * * * * //

dimensions      [0 2 -2 0 0 0 0];

internalField   nonuniform List<scalar> 
45440
(
0.396972
0.388219
0.472988
0.426159
0.400372
0.410355
0.443103
0.446137
0.387579
0.422293
0.47612
0.4085
0.415773
0.429164
0.437776
0.439521
0.514765
0.5054
0.534472
0.524043
0.512884
0.523329
0.53178
0.525744
0.456533
0.436376
0.519411
0.502911
0.46914
0.47883
0.496224
0.500798
0.405871
0.478327
0.437637
0.417865
0.427703
0.449591
0.402697
0.443475
0.417127
0.43545
0.487487
0.484614
0.430869
0.445859
0.456891
0.465761
0.500041
0.463297
0.444854
0.512411
0.495862
0.465788
0.497847
0.479653
0.501907
0.513953
0.445482
0.484497
0.503711
0.502419
0.48913
0.478186
0.0666041
0.205196
0.19188
0.197804
0.204154
0.195711
0.208014
0.24705
0.305787
0.384707
0.345119
0.383666
0.344864
0.372992
0.367736
0.386608
0.280544
0.340325
0.320775
0.37454
0.348871
0.335329
0.356306
0.385719
0.316017
0.403889
0.398804
0.447983
0.390713
0.413426
0.437592
0.455559
0.269305
0.266418
0.279442
0.346975
0.293566
0.256419
0.313873
0.303796
0.282918
0.385619
0.340993
0.263551
0.312024
0.341945
0.286012
0.333338
0.296784
0.338284
0.390753
0.391979
0.283821
0.328923
0.362122
0.352094
0.317244
0.420594
0.401377
0.375259
0.335711
0.373253
0.378222
0.370802
0.535103
0.536765
0.509586
0.511748
0.529563
0.521601
0.516345
0.505349
0.539435
0.519585
0.451818
0.461622
0.515787
0.512667
0.484929
0.463051
0.481248
0.417436
0.455372
0.437508
0.454587
0.442622
0.445681
0.42174
0.486865
0.436264
0.437928
0.442329
0.46785
0.459546
0.441938
0.419457
0.521251
0.496255
0.505682
0.482426
0.501887
0.496473
0.491563
0.495083
0.512417
0.466913
0.452127
0.481647
0.488842
0.471735
0.485325
0.459128
0.489048
0.492556
0.441765
0.435266
0.482217
0.477112
0.45623
0.468763
0.471062
0.409492
0.432199
0.419069
0.458233
0.450666
0.43353
0.419065
0.103723
0.223485
0.212221
0.21188
0.144453
0.172817
0.20392
0.232963
0.323316
0.420547
0.398834
0.412604
0.357488
0.356148
0.37841
0.379281
0.351018
0.432708
0.489928
0.43803
0.388651
0.407388
0.422438
0.42718
0.33102
0.426359
0.421511
0.420367
0.363677
0.364836
0.391093
0.400107
0.260925
0.283807
0.266257
0.367987
0.27847
0.268262
0.306061
0.281196
0.264137
0.370309
0.368039
0.295035
0.293405
0.337444
0.324388
0.361041
0.322955
0.301716
0.37722
0.399812
0.318687
0.322351
0.373952
0.366684
0.321995
0.411765
0.394943
0.38686
0.368686
0.392815
0.378609
0.402665
0.694198
0.666668
0.639257
0.757802
0.71639
0.692403
0.736163
0.707187
0.625459
0.580407
0.566468
0.658405
0.640653
0.618559
0.643678
0.586207
0.579395
0.545321
0.495559
0.579692
0.542538
0.52247
0.533266
0.499616
0.820231
0.745388
0.711301
0.918145
0.82257
0.791388
0.824909
0.762721
0.692385
0.636973
0.77893
0.723223
0.701098
0.705592
0.721326
0.755288
0.66745
0.699199
0.553767
0.601616
0.672462
0.669214
0.601865
0.602268
0.633451
0.775851
0.738035
0.652751
0.685504
0.736506
0.635087
0.75373
0.596646
0.602395
0.68603
0.540224
0.606346
0.60725
0.584095
0.639851
0.450701
0.508387
0.397694
0.542478
0.454606
0.464071
0.480202
0.474512
0.527009
0.55094
0.459568
0.631189
0.557342
0.530651
0.595776
0.52704
0.349972
0.354777
0.207732
0.403411
0.273694
0.276074
0.245011
0.274921
0.654079
0.753782
0.71587
0.879777
0.757482
0.747072
0.782312
0.858059
0.507822
0.397724
0.549606
0.639171
0.529893
0.476338
0.621013
0.548779
0.49687
0.667114
0.435691
0.396991
0.484199
0.546402
0.431303
0.436548
0.391013
0.58642
0.712567
0.448114
0.47818
0.589436
0.461724
0.61067
0.403439
0.556557
0.682751
0.428935
0.382981
0.468807
0.447051
0.576375
0.542058
0.52529
0.523691
0.514614
0.519595
0.519433
0.525738
0.521774
0.500077
0.447951
0.477174
0.42579
0.447311
0.468588
0.441963
0.473879
0.529667
0.498501
0.511721
0.503595
0.516679
0.510983
0.518385
0.514428
0.489558
0.445947
0.479513
0.44066
0.471103
0.460246
0.473952
0.463635
0.492375
0.523759
0.500169
0.437092
0.496748
0.5055
0.482937
0.493351
0.498944
0.436923
0.497622
0.524031
0.497338
0.462666
0.503699
0.486589
0.520045
0.508337
0.442123
0.500625
0.514103
0.497781
0.495374
0.476736
0.521136
0.49834
0.449918
0.493721
0.510746
0.497373
0.48161
0.471928
0.117848
0.181181
0.0963031
0.183324
0.141116
0.142611
0.141642
0.126793
0.234158
0.29326
0.289073
0.335075
0.291876
0.293211
0.298793
0.305965
0.0942393
0.222884
0.0687525
0.204358
0.144238
0.150953
0.139869
0.144473
0.28835
0.339702
0.301315
0.383988
0.310535
0.328517
0.32963
0.3266
0.224549
0.132783
0.221811
0.29251
0.225534
0.167775
0.251101
0.238044
0.221692
0.305618
0.218963
0.118596
0.225905
0.252212
0.182491
0.238225
0.122016
0.238064
0.305554
0.229009
0.205646
0.23176
0.235824
0.264022
0.118223
0.228743
0.310771
0.229868
0.158703
0.245951
0.229202
0.281667
0.513736
0.496001
0.516883
0.512253
0.512895
0.509528
0.524155
0.516717
0.440455
0.406624
0.479907
0.445233
0.458823
0.443288
0.471825
0.462167
0.524641
0.518456
0.537809
0.550465
0.534496
0.525014
0.545778
0.535197
0.519486
0.478817
0.568844
0.536228
0.518741
0.506358
0.558522
0.544271
0.490348
0.51769
0.503146
0.474863
0.510564
0.521599
0.473187
0.496373
0.481933
0.466458
0.496493
0.513754
0.503299
0.481648
0.501998
0.504892
0.527647
0.528348
0.49501
0.560144
0.531081
0.518054
0.522338
0.50817
0.523608
0.541052
0.48197
0.504217
0.511706
0.51077
0.520447
0.514037
0.0489287
0.0378704
0.174223
0.205365
0.0769384
0.0696431
0.143487
0.139982
0.0381813
0.0366598
0.162981
0.203793
0.0975164
0.0975588
0.212634
0.188439
0.260447
0.269941
0.338694
0.398178
0.277868
0.274103
0.348957
0.338644
0.314404
0.313464
0.42155
0.469266
0.349556
0.341898
0.412015
0.40868
0.0825584
0.179711
0.212838
0.228522
0.181704
0.18184
0.169047
0.219061
0.0887336
0.224107
0.186817
0.18594
0.158345
0.180374
0.146671
0.179156
0.248005
0.280885
0.306453
0.380692
0.313127
0.279226
0.31897
0.303459
0.246726
0.3777
0.295649
0.271502
0.273457
0.323181
0.288639
0.288596
0.131385
0.302572
0.283826
0.263747
0.281743
0.326662
0.241266
0.29937
0.407969
0.494746
0.486044
0.464843
0.476069
0.507982
0.474309
0.49111
0.372651
0.475223
0.438847
0.443984
0.424652
0.457975
0.421689
0.456245
0.33762
0.433899
0.439974
0.421084
0.39836
0.421966
0.396574
0.423176
0.35158
0.365251
0.347671
0.413227
0.367731
0.336166
0.37056
0.376293
0.413979
0.461954
0.480733
0.419174
0.394998
0.430577
0.408169
0.425301
0.36194
0.310798
0.425996
0.416999
0.382803
0.339509
0.408848
0.389609
0.393568
0.443275
0.450882
0.483509
0.415866
0.432508
0.462579
0.436211
0.467412
0.505016
0.550112
0.459069
0.474185
0.515145
0.49197
0.517796
0.515752
0.543917
0.612831
0.481558
0.523773
0.583345
0.536618
0.577474
0.606722
0.64599
0.673924
0.572722
0.615111
0.671767
0.61731
0.66065
0.450895
0.450238
0.497871
0.444482
0.441961
0.478429
0.465357
0.485787
0.49272
0.538339
0.466516
0.457146
0.525183
0.520755
0.47155
0.492089
0.546313
0.515172
0.645318
0.592394
0.544098
0.537339
0.56418
0.583908
0.552549
0.480549
0.479199
0.530416
0.52519
0.502913
0.514087
0.496602
0.588432
0.560388
0.525769
0.633681
0.579218
0.558491
0.587112
0.537506
0.578043
0.630004
0.618826
0.557198
0.582214
0.601577
0.574611
0.596787
0.681641
0.686639
0.743459
0.616496
0.67525
0.691885
0.665725
0.699444
0.676253
0.75569
0.737187
0.649288
0.690371
0.725612
0.68044
0.720572
0.528599
0.5355
0.558873
0.473654
0.520826
0.53405
0.513132
0.533325
0.632539
0.62838
0.554208
0.590446
0.623641
0.60577
0.59468
0.576509
0.649546
0.61052
0.726483
0.655067
0.64828
0.648556
0.691104
0.69924
0.622278
0.547657
0.579701
0.593767
0.602238
0.569851
0.601903
0.569662
0.647718
0.620578
0.608421
0.726798
0.66213
0.626866
0.691047
0.646421
0.0679317
0.0728059
0.253193
0.220288
0.134894
0.13316
0.226357
0.238007
0.0847235
0.0573683
0.390811
0.271771
0.20914
0.165762
0.30765
0.30401
0.427486
0.498477
0.588952
0.52848
0.476519
0.519813
0.54494
0.592831
0.325685
0.365377
0.455816
0.409609
0.361415
0.37718
0.420756
0.444408
0.160031
0.31174
0.263019
0.280763
0.253377
0.255624
0.265483
0.283126
0.189489
0.315115
0.406503
0.324519
0.29251
0.315886
0.315293
0.377427
0.380454
0.344794
0.383655
0.479645
0.363095
0.349088
0.406251
0.386477
0.412442
0.519334
0.407185
0.505431
0.440224
0.459219
0.442237
0.442503
0.518091
0.527585
0.510544
0.522995
0.515056
0.517217
0.510696
0.516532
0.548761
0.58672
0.539296
0.601807
0.566385
0.566332
0.564206
0.565944
0.467005
0.492061
0.419932
0.457182
0.467465
0.469676
0.465607
0.465225
0.541365
0.591733
0.489681
0.547767
0.553052
0.54681
0.544235
0.538068
0.536009
0.492036
0.51557
0.570452
0.524847
0.509332
0.550279
0.518044
0.534833
0.568473
0.519547
0.498567
0.526791
0.539571
0.514823
0.521919
0.494358
0.515949
0.555905
0.486795
0.489811
0.516476
0.494928
0.525865
0.499977
0.487443
0.55706
0.509422
0.488896
0.4956
0.505737
0.530595
0.0662231
0.191714
0.0578303
0.23121
0.125022
0.130007
0.115996
0.128454
0.275172
0.353961
0.285936
0.405057
0.311079
0.308188
0.333622
0.335955
0.0609669
0.195343
0.0791726
0.220088
0.149123
0.146493
0.144247
0.154477
0.32242
0.432835
0.343811
0.475784
0.38858
0.388897
0.399825
0.403144
0.225841
0.135647
0.263139
0.357644
0.228378
0.192705
0.325027
0.261744
0.225364
0.354705
0.242397
0.13561
0.228452
0.295249
0.181054
0.243177
0.141122
0.255289
0.368435
0.28022
0.179699
0.258933
0.269473
0.316069
0.149365
0.28393
0.375473
0.252131
0.210642
0.260385
0.249986
0.318521
0.556239
0.535196
0.594284
0.53352
0.550557
0.547754
0.552824
0.559762
0.490693
0.434494
0.471385
0.437083
0.465246
0.460581
0.460689
0.447104
0.623141
0.533439
0.62871
0.558393
0.586768
0.579804
0.585769
0.576879
0.499126
0.445524
0.491814
0.457797
0.478552
0.470819
0.467908
0.478317
0.512142
0.578497
0.519741
0.470452
0.512172
0.538952
0.491957
0.510885
0.502307
0.462261
0.510146
0.564952
0.505391
0.481629
0.547523
0.507927
0.579561
0.518268
0.465049
0.517419
0.552484
0.5285
0.52486
0.499945
0.579482
0.524621
0.456835
0.501407
0.551433
0.518463
0.510558
0.472557
0.128884
0.280026
0.237298
0.24746
0.165686
0.204538
0.218734
0.234683
0.439517
0.587162
0.496361
0.536657
0.49624
0.508512
0.503347
0.521655
0.309006
0.430363
0.382676
0.396888
0.366472
0.404076
0.379396
0.390201
0.349835
0.465598
0.405077
0.424339
0.3862
0.422144
0.394393
0.415412
0.324951
0.283769
0.289773
0.437814
0.344131
0.30323
0.376685
0.31993
0.348513
0.468045
0.44581
0.292734
0.371624
0.451556
0.352596
0.429689
0.290686
0.322486
0.444479
0.391096
0.327645
0.336733
0.376056
0.396427
0.307762
0.40346
0.459642
0.446474
0.382564
0.403416
0.422224
0.439941
0.0193036
0.0301184
0.0248938
0.162331
0.039073
-0.00394429
0.0729526
0.0454696
0.0378594
0.0473916
0.0403991
0.224656
0.0759013
0.0121945
0.133981
0.0766725
0.0271893
0.0367252
0.0146848
0.154482
0.0539208
0.0141814
0.103376
0.0873475
0.292527
0.357412
0.289318
0.453033
0.331743
0.292978
0.373713
0.356184
0.0546756
0.0596029
0.165207
0.201395
0.0976395
0.142125
0.19261
0.12056
-0.000236071
0.155523
0.0198247
0.0187335
0.0431206
0.177523
0.0339402
0.0690245
0.0768788
0.205823
0.260633
0.234138
0.140319
0.171728
0.190745
0.280047
0.0375742
0.209192
0.212459
0.0786919
0.151466
0.164711
0.126081
0.193471
0.518496
0.519717
0.529163
0.521802
0.521726
0.524058
0.523421
0.52467
0.530899
0.528763
0.535874
0.543341
0.525788
0.530998
0.539673
0.540915
0.546702
0.55316
0.577259
0.588677
0.562074
0.564735
0.575197
0.578614
0.534577
0.560524
0.592334
0.553118
0.547104
0.564041
0.57657
0.589054
0.529218
0.533259
0.528783
0.536635
0.530366
0.528808
0.543597
0.536657
0.532804
0.548539
0.54423
0.537339
0.534419
0.531426
0.535304
0.540731
0.53832
0.549731
0.558165
0.564872
0.56297
0.552881
0.565756
0.546451
0.541416
0.579518
0.56481
0.556126
0.557056
0.575122
0.551978
0.560549
0.777033
0.673403
0.805159
0.814188
0.763371
0.729262
0.808451
0.758225
0.577199
0.465312
0.541362
0.537401
0.549665
0.527862
0.552834
0.522469
0.779971
0.623928
0.690243
0.763937
0.740114
0.701404
0.762898
0.693528
0.852291
0.683184
0.829669
0.876645
0.841464
0.800194
0.887749
0.784899
0.643311
0.772106
0.798242
0.668312
0.691057
0.752647
0.684901
0.760107
0.619285
0.627094
0.608665
0.734838
0.628666
0.613279
0.676975
0.637934
0.818151
0.85151
0.690092
0.841044
0.827329
0.77671
0.797911
0.772019
0.744858
0.754426
0.635882
0.606318
0.732424
0.754462
0.670313
0.666565
0.148201
0.46316
0.322966
0.517995
0.436326
0.437789
0.376343
0.483424
0.574883
0.637152
0.565959
0.711352
0.626938
0.63504
0.682956
0.678087
0.405096
0.498398
0.437041
0.531132
0.479454
0.463505
0.474129
0.480653
0.833782
0.826102
0.665652
0.879635
0.877196
0.788361
0.845129
0.804956
0.529081
0.484989
0.752761
0.75031
0.586661
0.574475
0.664487
0.631514
0.552421
0.717343
0.549526
0.454969
0.603347
0.667719
0.491842
0.563774
0.468813
0.627655
0.776665
0.595546
0.52565
0.650604
0.614283
0.720157
0.463274
0.595387
0.746328
0.5724
0.535553
0.577506
0.568324
0.645162
0.72634
0.739411
0.672637
0.734256
0.737193
0.719077
0.727583
0.714535
0.757726
0.7728
0.7074
0.781467
0.772786
0.740172
0.758064
0.728012
0.627074
0.642617
0.591852
0.65279
0.628261
0.613914
0.617032
0.605528
0.721652
0.764562
0.705323
0.696904
0.73711
0.729369
0.713012
0.711053
0.750821
0.678917
0.750565
0.774428
0.739807
0.719608
0.758941
0.728603
0.727736
0.753253
0.667941
0.658209
0.719072
0.72374
0.689838
0.690941
0.667674
0.741052
0.753235
0.673607
0.696452
0.719593
0.699313
0.719683
0.647989
0.661302
0.739717
0.657044
0.654063
0.67901
0.674849
0.723676
0.0451704
0.0600928
0.0434719
0.219131
0.0674607
0.0515309
0.129171
0.102458
0.0692859
0.106181
0.0880156
0.378617
0.122802
0.0821468
0.178245
0.128338
0.0505616
0.0605887
0.0459704
0.248139
0.082462
0.0478586
0.14016
0.088634
0.402167
0.498221
0.416134
0.570764
0.459752
0.457574
0.480983
0.454167
0.0805652
0.0746543
0.274653
0.340412
0.162013
0.154629
0.257532
0.25644
0.0592092
0.321962
0.0512863
0.0433868
0.121667
0.181143
0.057032
0.092101
0.144505
0.31264
0.376289
0.320565
0.239889
0.291192
0.285395
0.353587
0.104612
0.282948
0.362847
0.0975846
0.1665
0.266654
0.162288
0.290614
0.547435
0.537072
0.530088
0.543176
0.546617
0.541613
0.544398
0.536416
0.500741
0.447623
0.453979
0.470215
0.482979
0.470642
0.469648
0.462419
0.500021
0.449865
0.4551
0.458895
0.471168
0.461754
0.46711
0.461377
0.523943
0.475207
0.464356
0.464347
0.493006
0.479825
0.485284
0.473263
0.520819
0.510404
0.531082
0.493454
0.51338
0.521369
0.519358
0.52092
0.507008
0.479784
0.461028
0.507156
0.506111
0.481187
0.502207
0.470846
0.508597
0.524383
0.484965
0.477164
0.512565
0.515804
0.486036
0.491569
0.500811
0.469561
0.475259
0.460293
0.475573
0.479492
0.470253
0.46664
0.133715
0.26191
0.269236
0.282991
0.2041
0.237242
0.25999
0.279722
0.356002
0.426684
0.419062
0.434351
0.404382
0.409995
0.415514
0.417084
0.357316
0.411579
0.427567
0.459542
0.382265
0.410883
0.430308
0.440121
0.369243
0.440639
0.454
0.450116
0.407394
0.42559
0.431391
0.444742
0.317745
0.320247
0.315788
0.407138
0.344594
0.31592
0.362606
0.343874
0.340036
0.424396
0.410179
0.352765
0.358234
0.393319
0.357571
0.39166
0.367084
0.350288
0.433281
0.444284
0.349702
0.365282
0.402847
0.41921
0.379039
0.449346
0.442455
0.424302
0.406989
0.418405
0.421186
0.433732
0.136345
0.0902083
0.322703
0.329072
0.189972
0.192105
0.238686
0.245699
0.121267
0.0698553
0.302692
0.425567
0.288035
0.194552
0.210829
0.194831
0.388205
0.403201
0.450495
0.533881
0.419697
0.396132
0.436682
0.425813
0.638869
0.732868
0.647874
0.854883
0.759862
0.723415
0.778906
0.740589
0.212707
0.3693
0.495819
0.524023
0.269025
0.287589
0.418178
0.439378
0.182071
0.503208
0.31036
0.306848
0.232975
0.251998
0.277304
0.389568
0.360367
0.462896
0.510009
0.551979
0.445846
0.489695
0.538712
0.493185
0.357251
0.541803
0.525858
0.384615
0.400878
0.493738
0.400446
0.517912
0.711919
0.647765
0.740797
0.781313
0.708263
0.690872
0.759696
0.721519
0.572429
0.497184
0.574953
0.55855
0.545745
0.537288
0.579172
0.557513
0.759308
0.665473
0.767649
0.810615
0.753712
0.724507
0.789888
0.75723
0.843721
0.689658
0.837777
0.867702
0.791202
0.772275
0.893626
0.815445
0.629547
0.736852
0.757963
0.644393
0.668993
0.725328
0.680598
0.743048
0.617154
0.633109
0.623235
0.714366
0.644033
0.627192
0.662397
0.64081
0.779104
0.829096
0.696746
0.828743
0.807398
0.781234
0.783483
0.766752
0.74571
0.794146
0.657422
0.65187
0.745433
0.760138
0.673606
0.681854
0.616853
0.605286
0.589596
0.658502
0.607621
0.588001
0.620809
0.590471
0.55401
0.442322
0.49065
0.517599
0.523343
0.496901
0.5214
0.477295
0.553007
0.49527
0.467708
0.558475
0.527716
0.500718
0.5237
0.490544
0.705434
0.631041
0.658231
0.789443
0.712386
0.672073
0.736091
0.686223
0.585823
0.577629
0.654665
0.617468
0.591004
0.610224
0.624559
0.618296
0.554275
0.575494
0.517648
0.551683
0.553773
0.570277
0.559861
0.547901
0.579416
0.671568
0.613312
0.625112
0.625274
0.629807
0.617732
0.633943
0.553321
0.584873
0.573798
0.505055
0.557824
0.578575
0.546755
0.560932
0.0524266
0.238208
0.274519
0.314452
0.293198
0.284642
0.328291
0.374985
0.376719
0.431181
0.470354
0.530944
0.462647
0.446855
0.49396
0.481385
0.399398
0.467866
0.41331
0.475643
0.482863
0.454953
0.480841
0.485558
0.585702
0.61595
0.609
0.78808
0.652944
0.622199
0.697185
0.688612
0.404538
0.380202
0.47178
0.539141
0.457328
0.387737
0.45607
0.492875
0.385528
0.536675
0.453833
0.357207
0.449527
0.462816
0.410738
0.470455
0.410922
0.553789
0.602854
0.558268
0.509034
0.539203
0.570885
0.55012
0.454369
0.559551
0.566892
0.503107
0.479737
0.522784
0.51457
0.536993
0.581906
0.615122
0.633913
0.585584
0.595678
0.607819
0.595353
0.626533
0.663952
0.712432
0.72577
0.674274
0.682371
0.708108
0.681442
0.716595
0.676758
0.704247
0.671253
0.595219
0.649067
0.691223
0.635438
0.681408
0.560961
0.600034
0.547617
0.513206
0.575477
0.576955
0.546526
0.546287
0.640281
0.632244
0.599604
0.643418
0.635178
0.627248
0.619383
0.608555
0.654884
0.653166
0.713571
0.658614
0.661211
0.672553
0.66689
0.680905
0.624602
0.577898
0.620868
0.582036
0.605823
0.602084
0.593364
0.604517
0.668522
0.595856
0.64435
0.705137
0.651914
0.622512
0.666752
0.648974
0.0746041
0.252109
0.0853415
0.207145
0.183312
0.164504
0.17155
0.154714
0.426133
0.555091
0.432071
0.490252
0.491722
0.487821
0.483211
0.472836
0.0963617
0.270015
0.0973506
0.237425
0.186484
0.193586
0.185803
0.171743
0.335396
0.469951
0.352396
0.450063
0.42152
0.405345
0.420157
0.408391
0.335976
0.182872
0.306851
0.438545
0.328691
0.247762
0.359821
0.30127
0.336645
0.439791
0.355835
0.175749
0.325069
0.400453
0.282085
0.350941
0.180281
0.300626
0.441117
0.31676
0.237404
0.286686
0.320513
0.368871
0.160871
0.301143
0.428325
0.335396
0.249892
0.314603
0.349792
0.385149
0.561261
0.574895
0.548344
0.557507
0.568827
0.570492
0.55371
0.558628
0.593615
0.617229
0.602197
0.583638
0.597687
0.603435
0.572429
0.584793
0.537455
0.566952
0.461897
0.491953
0.547214
0.545189
0.497106
0.505565
0.538508
0.552219
0.51246
0.497322
0.529214
0.532744
0.500616
0.506517
0.578723
0.545092
0.558386
0.567328
0.570224
0.555691
0.573205
0.561859
0.584921
0.572694
0.579234
0.551415
0.576748
0.58083
0.546246
0.58095
0.534808
0.540618
0.543953
0.509116
0.53334
0.54643
0.533295
0.538788
0.542021
0.513775
0.552247
0.550142
0.542283
0.536782
0.53455
0.550009
0.11658
0.221103
0.135837
0.243708
0.189389
0.198407
0.189776
0.188828
0.314312
0.397353
0.391046
0.455632
0.375665
0.353607
0.410162
0.409755
0.114582
0.326614
0.242671
0.313551
0.199151
0.132027
0.188354
0.179457
0.35005
0.452727
0.414606
0.438473
0.394744
0.396533
0.386517
0.383573
0.289362
0.201951
0.294745
0.37486
0.318741
0.252911
0.338516
0.30389
0.289203
0.377105
0.298507
0.190489
0.325168
0.3694
0.245237
0.332242
0.170873
0.300013
0.41335
0.322778
0.260396
0.302315
0.298111
0.361862
0.165784
0.309453
0.406605
0.3258
0.232194
0.322371
0.2987
0.412023
0.556239
0.539849
0.593358
0.597487
0.564595
0.561759
0.593969
0.588199
0.499666
0.440232
0.549496
0.511909
0.499373
0.494661
0.56569
0.560487
0.598804
0.594786
0.618573
0.659446
0.611267
0.601347
0.63037
0.623829
0.656519
0.62443
0.710698
0.794205
0.679561
0.664216
0.744702
0.726209
0.553573
0.591478
0.602294
0.579704
0.583004
0.601305
0.54605
0.595903
0.552777
0.570081
0.548976
0.587724
0.579509
0.569649
0.54007
0.567665
0.612257
0.646173
0.627157
0.683251
0.642423
0.635058
0.643787
0.647379
0.603195
0.674782
0.617464
0.595362
0.612142
0.629606
0.614048
0.62743
0.0478429
0.0242803
0.233704
0.302607
0.137045
0.0997533
0.255682
0.229099
0.00691133
0.0699564
0.274868
0.324441
0.171823
0.130402
0.306454
0.303604
0.336003
0.39311
0.420235
0.498464
0.377188
0.365098
0.422168
0.405551
0.524912
0.605891
0.64133
0.785617
0.611994
0.583171
0.634213
0.613012
0.127368
0.288356
0.360338
0.320142
0.289874
0.325538
0.330471
0.348111
0.105819
0.32264
0.30526
0.280228
0.263234
0.301058
0.250579
0.318564
0.326792
0.40109
0.446439
0.502196
0.39514
0.400496
0.474211
0.504397
0.312458
0.480165
0.431719
0.395899
0.371678
0.456853
0.403983
0.511055
0.563599
0.544639
0.590578
0.537985
0.554934
0.561156
0.55971
0.567783
0.516507
0.477266
0.554267
0.476683
0.500911
0.502797
0.498688
0.505927
0.626143
0.603263
0.66064
0.576011
0.610996
0.623024
0.617392
0.63034
0.50672
0.46588
0.516221
0.472856
0.488828
0.491715
0.481357
0.487716
0.531403
0.580852
0.527589
0.496313
0.535013
0.559593
0.51347
0.532012
0.536039
0.49923
0.567879
0.59052
0.543566
0.526911
0.571736
0.559936
0.57554
0.527367
0.493355
0.539752
0.561016
0.533961
0.544821
0.514245
0.58792
0.546699
0.499591
0.57054
0.574415
0.552285
0.559285
0.536358
0.106151
0.254486
0.0857813
0.264218
0.199079
0.219281
0.18491
0.202272
0.359137
0.41792
0.334209
0.422634
0.383443
0.365763
0.381805
0.37525
0.0521924
0.232825
0.0631048
0.218161
0.18588
0.135823
0.184669
0.148719
0.34258
0.417527
0.33309
0.429594
0.37553
0.364459
0.360718
0.383386
0.309759
0.188037
0.297389
0.375837
0.297943
0.233933
0.378254
0.293095
0.319016
0.366936
0.261599
0.183481
0.304354
0.338318
0.230292
0.296583
0.18662
0.257768
0.37266
0.290338
0.2212
0.303437
0.292066
0.325875
0.179986
0.289793
0.375463
0.271588
0.221015
0.274032
0.309458
0.326809
1.01271
0.799243
1.16001
1.08136
0.884437
0.950869
1.06166
1.03661
0.727938
0.646334
0.827133
0.734527
0.679306
0.698618
0.743891
0.73625
1.22086
1.02915
1.30117
1.22454
1.1215
1.11077
1.23987
1.19963
1.08673
0.871727
1.10718
1.09445
0.785453
0.831894
1.01393
1.01704
0.781961
1.04089
0.815969
0.753082
0.869986
0.929778
0.815412
0.90502
0.805869
0.779493
0.892976
1.04795
0.861922
0.786229
0.943602
0.889593
1.19343
1.09893
0.855972
1.09363
1.10638
1.04349
0.986469
0.923442
1.16155
1.08167
0.854816
0.936712
1.01809
0.982655
0.952261
0.94497
0.0377657
0.373107
0.340553
-0.00890477
0.268167
0.437953
0.230482
0.382113
0.510027
0.580173
0.689402
0.692788
0.598968
0.583768
0.627754
0.626639
0.719658
0.753202
0.832548
0.929183
0.765132
0.758956
0.858657
0.740359
0.900873
0.809105
1.00059
1.03714
0.798263
0.759738
0.8278
0.795624
0.548159
0.575419
0.418435
0.627888
0.610014
0.570838
0.683594
0.569557
0.50769
0.642911
0.650682
0.613959
0.532955
0.5473
0.632811
0.674724
0.522533
0.531592
0.704923
0.825616
0.841272
0.677095
0.909532
0.749863
0.531684
0.753195
0.707383
0.706631
0.651077
0.702677
0.765691
0.738034
0.0431116
0.0538471
0.0112052
0.187403
0.1738
0.0738739
0.116074
0.131716
0.067613
0.0177849
0.0649397
0.164333
0.128463
0.0487877
0.192737
0.231752
0.027923
0.0529569
0.0521108
0.201188
0.181118
0.0463591
0.0695349
0.236551
0.307942
0.345418
0.322087
0.405556
0.364305
0.337602
0.374445
0.382918
0.156462
0.160931
0.272609
0.271006
0.197618
0.161032
0.2152
0.194379
0.0724198
0.18731
0.0346179
0.0624432
0.13402
0.188112
0.0739395
0.126042
0.0652065
0.272315
0.338294
0.321118
0.210858
0.270016
0.269006
0.312862
0.133462
0.308742
0.313574
0.242722
0.195453
0.175453
0.252173
0.217756
0.690359
0.643279
0.706311
0.631079
0.663759
0.67655
0.675614
0.682831
0.602733
0.577864
0.612361
0.56374
0.591712
0.596649
0.59024
0.593912
0.728557
0.665908
0.733873
0.644408
0.696919
0.705636
0.703642
0.705643
0.569168
0.53685
0.568427
0.49579
0.539931
0.550054
0.528545
0.537724
0.620063
0.681494
0.600657
0.572781
0.62744
0.649227
0.584509
0.608883
0.629022
0.578006
0.641564
0.692338
0.632868
0.608186
0.654619
0.63472
0.69333
0.598785
0.565268
0.607282
0.640776
0.606744
0.611723
0.586189
0.698391
0.610902
0.570743
0.643164
0.663113
0.618039
0.638302
0.593688
0.566206
0.604092
0.538835
0.563039
0.578304
0.579974
0.559449
0.555476
0.636413
0.615305
0.526564
0.53117
0.610629
0.59803
0.572143
0.552201
0.489797
0.468324
0.425594
0.442624
0.474208
0.457565
0.451244
0.433577
0.528669
0.501742
0.465027
0.484915
0.538733
0.523896
0.507636
0.483957
0.600801
0.540882
0.568252
0.562346
0.57841
0.562953
0.567884
0.5622
0.604164
0.552538
0.515765
0.532451
0.570502
0.562192
0.545696
0.531125
0.51726
0.54351
0.52807
0.480484
0.510208
0.52492
0.507483
0.530795
0.501201
0.460072
0.510773
0.489298
0.497136
0.493737
0.505188
0.489003
0.392063
0.426815
0.313453
0.414865
0.41304
0.397844
0.37339
0.365035
0.485066
0.560641
0.421304
0.495078
0.519472
0.542011
0.491708
0.487972
0.243328
0.268697
0.095732
0.235872
0.236935
0.23223
0.196947
0.173537
0.432767
0.476745
0.35806
0.460313
0.453599
0.457619
0.425632
0.421032
0.459562
0.33129
0.429954
0.494336
0.425911
0.391668
0.453785
0.424132
0.453617
0.491509
0.38396
0.304554
0.417462
0.437824
0.348703
0.383566
0.295778
0.402344
0.460935
0.319447
0.345173
0.388591
0.35756
0.409705
0.27069
0.305379
0.451288
0.330892
0.296115
0.348089
0.351531
0.370419
1.11099
1.09899
1.24687
1.27447
1.07306
0.975989
1.21524
1.08188
1.07765
1.03909
1.15618
0.976376
1.13311
0.968184
1.25582
1.1034
1.30587
1.25739
1.33999
1.54452
1.42922
1.25683
1.49129
1.34456
1.38189
0.85972
1.83194
1.15131
1.15233
1.13166
1.41089
1.20817
1.05125
1.34957
1.25247
1.05774
1.28113
1.30118
1.02389
1.02655
0.972834
1.09367
1.15826
1.18924
1.05271
1.25306
1.21406
1.24187
1.42617
1.37145
1.3893
1.80109
1.47877
1.187
1.67993
1.73841
1.28289
1.51135
1.19028
1.23327
1.41583
1.40146
1.38342
1.35788
-0.0200232
0.276981
0.310028
0.314092
0.224438
0.353214
0.422725
0.392883
0.871726
1.06681
1.04359
1.03151
0.904784
0.949099
1.07231
1.07653
0.656046
0.935365
0.902209
0.97254
0.794978
0.892196
0.86037
0.914057
0.176573
0.700039
1.05818
0.970849
0.337627
0.60361
0.73428
1.05681
1.05285
0.330242
0.292001
0.815756
0.948531
0.509752
0.752515
0.547745
0.889863
1.07052
0.949415
0.461801
0.782084
0.964623
0.648806
0.853403
0.549215
0.532794
0.967929
0.787063
0.520733
0.614046
0.600226
0.593262
0.601313
0.968636
1.08052
1.06303
0.699601
0.76322
1.00574
0.763745
0.230033
0.386487
0.441159
0.535061
0.27382
0.431881
0.338706
0.383295
0.465646
0.531172
0.511707
0.500844
0.504574
0.532955
0.493333
0.514978
0.431516
0.496993
0.454074
0.398234
0.42645
0.444794
0.40723
0.427607
0.462997
0.480339
0.434538
0.440456
0.469632
0.434986
0.46132
0.415911
0.478565
0.420857
0.490044
0.476469
0.474468
0.44737
0.489265
0.440948
0.53455
0.488474
0.544095
0.481207
0.56203
0.481312
0.443124
0.509578
0.384824
0.414848
0.463528
0.384783
0.421354
0.372477
0.441533
0.43956
0.402599
0.408314
0.479753
0.520638
0.445142
0.423326
0.47529
0.44823
-0.0149518
0.119912
0.212318
0.166922
0.112592
0.173132
0.120569
0.212473
0.193175
0.184282
0.0985491
0.166528
0.0331892
-0.0587063
0.0695815
-0.00281806
0.293173
0.295888
0.364305
0.361506
0.282982
0.296875
0.323007
0.339513
0.254761
0.328081
0.375706
0.400047
0.278054
0.332724
0.313118
0.376883
0.126163
0.198253
0.18824
0.224646
0.172935
0.248076
0.228883
0.25169
0.176687
0.156254
0.184833
0.205199
0.23907
0.237797
0.2686
0.264975
0.238659
0.227012
0.275209
0.342406
0.274964
0.279387
0.306436
0.335758
0.255885
0.33393
0.22391
0.215763
0.280243
0.306006
0.293465
0.328358
0.752429
0.752804
0.683542
0.761102
0.753951
0.747876
0.746451
0.729794
0.832353
0.216997
0.436576
0.707571
0.58286
0.21507
0.651055
0.301858
0.56714
0.434923
0.447798
0.543752
0.530638
0.487952
0.509678
0.487183
0.774283
0.7797
0.63108
0.847629
0.793021
0.818309
0.781362
0.705418
0.775864
0.656081
0.765399
0.804292
0.732949
0.749791
0.669471
0.758006
0.729866
0.62316
0.416164
0.619769
0.644819
0.501224
0.619058
0.582438
0.630958
0.75147
0.701699
0.617157
0.659095
0.738216
0.644986
0.760648
0.601401
0.554538
0.565494
0.403619
0.588971
0.615358
0.544675
0.578165
0.0707136
0.446256
0.422127
0.294504
0.19122
0.413404
0.261929
0.702189
0.438265
0.435471
0.372544
0.514268
0.396776
0.421697
0.466115
0.417493
0.674747
0.355015
0.740407
0.275555
0.38678
-0.148594
0.212166
0.107859
0.658612
0.636552
0.690562
0.852416
0.756633
0.679743
0.789243
0.796277
0.373117
0.379569
0.534601
0.579725
0.464217
0.485324
0.470672
0.657918
0.389313
0.505872
0.336851
0.215674
0.460514
0.435261
0.486864
0.387401
0.366459
0.511252
0.587776
0.613458
0.610145
0.782862
0.707459
0.68361
0.480875
0.468499
0.545493
0.312153
0.423084
0.44721
0.407164
0.454752
0.840996
0.910225
0.802045
0.799178
0.831526
0.868902
0.830606
0.802806
0.89822
0.90281
0.896875
0.798133
0.893774
0.962583
0.851761
0.844705
0.865212
1.06111
1.20917
0.999186
0.800035
1.02649
0.832268
0.936459
0.791014
0.740434
0.908635
0.742132
0.680318
0.743256
0.664261
0.749014
0.803587
0.80353
0.773501
0.780125
0.83809
0.823446
0.815533
0.786991
0.851319
0.828723
1.07217
0.936338
0.835813
0.848508
0.973841
0.874509
0.813364
0.765134
0.75503
0.897814
0.823117
0.809452
0.838759
0.795928
0.804727
0.930022
0.778739
0.913974
0.948985
0.900912
0.89171
0.814166
0.3195
0.703431
0.523634
0.508611
0.497648
0.540033