/*--------------------------------*- C++ -*----------------------------------*\
| =========                 |                                                 |
| \\      /  F ield         | OpenFOAM: The Open Source CFD Toolbox           |
|  \\    /   O peration     | Version:  2506                                  |
|   \\  /    A nd           | Website:  www.openfoam.com                      |
|    \\/     M anipulation  |                                                 |
\*---------------------------------------------------------------------------*/
FoamFile
{
    version     2.0;
    format      ascii;
    arch        "LSB;label=32;scalar=64";
    class       volVectorField;
    location    "700";
    object      U;
}
// * * * * * * * * * * * * * * * * * * * * * * * * * * * * * * * * * * * * * //

dimensions      [0 1 -1 0 0 0 0];

internalField   nonuniform List<vector> 
54912
(
(-0.481561 -0.0698985 -2.09335)
(-0.598829 -0.463437 -1.2741)
(-8.23883e-05 0.101086 -1.12638)
(-0.569925 0.621049 -1.94998)
(-0.436099 -0.271965 -1.94223)
(0.346544 -0.0210354 -1.84862)
(-0.399088 -0.2823 -1.53671)
(0.179868 -0.190204 -1.77738)
(-0.173197 0.431996 -1.17152)
(0.930489 0.596316 0.263423)
(0.267722 0.0407576 -0.596955)
(1.59791 1.53661 0.881485)
(0.714836 1.64294 0.27458)
(1.15647 0.366367 0.313077)
(1.51447 1.53639 0.100631)
(1.15149 0.452072 1.49212)
(0.277989 -0.125406 -0.154386)
(-0.412615 -0.499281 -1.48122)
(-0.0665299 -0.683822 -2.026)
(-0.633402 0.973511 -1.39281)
(-0.0426729 0.629175 -0.0940021)
(0.135102 -0.559868 -1.84415)
(-0.596609 0.477546 0.487239)
(-0.6439 -0.149348 0.46562)
(-0.385384 0.767227 -1.03286)
(1.85402 1.85633 0.59543)
(0.669182 1.99945 0.295708)
(1.27376 2.76378 2.12995)
(0.204024 2.29669 -0.104607)
(2.34422 1.33554 -0.638279)
(1.14862 3.27353 2.09303)
(0.848468 1.94927 1.4963)
(0.0147198 -0.036629 -1.16418)
(0.447672 0.45137 -1.20713)
(-0.353275 0.517746 -1.65428)
(0.750853 1.52086 0.160949)
(0.583363 0.581073 -0.509843)
(0.686805 0.230423 -1.67327)
(0.569361 0.319716 -0.827012)
(0.644215 0.640609 -1.68718)
(0.24154 0.442695 -0.897488)
(2.04655 1.45514 0.290846)
(0.786998 0.187479 -0.987992)
(0.190342 0.0849123 -0.586091)
(0.368475 0.836031 -1.03249)
(0.835156 0.949652 -0.423863)
(0.251209 0.328279 -0.921012)
(0.803432 0.983708 -0.373926)
(0.43364 0.740825 -1.13244)
(-0.192576 0.814481 -0.399803)
(1.78981 2.14839 0.768496)
(0.315976 2.0219 0.256563)
(0.488648 0.401437 -0.666235)
(0.902967 0.36763 -1.15193)
(0.416777 1.85288 -0.414857)
(1.00297 0.922513 -0.943717)
(0.613404 0.733383 -0.954801)
(0.420622 1.35354 0.511079)
(1.38781 1.48115 1.42125)
(0.116552 0.965896 0.0174291)
(0.428231 0.491777 -0.585508)
(1.06784 0.865265 -1.26396)
(0.66561 1.02165 0.0475518)
(0.601078 0.866083 -0.309001)
(-0.34345 0.305983 -1.82685)
(-1.13121 -0.464807 -0.521515)
(-0.579531 0.131306 -1.43253)
(2.86701 -2.50479 2.19522)
(-0.375562 1.11313 -1.38858)
(-0.880313 1.10145 -1.32371)
(2.00021 -1.63846 1.90172)
(1.16833 0.928537 -0.798225)
(-0.494344 0.399065 -1.44793)
(-1.32309 0.0496681 -1.96059)
(1.72597 1.73232 -2.24474)
(0.723184 -0.259921 -2.14289)
(-0.487882 0.370211 -0.772556)
(-0.190604 0.670736 -2.31436)
(-0.344668 -0.904999 -1.3986)
(-0.557042 -0.923115 -2.39988)
(0.405621 -2.08156 2.35592)
(2.15283 0.714834 -1.16613)
(0.405201 -1.10668 1.82421)
(2.96425 -2.44481 4.22951)
(0.270073 -1.581 1.3618)
(0.808116 -1.42948 2.05408)
(1.83132 -1.90558 4.82972)
(1.45048 -2.08204 3.84243)
(3.20767 -2.32696 3.23096)
(2.00394 0.403178 0.814724)
(2.7023 -0.428329 2.74681)
(2.71533 -1.40596 2.28314)
(1.9442 -2.46663 1.44533)
(1.63853 -0.0893871 1.39455)
(2.03417 -1.82796 3.84503)
(1.75709 -0.632157 3.52475)
(-0.556831 -0.296069 -0.695181)
(-0.341211 0.236079 -1.52631)
(0.915032 -2.15314 0.452914)
(1.10778 0.571807 -0.610556)
(-0.742909 -0.114891 -1.07381)
(0.198864 -1.06146 -0.0145057)
(0.46648 0.427848 -0.998749)
(0.0198539 -0.108693 -1.16034)
(-0.761446 0.0441398 -1.29981)
(1.36634 0.797223 -0.912752)
(1.97157 0.689979 -1.06357)
(-0.242316 -0.465693 -0.912374)
(-0.926345 -0.340481 -1.08852)
(-0.177421 0.554328 -0.34814)
(-0.0783691 -0.511347 -1.07411)
(1.51158 0.366755 -1.16589)
(0.568513 -1.78239 1.77922)
(3.15782 -2.7869 3.89714)
(2.00256 -1.1682 2.7644)
(3.10148 -2.82622 5.27332)
(2.70522 -2.83193 3.08233)
(2.21561 -2.20268 3.15496)
(2.20968 -2.03634 2.7521)
(2.1537 -2.00212 2.9605)
(0.182303 -0.656733 1.08447)
(2.74271 -2.85438 4.39612)
(1.26343 -1.24317 0.965997)
(1.21035 -0.521509 -0.20532)
(0.709546 -0.653148 0.896562)
(2.46211 -1.9709 3.39625)
(1.36502 -0.860926 1.48865)
(1.60806 -0.224082 0.671717)
(0.664556 0.930327 0.573406)
(1.09266 1.88616 -0.958888)
(0.171623 0.160697 0.524111)
(3.0026 6.60618 0.895623)
(1.66301 0.690418 2.04873)
(1.10715 1.63359 -1.47442)
(1.64216 1.06694 -0.242843)
(1.13605 1.79577 -1.77228)
(1.32618 2.03924 -1.52437)
(0.118264 0.563712 -0.988835)
(-0.660049 0.598756 0.414636)
(0.367105 1.80115 -2.22451)
(0.9172 1.4404 -1.31188)
(0.301753 0.887496 -0.918405)
(0.443539 0.737753 -0.605264)
(-0.232821 0.770186 -0.746886)
(0.565465 0.358402 -1.75596)
(0.393323 -0.360037 -1.05999)
(0.452441 -0.451238 -1.24036)
(-0.370667 0.227457 0.296376)
(0.0870078 -0.106193 -1.30911)
(0.326102 -0.390359 -1.12019)
(-0.218379 0.0101933 -0.554525)
(0.116485 -0.282495 -0.850383)
(0.0865996 2.75454 -0.240095)
(2.10069 0.00519156 0.12581)
(0.588091 0.00113701 1.60228)
(-0.588049 0.224127 1.32013)
(-0.121097 1.84615 0.524969)
(0.87711 0.526103 0.799775)
(0.0751626 0.593915 2.11772)
(0.814779 0.348933 1.97468)
(0.862111 2.32119 0.103473)
(1.21383 -0.37759 -1.24181)
(2.45998 5.33102 0.638526)
(2.26541 4.23695 -1.62637)
(3.17176 2.33937 -0.376836)
(0.939291 -1.67452 -0.355188)
(3.00687 5.08009 -1.65708)
(3.41569 3.90872 1.27743)
(1.46141 1.44811 -1.45907)
(2.83239 3.14132 1.05629)
(-0.0951904 -0.710717 -0.796347)
(0.929379 -0.810478 -1.43952)
(1.96961 -0.180626 -1.13159)
(1.03134 0.0789932 -0.107692)
(0.0182283 -0.382849 -0.823084)
(-0.705208 -0.602476 -0.762603)
(0.193464 0.350517 -0.483776)
(1.62484 3.43724 2.49129)
(2.73801 0.34334 0.947232)
(0.592275 -0.359451 0.557569)
(-1.84101 1.33768 1.72877)
(0.797588 1.8995 -0.0825637)
(-1.09321 0.727003 0.364413)
(-0.378005 1.89786 -0.727231)
(0.362982 0.211719 -1.17375)
(0.612926 0.46433 0.724149)
(3.10737 2.02318 1.82907)
(0.156989 -0.117454 -0.797657)
(0.328859 -0.296868 -1.39664)
(0.644036 0.948793 1.48677)
(-0.723505 -0.483646 -0.901413)
(1.80775 1.70516 1.85678)
(0.03921 -0.228087 -0.75291)
(0.020869 0.000911607 -0.368415)
(0.0392524 -0.518403 -0.19431)
(0.296486 -0.577745 -0.0256579)
(-0.0260835 0.315857 -0.773979)
(-0.0868454 -0.161886 -0.770114)
(0.154647 -0.304597 -0.667665)
(0.127749 -0.325025 0.0249636)
(-0.00955607 -0.162877 -0.436414)
(-0.0219786 -0.0385664 -0.266194)
(-0.00515428 0.0382964 -0.302798)
(-0.0257624 -0.0104316 -0.292682)
(-0.03304 -0.11219 -0.446181)
(-0.0340475 -0.0498848 -0.350941)
(-0.0464531 -0.0552314 -0.35972)
(0.0115025 0.0201884 -0.221226)
(-0.378829 -0.0158089 0.593692)
(-0.0561263 -0.0626738 0.045766)
(-1.66108 -0.172576 1.80463)
(-0.916945 -0.277321 0.456607)
(-0.620485 0.0908769 0.693583)
(-0.394449 0.209095 0.472137)
(-1.41289 -0.250982 1.67982)
(-1.15646 -0.180126 0.540282)
(0.125377 -0.878738 -0.24413)
(0.0608615 -0.0360042 -0.231052)
(-0.389121 -0.020058 0.169511)
(-0.427498 -0.251576 -0.225672)
(0.406982 -0.397459 -0.183821)
(-0.0901263 0.187772 -0.424283)
(-0.535273 -0.734338 0.212027)
(-0.115945 0.122687 -0.353029)
(0.107698 -0.0204749 -0.520176)
(-0.0487637 -0.753574 -0.306597)
(0.391301 -0.49928 0.0409011)
(-0.0798485 -0.0471298 -0.54752)
(0.135834 -0.0887214 -0.458249)
(0.0220022 -0.518159 -0.0191509)
(0.0708203 -0.201381 -0.594762)
(0.139912 -0.338905 -0.538747)
(0.0714311 -0.116833 -0.512121)
(-0.0575677 -0.0107667 -0.351033)
(-0.0331004 0.0480362 -0.231619)
(-0.331111 0.0177491 -0.130143)
(0.060345 -0.0418586 -0.398467)
(0.0269878 -0.0514714 -0.413735)
(0.0686328 0.00264463 -0.409867)
(0.017493 0.0458639 -0.287582)
(-0.230472 -0.843105 0.0406248)
(0.107306 -0.555487 -0.382818)
(-0.0339892 0.000247773 -0.379941)
(-0.723079 -0.319366 0.876747)
(-0.339615 -0.720418 0.201564)
(-0.287857 -0.147398 -0.565482)
(-0.251506 -0.668958 0.15713)
(-0.150291 -0.143138 -0.25223)
(-0.322573 -0.0264698 0.201763)
(-0.632297 -0.127987 0.672112)
(0.0849634 0.0345244 -0.04562)
(0.0664898 -0.0434557 -0.0100573)
(-0.176436 0.226456 0.295406)
(-0.158001 -0.212767 0.511684)
(-0.152481 0.216261 -0.185307)
(0.00734917 0.0485854 -0.0178972)
(0.347883 0.0719664 -0.206248)
(-0.645268 0.10284 -1.04048)
(0.968263 0.26836 1.39345)
(-0.172375 -0.337156 -1.01982)
(0.152865 -0.0552208 -0.346244)
(-0.0765568 0.165858 -0.753329)
(0.0513477 0.0967655 -0.125729)
(0.0552786 0.101414 -0.535623)
(-1.1018 0.0315836 -0.575028)
(-0.485454 -0.059964 0.496593)
(-1.07318 -0.232771 -0.242937)
(-1.09805 -0.278466 0.191393)
(-0.917526 0.111344 0.000628624)
(-0.80547 0.091104 0.296211)
(-1.15525 -0.259705 -0.37406)
(-1.29086 -0.0248157 0.0630169)
(1.4874 0.12025 2.43465)
(-0.0777916 -0.288256 0.0753028)
(2.07744 -0.17003 2.90412)
(-0.0121533 -0.990236 0.013453)
(1.03417 -0.330364 1.67967)
(0.580285 -0.183117 0.111403)
(1.53717 -0.388079 2.63799)
(1.27913 -0.27107 1.70774)
(-0.712297 -0.401508 -0.979699)
(-0.612314 -0.341882 -0.324517)
(-0.772329 -1.04801 -0.580714)
(-0.830401 -0.404769 -1.4835)
(-1.04814 -0.571211 -0.881869)
(-1.29071 -0.628276 -0.986808)
(-0.662115 -0.367567 -0.610746)
(-1.35644 -0.594423 -0.978057)
(-0.867435 0.0145323 -1.0327)
(0.528753 -0.21944 0.35348)
(-0.305091 -0.436553 -0.857046)
(-0.800853 -0.514656 -0.486701)
(-0.921513 -0.0940347 -1.02882)
(-0.268851 -0.0985122 -1.24883)
(-0.59925 -0.510183 -0.513894)
(-0.275405 -0.577928 -0.842326)
(-0.942784 -0.16428 -0.779903)
(-1.45435 -0.507287 -0.50814)
(-1.20588 -0.234896 -0.927201)
(-0.213277 -0.15461 -0.741506)
(-1.21123 -0.132277 -0.982428)
(-1.31475 -0.385026 -0.860577)
(-0.732289 -0.215397 -0.77776)
(-1.23378 -0.262974 -0.926193)
(1.01265 0.0116991 1.70553)
(-0.345377 -0.439032 -0.897689)
(-0.532046 -0.565113 -0.505593)
(-0.356612 -0.932335 -0.48639)
(-0.424928 -0.656046 -0.787591)
(-0.587285 -0.583654 -0.684066)
(-0.560471 -0.88689 -0.472376)
(-0.747027 -0.818515 -0.621526)
(0.122996 -0.0371228 0.675101)
(-0.995569 -0.668551 -0.814423)
(-1.24193 -0.561718 -0.614167)
(-1.35817 -0.431585 -0.546988)
(-0.809241 -0.616174 -0.357942)
(-1.04722 -0.337483 -0.767833)
(-0.758678 -0.596821 -0.242143)
(-1.26186 -0.628569 -0.576143)
(-0.264399 -0.368099 -1.06628)
(-0.0816388 -0.016346 -0.642482)
(-1.71871 1.4723 1.5221)
(-0.585796 -0.256274 0.308217)
(0.280752 -0.34398 -0.786568)
(-0.154421 -0.147536 -0.436996)
(-0.75068 -0.0909727 1.07809)
(-0.0627869 0.0534979 -0.176925)
(-0.142317 0.028089 -0.89976)
(0.240365 -0.346613 -1.11324)
(0.5162 0.0184475 -1.26649)
(1.05697 -0.772554 -0.572295)
(-0.287125 0.453643 -1.15649)
(0.453145 0.0670748 -1.60796)
(0.913387 -0.238655 -1.47315)
(0.306223 0.509676 -2.12275)
(-1.60834 1.63127 1.51228)
(0.943799 -0.220017 -0.880839)
(-0.341309 1.00814 0.621517)
(-1.62732 2.12339 2.38069)
(-0.216888 1.04468 -1.12365)
(0.92268 2.2552 -2.27239)
(-2.06968 2.188 2.14021)
(0.260659 2.84437 -0.466218)
(-0.164759 0.528285 -0.626433)
(-0.146526 0.747892 -0.660154)
(-2.66319 2.29096 3.00613)
(-0.343194 0.637729 0.439679)
(0.0800907 0.7801 -1.31508)
(-0.800655 0.723291 0.200575)
(-1.24196 0.459876 1.37473)
(-0.934504 1.05834 1.31967)
(-0.167591 0.0741242 -0.784154)
(-0.661191 0.381168 -0.948564)
(-0.0169075 0.132941 -0.499657)
(0.0507072 0.0308972 -0.905382)
(-0.0481686 0.28661 -0.723989)
(0.268295 0.165117 -0.31348)
(-0.115264 0.13144 -0.471843)
(-0.0345368 0.341338 -0.872323)
(-0.223375 0.208787 -0.569158)
(-0.728926 -0.586934 -1.57097)
(0.404383 0.820075 -1.93467)
(0.137418 0.788375 -0.508092)
(-0.338282 0.726883 0.691949)
(-1.21536 0.119568 -1.64779)
(-0.352723 0.833008 -0.237801)
(-0.10616 0.493372 -1.80673)
(-1.52177 1.56477 1.32823)
(-0.0563556 0.534846 -0.0683839)
(-0.526579 1.60488 -0.0644925)
(-3.02862 2.7505 3.2042)
(-2.64748 1.99014 2.91861)
(-0.175984 0.490061 0.324161)
(-2.13184 1.57232 1.3973)
(-0.56693 0.379073 0.760944)
(-0.132976 1.47102 0.405834)
(-2.37719 2.88748 2.27202)
(0.36903 1.05716 -1.41878)
(0.771106 1.83068 -1.3074)
(-0.579549 0.446811 0.378804)
(-1.01241 0.713212 0.103828)
(-1.07252 0.472135 -1.03568)
(0.196378 1.09461 -1.17883)
(-0.527128 -1.09933 -4.82483)
(-3.06952 -0.922199 -4.79655)
(-0.849006 -0.0209673 -3.79227)
(-3.48494 -1.02198 -2.45712)
(-2.22062 -1.20838 -3.79424)
(-1.23839 -0.499717 -4.71623)
(-2.07446 -1.03296 -2.97898)
(-2.03867 -0.509838 -3.959)
(-4.31624 0.581989 -3.39675)
(-5.80546 0.308307 -2.32088)
(-3.60307 -0.310973 -1.57819)
(-6.13994 -0.132935 -0.941465)
(-6.07163 -0.581994 -2.39336)
(-5.13505 0.228872 -2.2337)
(-5.66104 -0.380239 -1.37678)
(-4.16523 0.678173 -0.97982)
(-1.17686 1.57592 0.255575)
(-1.67776 -0.151895 -1.11762)
(-0.436163 -0.140139 -0.560544)
(-2.95989 0.563117 -0.846711)
(-1.74689 1.13496 -0.0342375)
(-1.42844 -0.275692 -1.05146)
(-2.70611 0.565313 -1.77881)
(-2.31833 -0.121638 -2.24867)
(-5.5991 0.856262 0.49161)
(-4.93392 -0.352368 -0.409892)
(-5.26996 0.513801 -0.88165)
(-5.87567 0.166831 0.129426)
(-5.47261 0.170756 -0.366559)
(-5.1041 0.518913 -0.200266)
(-6.24789 0.138842 -0.030414)
(-5.7086 1.01146 -0.305275)
(-3.52455 -0.677341 -1.84849)
(-1.71618 -0.33718 -0.901053)
(-4.7447 -1.24173 -0.864179)
(-6.07647 -0.13012 0.0355934)
(-3.74662 -0.808696 -1.61055)
(-3.28726 -0.524231 -1.1627)
(-4.91135 -0.625953 -0.91911)
(-4.05992 -0.450942 -1.01379)
(-3.0561 -0.226269 -3.02714)
(-5.48005 0.125306 -1.00688)
(-2.78295 -0.12263 -1.60436)
(-1.64971 -0.451094 -1.10618)
(-3.50025 0.0758951 -2.18151)
(-4.40256 -0.0204302 -0.963718)
(-2.23027 -0.57917 -1.71282)
(-3.76871 -0.754111 -1.74038)
(-3.01815 0.44713 -0.766184)
(-5.42857 0.221463 0.668068)
(-4.7607 -0.343255 0.112505)
(-5.21562 0.820142 -1.3302)
(-3.80212 1.44573 0.373526)
(-4.25243 0.903315 0.0543025)
(-4.14285 1.03236 -0.35247)
(-4.58716 0.735171 -0.355356)
(-2.43205 0.860893 -0.299061)
(-4.73484 0.290429 -1.22397)
(-4.36545 -0.333496 -0.75093)
(-2.95501 0.636497 -0.411995)
(-2.69019 0.437466 -0.139019)
(-4.27067 0.124393 -0.663956)
(-3.39996 -0.442602 -0.685466)
(-4.37322 -0.359454 -0.730626)
(0.462171 -0.675751 -5.19616)
(-0.779202 -1.07956 -7.3876)
(-1.794 -0.933671 -6.49712)
(-4.10414 -0.724976 -7.64426)
(-1.16204 -0.955826 -8.23356)
(-0.618134 -1.11587 -7.35466)
(-2.97053 -0.656552 -8.01562)
(-2.09415 -1.53757 -7.33136)
(-1.33626 -0.108364 -5.67595)
(-3.40909 1.4441 -7.87569)
(-4.15736 0.50316 -5.48976)
(1.56762 -0.898438 -1.00526)
(-1.93033 1.87161 -6.47209)
(-2.65761 1.88552 -8.30998)
(-2.67339 -1.18443 -2.93185)
(-3.76243 1.37491 -7.14492)
(-3.31156 -0.183545 -4.01462)
(-3.66485 -0.176542 -2.62693)
(-4.60522 -0.00917993 -1.69875)
(-3.23308 0.501574 0.368351)
(-2.77789 0.966248 -0.214784)
(-4.03809 -0.101484 -2.55653)
(-3.61275 0.318919 -0.418005)
(-4.31749 -0.217146 -2.06865)
(-1.40378 0.780559 1.10115)
(-2.86634 1.4089 0.644347)
(-3.41538 -0.625225 -1.01038)
(-0.784879 -0.0222113 0.728051)
(-0.427655 1.1678 2.06704)
(-2.8812 0.647071 -0.678307)
(-0.559362 0.157043 0.730834)
(-2.06253 0.432874 -0.247372)
(-0.606219 -0.376051 -7.65853)
(-1.74888 -0.500271 -4.43105)
(-2.22717 -0.606894 -5.10552)
(-4.22053 -0.379613 -6.54442)
(-1.58345 -1.68537 -6.21466)
(-1.20108 -0.0511865 -5.28992)
(-2.88355 -1.98883 -4.98858)
(-2.442 -0.487151 -3.93737)
(-1.47134 0.441045 -6.94535)
(-0.464626 -0.678323 -1.32609)
(-3.45457 0.246312 -5.15438)
(-2.29494 -0.225106 -4.88604)
(-1.923 -0.552463 -6.41821)
(-1.63837 -0.173838 -2.81879)
(-2.23521 -0.259946 -5.44118)
(-1.23497 1.00565 -1.75822)
(-2.69709 0.252517 -4.35123)
(-2.75073 0.141592 -5.46753)
(-4.24425 -0.483318 -6.01017)
(-4.01486 -1.10738 -1.46924)
(-3.88374 0.542979 -5.25695)
(-3.64574 -1.22871 -3.93428)
(-3.88291 -0.730596 -3.91779)
(-4.67518 -1.37376 -5.12342)
(-2.68607 -0.424002 -4.50074)
(-2.41705 1.11027 -0.818893)
(-1.26597 -0.84836 -1.37107)
(-4.63258 0.329579 -4.87234)
(-1.1911 1.46739 -0.665026)
(-2.12541 1.1167 -1.68836)
(-2.56024 -0.806904 -0.266768)
(-2.13283 -0.625816 -0.533636)
(-0.17055 -0.101801 -0.943018)
(0.409171 -0.829466 0.732662)
(-0.307114 0.144992 0.484624)
(-2.05467 1.97031 2.88915)
(-0.244324 0.2016 -0.47764)
(0.262223 -0.54136 0.30072)
(-0.333996 0.495863 0.0120491)
(-0.207807 0.117912 0.591875)
(-0.816389 0.321466 1.31443)
(-2.00419 0.619844 2.3612)
(-2.40957 0.676955 2.90567)
(-3.56858 1.8939 4.25432)
(-1.59 0.075686 2.23261)
(-1.93811 0.546696 2.26859)
(-1.93263 0.290344 2.30108)
(-2.22073 0.779055 2.68945)
(-1.61299 0.664326 1.8165)
(-2.6815 0.661741 3.32695)
(-2.8183 0.559594 3.59692)
(-3.05236 1.26155 4.30359)
(-2.48127 0.573312 2.663)
(-2.66738 0.669033 3.30306)
(-2.66955 0.586194 3.10732)
(-2.77565 0.684236 3.50933)
(-3.10659 1.94816 4.30454)
(-2.56235 1.70225 3.71268)
(-2.43878 1.52606 3.81493)
(-2.14329 1.54843 3.43479)
(-2.82153 1.6882 4.13018)
(-2.54297 1.61552 4.06827)
(-2.82412 1.7076 4.23272)
(-2.51943 1.68034 4.04303)
(-0.527762 -0.551251 1.57195)
(-1.0471 -0.261732 1.30762)
(-2.85285 2.15507 3.10263)
(-3.71387 1.95615 3.99491)
(-1.14263 0.167413 1.63043)
(-1.08182 -0.28031 1.31773)
(-3.10396 2.31649 4.03878)
(-3.14207 2.23067 3.07989)
(-0.511126 0.272391 1.1736)
(-3.52246 1.87044 4.14696)
(-2.37305 0.621846 2.83026)
(-1.05719 0.341572 1.29253)
(-1.06681 0.468666 1.34941)
(-2.07778 0.268433 2.29841)
(-1.25783 0.627185 1.48717)
(-2.11477 0.339413 2.31604)
(-1.4579 0.0702288 1.54842)
(-2.8684 2.07466 3.38922)
(-3.62016 1.90113 4.04208)
(-3.3343 1.68712 4.37892)
(-3.19671 2.20498 3.71334)
(-3.20545 2.3562 3.68523)
(-3.47256 1.75589 4.35783)
(-3.45916 1.96983 4.17313)
(-1.46436 0.638607 1.76273)
(-3.22008 1.50136 4.26437)
(-3.45088 1.75452 4.1453)
(-2.56659 0.812908 3.16352)
(-2.46164 0.509431 2.66074)
(-3.32096 1.58728 4.32207)
(-2.32868 0.509208 2.5337)
(-3.39136 1.61121 4.22622)
(-1.23671 0.624566 2.19212)
(-2.45521 1.84872 4.01692)
(1.28586 0.66579 0.566807)
(-3.29426 1.68127 3.88311)
(-2.22842 1.0687 3.05336)
(-1.72111 1.83076 2.96248)
(-2.25585 0.879147 2.95353)
(-1.94554 1.65782 2.16752)
(-2.96563 2.58987 3.89234)
(-1.89199 0.559635 2.04474)
(-0.625277 0.176625 1.36963)
(-3.68812 2.0804 4.31669)
(-3.30342 2.1347 4.01141)
(-1.10272 0.526629 1.6077)
(-3.30706 1.86847 4.04092)
(-1.52672 0.0458818 2.11064)
(0.949197 -0.0573033 0.302025)
(1.4279 -1.22809 0.0226266)
(0.845407 0.0919286 -0.793387)
(-1.55116 1.83057 2.85675)
(-0.529714 1.47086 1.51951)
(0.464418 0.169985 -0.589552)
(-0.656461 1.6216 1.42364)
(0.538325 0.125736 -0.644901)
(-3.13965 1.98228 3.87468)
(-2.56083 1.59956 4.13394)
(-2.99904 2.08065 4.45629)
(-2.40673 1.68733 3.40581)
(-2.53782 1.78124 3.82)
(-3.0574 1.82132 4.54235)
(-2.56498 1.8952 3.62127)
(-2.86965 1.72716 4.30391)
(-2.77663 1.92437 4.23267)
(-1.63372 1.53325 2.56036)
(-2.85437 1.78966 3.85119)
(-2.99309 1.87133 4.17661)
(-2.66997 1.68456 4.28937)
(-2.91873 1.86431 4.2818)
(-3.02147 1.92383 4.20458)
(-2.95957 1.76443 4.19873)
(-2.22438 2.5928 3.07144)
(-3.5595 2.34086 3.56483)
(-0.559255 0.646955 1.34337)
(-0.515748 1.42613 1.59621)
(-2.12603 2.30223 3.73696)
(-3.53706 2.47211 3.32542)
(-0.113504 1.94252 2.82201)
(-2.01849 2.16712 3.32089)
(-1.67408 1.13198 2.43029)
(-2.98206 1.88835 3.69371)
(-2.86584 1.81852 4.43817)
(-2.72202 1.81758 4.49057)
(-2.45814 1.79327 3.14685)
(-2.93011 1.97376 4.0579)
(-2.66328 1.93304 3.90936)
(-3.09152 1.83265 4.87502)
(-0.829127 0.767461 1.35152)
(-2.30389 1.92421 3.16899)
(-3.61211 2.1001 4.2655)
(-0.519018 -0.462293 0.888525)
(-1.18386 2.0391 2.28239)
(-2.16917 2.31036 2.66474)
(-1.5222 2.2167 2.15395)
(-2.92887 2.4162 3.57389)
(0.704501 0.867664 -1.13256)
(0.172046 -0.476756 -0.170528)
(1.18609 -0.352398 0.346213)
(2.04993 -1.44354 4.78309)
(1.04155 -0.582505 1.26912)
(-0.105851 0.000886669 -1.81734)
(1.21178 -1.33851 4.24516)
(1.36686 -1.21441 3.33356)
(0.490765 -0.720661 0.789476)
(0.275328 -0.223392 2.27448)
(-0.0283076 -0.472356 2.77063)
(1.06816 -0.278712 4.12107)
(0.43475 -0.878574 2.95827)
(0.9978 -0.498721 1.31976)
(0.476675 -1.18887 4.01605)
(0.577331 -1.11675 3.78147)
(2.32756 -1.02738 2.84409)
(1.02982 -0.228682 6.54486)
(0.639237 -0.885237 4.24887)
(2.41268 -2.008 5.46135)
(1.77395 -1.50591 5.23168)
(2.3647 -0.650615 3.90477)
(1.47987 -1.23012 4.41423)
(1.48844 -0.314873 4.48893)
(2.06305 -1.94477 4.55163)
(1.80544 -1.37511 4.50379)
(2.32774 -1.62895 4.50295)
(1.01069 -0.536529 3.06121)
(2.13363 -1.68307 4.47823)
(2.05514 -1.76282 4.65616)
(1.8523 -1.17719 4.13464)
(1.89682 -1.33453 4.35892)
(0.302507 -0.685325 1.97909)
(0.915843 -1.37889 3.03183)
(1.79014 -1.35292 4.6553)
(1.37022 -0.698068 4.31862)
(0.93792 -1.28108 4.33865)
(0.98273 -1.68413 4.44163)
(1.56969 -0.855751 4.18278)
(1.76159 -0.986981 4.43973)
(0.981504 -0.0294155 0.175928)
(1.56972 -0.942197 4.10755)
(-0.446897 0.370756 1.53687)
(1.49444 -1.00766 1.1947)
(0.447621 -1.34988 3.44324)
(0.461942 -1.35715 3.9992)
(0.71083 -0.309811 1.82283)
(0.654018 -0.863658 3.10642)
(1.69246 -1.49586 5.33485)
(2.41821 -2.14036 5.40753)
(2.10426 -1.40071 4.8281)
(2.35438 -1.70006 5.43281)
(2.23641 -1.83982 5.50574)
(2.1043 -1.71528 5.11119)
(2.24591 -1.83722 5.38208)
(2.30017 -1.6952 4.93782)
(1.85644 -1.35023 4.96181)
(2.40896 -1.71182 5.42855)
(1.90433 -1.26299 4.64812)
(1.19093 -1.16793 4.55881)
(1.61822 -1.68289 5.60548)
(2.19979 -1.68415 5.23298)
(1.43265 -1.88491 5.41266)
(2.1363 -1.44904 4.86878)
(1.27887 -1.05607 4.07138)
(1.60171 -0.570891 3.49134)
(2.29439 -1.58769 4.79025)
(1.50846 -2.04123 4.31791)
(1.10958 -1.11553 3.91831)
(1.67336 -1.35185 4.82208)
(1.02504 -2.3018 4.89123)
(1.52908 -1.80652 4.59835)
(1.24386 -0.00230845 2.52037)
(-1.34929 -0.595596 0.762912)
(1.08643 -0.720269 2.57669)
(2.09816 -1.63422 4.81527)
(1.75816 -0.281291 2.76015)
(0.699141 -1.93021 1.45909)
(1.94784 -1.46491 4.54888)
(1.3131 -1.11758 3.6089)
(2.74905 -2.25136 5.7193)
(1.94995 -1.20875 4.43706)
(0.710265 -1.34143 4.54902)
(2.29791 -1.80651 5.74389)
(2.60443 -1.8235 5.83852)
(2.11188 -2.30466 6.25909)
(2.91786 -2.12586 6.09689)
(1.18184 -1.14791 4.30296)
(1.53566 -0.910549 3.06694)
(2.18018 -1.7144 4.63356)
(2.06996 -1.42715 4.43185)
(1.19184 -0.636981 2.92402)
(1.46607 -0.727268 3.04064)
(2.095 -1.78546 4.30859)
(1.60692 -0.799658 3.18998)
(1.96719 -1.16831 4.19755)
(1.54494 -0.523736 3.89781)
(2.51353 -1.64646 4.82193)
(1.51863 -1.41224 4.13309)
(1.78765 -1.61545 4.70933)
(2.06305 -1.58429 4.99805)
(1.73214 -1.77898 4.73647)
(1.70824 -1.69691 4.73592)
(1.25205 -1.78469 4.5501)
(2.4274 -1.29332 3.49978)
(2.00233 -1.57229 4.8058)
(1.66196 -1.46417 3.5913)
(2.9667 -2.73956 5.87569)
(1.9294 -1.53326 4.38608)
(2.2054 -1.50368 4.52034)
(2.36421 -1.42624 4.62325)
(2.23847 -1.34059 4.50113)
(2.35098 -2.80168 5.80125)
(1.82738 -0.797374 3.57443)
(2.40583 -1.86817 5.14435)
(2.77336 -1.78712 4.93515)
(2.43989 -2.54491 5.19563)
(2.24182 -1.80276 4.81126)
(2.44543 -2.36381 5.17201)
(2.44655 -2.12674 5.01554)
(2.46249 -2.5357 5.52579)
(2.4598 -1.59666 5.64395)
(2.33538 -2.06848 5.59219)
(1.82306 -1.53657 5.39895)
(2.52115 -2.08118 5.69898)
(2.39889 -2.01223 5.43576)
(2.20987 -2.09737 5.84893)
(2.33103 -2.11612 5.64895)
(-0.373782 0.227082 -0.521382)
(-1.93733 -0.0123544 -0.699892)
(0.904663 0.0939068 0.0222474)
(1.13205 2.23043 -0.286674)
(0.83832 1.73711 -0.2306)
(1.74529 1.79528 0.159543)
(1.0409 2.1668 -0.0412864)
(0.918642 1.41216 -0.344417)
(-3.94454 -0.136018 -1.41071)
(-3.99865 0.0859168 -0.871894)
(-3.23701 -0.774949 -3.29758)
(-4.17962 -2.51415 -1.88284)
(-4.1289 -0.210985 -1.66205)
(-4.02994 0.205318 -0.524912)
(-3.80645 -1.05065 -3.0149)
(-3.28844 -0.948253 -3.3168)
(-3.25271 -2.71615 -4.82481)
(-2.74304 -1.89669 -5.85166)
(-0.950753 -1.49892 -8.21505)
(-2.61821 -2.10996 -6.09807)
(-3.81226 -2.8989 -5.51827)
(-3.65784 -1.90482 -6.1445)
(-3.54843 -1.98992 -6.04245)
(-1.56432 -1.63411 -7.19099)
(1.45774 0.0587488 -1.51497)
(0.70755 0.461777 -0.959149)
(-0.131752 -0.513992 -2.62851)
(1.03102 1.03966 -1.58758)
(1.07413 0.214849 -0.921309)
(1.99045 1.36782 -2.13957)
(0.573384 0.911758 -0.479837)
(0.196148 -0.138941 -1.17921)
(-0.869479 0.312244 -0.209932)
(1.35548 1.12332 0.772718)
(1.10057 2.2305 -0.647762)
(-2.32796 -0.848507 0.597764)
(0.446351 1.71615 0.226415)
(1.34057 1.16435 -0.412132)
(0.0715045 2.46774 -0.463909)
(1.19239 2.24717 -0.409142)
(-3.92682 -0.958555 -2.23931)
(-3.2331 -1.97372 -2.04754)
(-3.44192 -1.03238 -3.39738)
(-2.00099 -0.896544 -3.71864)
(-2.71329 0.111865 -2.45542)
(-3.36278 -1.42586 -3.45699)
(-2.76889 -1.18134 -3.0755)
(-3.58405 -1.74224 -4.12473)
(1.60501 1.45357 0.373684)
(0.153047 1.11314 -0.897865)
(-2.74923 0.0882601 -0.337366)
(-1.51597 -0.51153 -2.21268)
(-0.187505 0.768518 0.00832075)
(-0.2057 1.69472 -0.0884814)
(-1.90512 1.00164 -0.512394)
(-0.0196978 0.910208 -0.0059472)
(-2.48716 -0.982207 -3.6083)
(-2.54195 -1.80519 -5.39717)
(-3.74341 -2.24554 -3.34212)
(-3.61994 -2.12372 -5.41473)
(-3.3897 -2.20605 -4.82445)
(-2.98088 -2.07364 -3.92408)
(-4.00227 -2.21396 -4.37504)
(-3.52901 -2.18757 -3.91782)
(-6.59139 0.0962417 -0.924198)
(-5.95362 0.000697355 -0.0246086)
(-3.69146 -0.793805 -3.26831)
(-6.31327 -0.370798 -0.937357)
(-5.75657 0.602775 -0.902971)
(-5.85998 0.785092 -0.288256)
(-3.84655 -0.646329 -2.87774)
(-4.12894 -0.433476 -1.6759)
(-4.88427 -0.184233 0.40362)
(-4.78018 -1.08291 1.24135)
(-5.46047 0.449138 1.22397)
(-5.22812 -2.19749 2.70999)
(-5.07082 -0.0562587 0.947383)
(-4.95512 -0.241772 0.503091)
(-5.12237 -0.322949 2.10364)
(-5.15623 -0.547829 2.22438)
(-3.24643 -1.86459 -5.57772)
(-4.94932 -1.94408 -3.12355)
(-1.85436 -1.44175 -7.33374)
(-2.95557 -2.17194 -5.66997)
(-3.51497 -1.58397 -4.72632)
(-4.13412 -2.7251 -4.41186)
(-1.97047 -1.59734 -6.66849)
(-2.2654 -1.73671 -5.78112)
(-3.38516 1.63833 -1.99097)
(-5.21004 -2.4266 -0.0912888)
(-0.83247 -1.18589 -2.39635)
(-0.00453091 0.30026 -0.793321)
(-4.90094 -1.37961 -0.566209)
(-5.15882 -2.57104 -0.22467)
(-1.11345 -0.37295 -1.56019)
(-0.890029 0.151245 -0.757691)
(-5.47741 0.263148 0.354616)
(-3.20304 -0.71622 -2.3143)
(-4.94309 -1.17081 -0.181774)
(-5.62361 -1.41665 1.64173)
(-5.37393 0.166611 0.659239)
(-5.05642 -0.42388 -0.751019)
(-5.54482 -1.04064 1.17971)
(-4.64724 -1.06788 0.734871)
(-5.48836 -0.0783742 0.196763)
(-5.48992 -0.882324 2.00284)
(-5.47033 -0.307761 0.966117)
(-3.50253 -0.319687 -1.0032)
(-5.02805 -0.31193 0.196523)
(-5.75278 -0.308899 1.88062)
(-4.5307 -0.495814 -1.09937)
(-5.13942 -0.649611 -0.425004)
(-3.23558 -2.14527 -4.81286)
(-3.96747 -2.13055 -3.09481)
(-4.64261 -2.3429 -0.947561)
(-2.67562 -1.91408 -5.24024)
(-3.70469 -2.45132 -4.33446)
(-3.96014 -2.22685 -2.69688)
(-3.85138 -2.14183 -2.95392)
(-4.24333 -1.51591 -1.10624)
(-3.84811 -2.028 -4.24222)
(-2.84561 -1.96761 -4.50246)
(-4.78087 -2.22898 0.275278)
(-4.92284 -2.33379 -1.36489)
(-4.08446 -2.01057 -3.09578)
(-4.57048 -2.53689 -2.95689)
(-4.55446 -2.42181 -3.20185)
(-5.54001 -2.68262 -1.8884)
(-0.624192 0.188662 -0.992476)
(-0.48291 -1.01394 0.964289)
(-0.666876 0.980813 -0.845544)
(1.50385 1.37482 2.03999)
(-0.442717 0.0976912 -0.796684)
(-0.41861 -0.302575 -0.389454)
(0.699303 0.575337 0.469935)
(0.850986 1.04092 0.870512)
(0.73855 0.607701 1.10824)
(2.20313 0.382359 1.70968)
(2.75906 2.47865 3.59483)
(3.6514 2.41503 4.46438)
(1.45248 0.366377 1.85382)
(0.983268 1.04448 0.518813)
(2.93779 2.03394 3.92605)
(3.12954 2.15742 3.95456)
(-0.754829 1.01648 0.765174)
(2.3592 2.87958 4.32317)
(1.10081 1.56109 2.95246)
(2.37047 1.46593 3.28691)
(1.84953 1.98276 2.40454)
(1.96029 2.43215 3.0483)
(1.67483 1.34869 3.06275)
(1.71159 1.31794 2.717)
(2.99906 2.5682 4.67131)
(2.9328 1.98474 4.27397)
(2.17839 1.33015 3.24841)
(1.63809 1.09637 3.00023)
(2.97558 2.12881 4.45359)
(3.2539 2.42752 4.73231)
(1.86992 1.11725 3.07817)
(1.99633 1.25599 3.42465)
(0.899218 -0.517308 0.8078)
(0.380826 -0.10113 0.834308)
(2.1112 1.62374 2.90562)
(3.32057 2.1388 4.19813)
(1.75331 1.4152 1.59802)
(0.840379 0.862435 1.70906)
(2.6947 2.36151 3.53213)
(1.89026 1.76632 2.17269)
(0.963972 0.608283 1.37884)
(3.37095 2.43834 3.78437)
(2.18834 2.05678 2.31171)
(0.429908 0.669138 0.364586)
(2.12569 1.7238 2.78284)
(3.0343 2.16834 3.25878)
(0.0626553 1.02891 1.36558)
(2.24751 1.50309 2.56448)
(1.71446 2.02856 3.07112)
(2.57736 2.58948 4.60443)
(2.95684 2.44357 4.26611)
(2.31159 1.35768 3.24161)
(2.17498 2.59307 3.40408)
(2.65282 2.45571 4.01559)
(2.93652 2.67286 4.32615)
(3.08194 2.62234 4.99861)
(1.57231 2.3308 2.65752)
(2.29225 1.43498 3.40558)
(2.9358 2.55451 4.47186)
(2.84576 2.79618 4.31812)
(2.8811 2.88514 4.71549)
(2.87253 2.66627 4.38635)
(2.57808 2.77895 4.08479)
(2.94451 2.75596 4.31205)
(3.36054 0.58892 4.47384)
(3.07915 0.756219 4.32192)
(1.63598 0.766106 1.65236)
(3.29845 1.4297 4.65736)
(3.26763 0.799029 4.37595)
(3.22513 0.91426 4.09086)
(3.06154 0.792648 3.79088)
(2.97419 0.894855 3.16336)
(2.87946 1.0856 3.64382)
(2.65055 0.960441 2.6622)
(0.734022 0.869948 0.403323)
(3.62616 2.18223 4.55291)
(2.801 1.34069 3.31261)
(2.30215 0.834322 1.6449)
(2.23849 0.536934 2.23043)
(1.55605 0.389422 1.25628)
(0.460618 -0.0821575 0.403766)
(-0.202491 -0.709431 0.724973)
(-0.580762 0.29904 -1.08212)
(2.14147 1.67394 2.70745)
(0.205178 0.0652483 0.494817)
(-0.161808 -0.301821 0.634884)
(-0.0447228 0.433221 -0.0576057)
(-0.0182132 0.284076 -0.0583106)
(2.29998 1.59633 4.03273)
(2.50084 2.0302 3.76159)
(2.94435 2.32657 4.50564)
(1.5504 0.838975 2.81128)
(2.34506 1.87437 4.14458)
(2.55026 2.06372 4.32318)
(2.69718 1.92715 4.4428)
(2.8846 2.02636 4.36401)
(3.10498 1.16074 4.08658)
(1.36371 0.762129 1.49722)
(3.51953 1.73244 4.72267)
(3.66768 2.04626 4.63932)
(2.57866 0.773568 2.89118)
(2.78525 0.609031 2.92174)
(3.59918 1.8934 4.60314)
(3.60388 1.93757 4.52458)
(2.77079 1.42721 3.04551)
(3.60305 2.2811 4.233)
(0.408607 0.933727 0.53794)
(0.928997 0.639131 1.14442)
(2.14708 0.428119 2.27901)
(2.22298 0.184541 2.05443)
(1.11248 0.814955 1.02484)
(0.875213 0.738044 0.987344)
(1.52194 0.146423 1.33796)
(3.53388 1.97934 4.5853)
(3.68186 2.12898 4.21529)
(2.67341 2.02544 3.40615)
(3.23532 2.38215 3.85299)
(3.67843 2.09593 4.40666)