/*--------------------------------*- C++ -*----------------------------------*\
| =========                 |                                                 |
| \\      /  F ield         | OpenFOAM: The Open Source CFD Toolbox           |
|  \\    /   O peration     | Version:  2506                                  |
|   \\  /    A nd           | Website:  www.openfoam.com                      |
|    \\/     M anipulation  |                                                 |
\*---------------------------------------------------------------------------*/
FoamFile
{
    version     2.0;
    format      ascii;
    arch        "LSB;label=32;scalar=64";
    class       surfaceScalarField;
    location    "2000";
    object      phi;
}
// * * * * * * * * * * * * * * * * * * * * * * * * * * * * * * * * * * * * * //

dimensions      [0 3 -1 0 0 0 0];

oriented        oriented;

internalField   nonuniform List<scalar> 
92768
(
-0.0143803
-0.109633
0.0453307
0.0786831
-0.0407694
-0.00763294
0.01327
0.0351331
0.0281804
-0.00770716
-0.0503352
0.0298625
0.0297194
-0.0283026
-0.020208
0.0187914
0.0172203
-0.0980823
0.0664821
-0.0669363
0.0433875
0.0311761
-0.0995389
-0.0075798
-0.00760298
0.00425359
-0.00735118
0.0107007
0.00370122
-1.0489e-06
0.00410348
-0.00780434
0.0083202
0.00083701
0.000945871
-0.0101004
-0.0021141
0.000993402
0.0111626
-0.0100435
-0.00919577
-0.00808673
0.00967824
-0.0055281
3.52351e-05
-0.0145179
0.00431652
-0.0117253
-0.00848757
0.00528599
-0.00390469
0.00710563
-0.000705314
0.00283242
0.00762911
-0.00975755
0.00704726
-0.00548316
0.00583491
-0.00740453
0.00210621
0.00503109
0.000888926
-0.00803134
-0.00623846
-0.00794753
0.00569545
-0.00895209
0.00200706
-0.00577767
-6.82247e-05
-0.00768286
-0.0120732
0.0118942
-0.00465431
0.00483569
0.00212602
2.42619e-05
0.0074458
-0.00959718
0.00593389
0.00860483
-0.00714749
-0.00739208
0.00156747
-0.000377593
0.00662226
-0.00781115
-0.00799411
-0.00965904
0.00557971
-0.0101038
0.00423442
-0.00435072
-0.00374375
-0.00852091
-0.0218594
-0.0101643
0.0243915
0.0134607
-0.00241287
-0.0187543
-0.0155944
-0.0246367
0.0119289
0.0131417
-0.011213
-0.00837481
0.00644348
-0.00454217
-0.00707394
-0.0102439
0.00133843
-0.00441249
0.0104797
-0.0186684
-0.0122745
0.00636439
0.00115146
-0.0113722
0.0041287
-0.00888358
0.00559142
0.00500543
-0.00996563
0.0025511
-0.0129018
-0.00961654
-0.00743412
-0.00825488
0.00364421
-0.0115615
-0.00499423
-0.0013752
-0.012384
-0.00111837
-0.0116237
-0.00256342
-0.00578857
0.0160531
-0.000559532
-0.006889
0.00878503
-0.0101149
-0.0036639
-0.011002
0.00933102
-0.00339352
-0.00605633
0.0104425
-0.00597107
-0.00815853
-0.00900157
0.00414425
-0.0101962
-0.00145764
0.00109345
0.00559115
-0.00632395
-0.00889072
-0.00775385
-0.106171
0.00429233
-0.00367577
-0.0047052
-0.0419535
0.00416036
-0.0218587
0.0121119
0.00559121
-0.000202264
-0.0276456
0.00764186
-0.106964
-0.000328592
-0.00490178
-0.105737
-0.0139681
0.0134391
-0.0147083
-0.0141497
0.00856014
0.00168259
0.0151432
-0.00854532
-0.0120832
-0.0115238
0.0251187
0.025056
-0.0386508
0.00480255
0.00616469
-0.0100801
-0.0160154
0.00179671
-0.000572152
-0.000300738
-0.00651576
0.0131147
-0.0186115
-0.0159873
-0.0027174
0.00990614
0.00880074
0.0099357
-0.00660991
0.0184377
-0.0217621
0.00318386
0.00915448
0.00472782
-0.0170644
0.00318609
0.0132736
-0.00157755
-0.0148843
-0.010076
-0.00665729
0.000746344
-0.00833973
0.00820242
-0.00938559
0.00591532
-0.014541
-0.0121533
0.00741089
8.95245e-05
7.85803e-05
0.000513458
-0.00774055
0.00631858
0.00263318
-0.000360343
-0.00859057
0.00330518
0.00729367
-0.0109763
-0.00839792
-0.00749771
-0.0107386
0.00241953
-0.00621891
0.0020277
-0.0106376
0.00500741
-0.0220959
-0.000456534
-0.0152367
-0.00616305
-0.0208219
-0.0184463
0.0152132
-0.0118542
-0.010248
0.0171357
-0.00192133
-0.0102059
0.00197187
0.00962875
-0.0092207
0.000483286
-0.0140202
0.00478542
-0.0104749
0.0116107
-0.00662615
0.0201341
-0.0136721
-0.003951
0.00238749
-0.0110423
0.00132033
0.00685781
-0.0246681
0.0123165
-0.00619979
-0.00382929
-0.0122643
0.00993216
-0.0138407
0.00280746
0.00220314
-0.0119368
0.0145841
-0.0096485
-0.00230373
0.00883155
-0.0154975
0.00283894
-0.0142292
0.00960656
-0.0105194
-0.0189335
0.0187515
-0.0151257
-0.0105344
-0.0118784
0.011812
-0.0250469
-0.00613346
-0.0120542
0.00209853
-0.00644225
-0.0148771
0.0241866
-0.0100921
-0.0027545
-0.011338
-0.00800839
0.0224499
-0.00807785
-0.00636132
-0.00395816
0.0183183
-0.0144038
4.39632e-05
-0.000191216
-0.00099912
0.0125048
-0.0113126
0.0136413
0.0216403
-0.0110927
0.0191419
-0.0135087
-0.00185179
0.0233014
0.0133313
0.00640626
-0.00232749
-0.00175751
-0.0023188
0.00684656
-0.00185843
-0.00472126
-0.000257258
-0.00564042
0.00467817
-0.00363533
0.00459587
-0.00461203
0.000204401
0.00289875
0.00151583
-0.00280609
0.00808212
0.00113454
0.00705627
-0.00301521
0.00715485
-0.00368433
0.00856998
0.00612781
-0.00251802
-0.00822806
0.00461975
0.00401211
-0.00425556
-0.00947017
0.00971663
-0.00176315
-0.0126962
-0.00283785
0.0173007
-0.0104406
-0.00882755
-0.00079875
0.0200693
-0.00340935
0.0111321
-0.00159058
0.0117882
-0.0111842
0.00132893
-0.000635274
0.0113549
0.00684407
-0.00290986
0.000739992
-0.00467002
0.00223417
-0.0105833
-0.00024674
0.0085984
-0.00723319
-0.0220121
-0.00558217
0.0348282
-0.00528287
-0.00505488
-0.000435574
0.0107702
-0.000846024
0.0102792
-0.00258741
0.00983499
-0.00844605
0.00802053
-0.00302365
0.0106229
0.0174215
0.00771418
-0.00268568
8.93729e-05
-0.00364835
0.0218778
-0.00452284
0.00592191
-0.0023967
-0.0156976
0.00135211
0.0145625
-0.000215932
0.000458354
0.0122225
0.00474026
0.013879
-0.000123665
-0.00335169
0.00923252
0.0116686
-0.00628032
-0.0101888
0.011745
0.0041191
0.0064498
-0.00588772
-0.00318714
0.0070714
-0.00753122
0.0156589
0.000750851
0.00178609
0.00267916
-0.00511357
0.00858506
0.0231884
0.00528413
-0.00659422
0.001174
0.00183898
0.00261006
0.00136844
-0.0298528
0.0201887
-0.0123478
-0.00361757
0.0346144
-0.00780892
0.00678984
-0.000953838
0.00571499
0.00983797
-0.0182919
0.0296535
0.0025112
0.0106023
0.000729139
0.00146673
0.0104305
-0.0021832
-0.00214596
0.00713134
0.00749637
0.0157445
-0.0207074
-0.00961255
0.00567646
0.0113792
0.00300825
-0.00389849
-0.0152915
0.000864975
2.36795e-05
0.00488838
-0.00265199
-0.00114396
-0.0105641
-0.00737885
-0.000328675
-0.00398323
-0.00191395
-0.00797389
-0.00266976
0.00831223
-0.00863771
-0.00616916
0.0037623
-0.0038822
-0.00351513
0.000533925
-0.00753079
-0.0130881
2.25706e-05
-0.00378988
-0.00475323
0.000506675
0.00507742
-0.00112539
-0.00819127
0.00964224
-0.00778725
0.00961727
-0.00806983
-0.00508251
-0.00517176
0.0113497
-9.77405e-05
-0.00607751
-0.00157731
-0.00581418
0.00789895
-0.0150254
-0.00307005
-0.00791485
-0.00847785
-0.000690463
-0.00552462
-0.00201107
-0.00566631
-0.00379608
-7.32485e-06
0.0132454
-0.00735249
0.00142036
-0.0073124
-0.00520964
0.00359822
-0.0110847
-0.00534016
-0.00653371
-0.00461094
-0.00639473
-0.00497419
-0.00676831
0.00366014
-0.00211429
0.00151171
0.00636398
-0.00279325
-0.000559959
-0.0052495
-0.00141576
0.00303454
-0.00300107
-0.00592126
-0.000416622
0.00124956
-0.00294281
0.00561893
-0.00082897
-0.000458691
0.000243446
-0.0015639
-0.0053186
0.000711348
-0.0157438
0.000271158
-0.000882912
-0.000619366
-0.00207651
-0.0059723
-0.000204689
-0.00546525
0.00502421
-0.0029966
-0.00258488
-0.00442476
-0.00251345
-0.00569642
-0.00401991
0.00615548
-0.00698472
-0.00652121
0.00524257
0.000371418
-0.000585225
0.000359526
0.0117316
-0.00520366
0.00119792
0.00562337
-0.0012577
-0.00652137
-0.00281555
0.00123554
-0.00733645
0.00312633
0.00597132
0.00354662
0.00174211
-0.00123208
-0.0164224
0.00495079
0.00880509
0.0137922
-0.0203278
0.000367107
0.000982192
-0.0201209
0.0156232
0.00227837
-0.00349535
-0.00154781
0.00277115
-0.014273
-0.0026973
0.000548308
-0.0052341
-0.0116354
0.0112175
-0.0158874
-0.0224738
0.0141851
0.000502198
0.0136189
0.00183394
-0.0235212
0.00263569
0.0155296
-0.0182613
0.00638635
0.0170299
-0.00376256
-0.0196519
-0.0145699
-0.00913675
0.00123394
-0.00942853
-0.015992
0.0132437
-0.0227848
-0.0129018
-0.00486157
0.0177557
0.0151757
-0.00329834
-0.0104556
-0.0045956
-0.0121962
0.0203918
-0.000938325
-0.00482375
-0.0191039
0.0248666
-0.0139321
0.00458586
-0.00355548
0.00490369
-0.0176766
0.0213244
-0.0173683
-0.00117143
0.00179622
-0.00421905
0.00359927
0.00971895
0.003194
-0.0035638
-0.00934849
-0.0031883
0.00188546
-0.0104231
0.0117282
0.000759964
-0.00393374
-0.00177904
0.0049565
-0.00145681
0.00489813
-0.00461149
0.00521427
0.00304839
-0.00194193
0.00760027
8.42957e-05
-0.00643975
-0.0138074
-8.04124e-05
-0.00243922
-0.0171637
-0.000517704
-0.00393049
0.00246208
-0.00202227
0.0128312
-0.011068
-0.000145666
-0.00161491
0.0128835
-0.00481142
-0.0145112
-0.00544286
0.0115936
-0.00357224
0.00222068
-0.00695838
0.00685368
-0.000890682
0.0178599
-0.0035873
-0.0181853
-0.00179347
-0.0204345
-0.00103403
-0.000336575
-0.020451
-0.00292754
-0.00633056
-0.0187982
0.0246107
-0.00605503
0.010315
0.013668
-0.0106179
-0.00301543
-0.0115396
0.016442
-0.00730255
-0.0174649
0.0184381
-0.0111363
-0.00558008
-0.0148992
-0.0254531
-0.0012878
-0.0150755
0.0050859
-0.0165943
0.0198716
-0.0267571
-0.00560155
-0.0234066
-0.0217887
-0.00646251
-0.0231655
0.0185993
-0.00937053
-0.0208067
0.0115803
0.0295444
0.0338971
-0.0216901
-0.0417504
-0.0331402
0.0256173
-0.0153123
0.0228363
-0.0187959
0.0267154
-0.0268564
0.0189376
0.00772036
0.0470673
-0.0361875
0.0551388
-0.0178729
0.00787894
0.0203927
0.0298774
0.0348388
0.0290501
-0.015238
-0.0486511
0.0212808
-0.0184762
-0.0366919
0.0338869
-0.0363318
0.0211285
-0.0161866
0.0313895
-0.0200822
0.0305354
-0.0454355
0.0349814
0.0153511
0.063965
-0.0444772
0.0539188
-0.0172865
0.0151426
0.02874
0.0327294
0.0304749
-0.0417068
-0.0161012
0.0273337
0.0215402
-0.0369697
-0.0148764
0.0303058
-0.0362201
-0.0118484
0.0268179
0.0212511
-0.0167767
-0.0397114
0.0277173
0.0287702
0.0144353
0.0568033
-0.0407639
0.0514947
-0.0155187
0.0130727
0.026954
0.0283473
0.0247813
-0.0189387
-0.0290039
0.0231615
0.0308506
-0.0224697
-0.0388261
0.0304446
-0.0373098
-0.020033
0.0278609
0.029483
-0.0192019
-0.0239005
0.0206222
0.0224811
0.00691154
0.0518732
-0.0340031
0.0595239
-0.0217612
0.00584832
0.0268235
0.0280625
0.0681938
0.0155283
-0.0498253
-0.0422022
0.0128365
0.0549832
0.00998232
0.0537142
-0.03698
-0.0340973
0.0128667
0.0675874
-0.0463573
0.0327213
0.0211319
0.0143404
0.0203966
0.0313223
-0.0442871
0.0617019
0.0627269
-0.0181487
-0.0185849
0.0619865
-0.0149473
0.0527942
-0.0167183
-0.0291814
0.0601054
-0.0180867
0.032625
0.0444418
0.0427795
0.0330249
-0.0177646
0.0608564
0.0174632
0.0112462
0.0262741
0.0100707
0.024705
0.0329783
0.0121393
-0.0610925
0.0111542
0.0299055
-0.0397595
0.0295664
0.0276569
0.0320131
-0.0432302
0.0117041
0.0296447
-0.0579151
0.0293575
0.0422542
0.0318708
-0.0143366
0.0301608
0.017041
-0.0281604
-0.0291702
0.0183592
0.0314432
0.17569
-0.0137483
-0.22509
0.0631439
0.0316305
-0.00526751
0.0293004
-0.0556601
-0.172867
0.134795
0.00290395
0.0351672
0.00771325
0.0179086
-0.0635155
0.0378892
0.13669
0.183429
-0.144431
0.164494
0.00382516
0.149385
0.0417557
0.141012
-0.0101586
0.00354936
0.0151439
-0.00853428
0.00340944
0.00616353
-0.000413292
-0.00758166
0.00720246
0.0102866
0.0164923
0.0104973
-0.00854955
0.00162416
-0.00533878
-0.00643738
-0.00727562
0.0123132
0.00665485
0.00450045
0.115109
-0.143527
0.00258336
0.0258339
0.0124535
-0.00641236
0.00607178
-0.108319
-0.0021238
0.0042715
-0.00929174
-0.0392986
0.00663716
0.0985124
0.138583
-0.121985
0.106162
0.00480447
0.107893
0.0213979
0.0131411
-0.0115939
-0.0231541
0.0216055
0.0110739
0.0244662
-0.0104836
-0.00890931
0.0133553
-0.00276255
0.0113667
-0.0216586
0.00174534
-0.00487135
0.00577991
0.0122338
-0.00694362
0.0131452
0.0161537
0.000991557
0.000727169
0.0172031
-0.0232047
-0.152446
0.12245
0.16479
0.00635234
0.0540778
-0.0425242
0.0139884
-0.010573
-0.0165617
0.0131407
0.0084971
-0.018387
0.0106133
-0.0029372
0.00936761
-0.0137674
0.0127816
-0.00705094
0.0278014
0.0132916
-0.0133679
0.00183494
-0.00170044
0.00706446
-0.0140116
0.135693
0.000767524
-0.0033572
0.00691346
0.0144334
-0.016043
0.00894217
0.000224737
0.00770378
0.12686
0.0302257
0.0154199
0.0270622
0.00528293
0.00262139
-0.0062287
0.0142499
0.0053325
-0.0350298
0.0204558
0.0222766
-0.00682904
-0.0115991
0.0258255
0.119026
-0.0390691
0.00938772
-0.00572615
0.00657304
-0.00953247
-0.00667047
-0.0150338
-0.0516771
0.018902
0.0242946
0.00848628
0.103741
-0.115248
-0.0110609
0.0225693
-0.0199109
0.0601747
-0.0470497
0.00678862
-0.00561536
-0.0520549
0.038302
0.019369
-0.0938304
0.0221785
0.0199774
0.0023506
0.00756031
0.00376896
0.012799
-0.0137904
-0.145114
0.138283
-0.011363
0.0181913
0.194294
-0.195698
-0.0506011
0.0520032
0.00795115
-0.0255561
0.0329903
-0.0153862
-0.0347822
0.0792361
-0.0726113
0.0281618
-0.214081
0.0166369
0.0523291
0.0127799
-0.0325677
-0.0966184
0.0784712
-0.0758888
0.0802587
-0.0288375
-0.0748217
0.0234015
-0.0743292
-0.0260833
0.0787408
0.0216731
-0.0123095
0.0269934
-0.0253748
0.0106919
0.0195194
-0.01865
0.100307
-0.101176
0.103951
0.00779429
-0.0314857
0.00212781
0.0274943
0.075124
-0.0478091
0.0649425
-0.0212813
-0.0133584
0.0203053
0.0143334
0.0245833
-0.0259215
-0.0167496
0.0180876
0.00218922
0.010307
0.0570473
-0.0695431
-0.0134745
0.0235467
-0.0120581
0.00198399
-0.0479371
-0.00613625
0.0327925
-0.00308757
-0.0202666
-0.00675136
-0.0128647
-0.00765167
0.015545
-0.152378
0.0215864
-0.0166544
0.0617602
0.0150709
-0.0729822
0.00488391
0.0160417
0.0726444
-0.103367
0.00296804
0.027757
0.0423529
0.0196433
-0.0464483
0.0119081
0.0656218
0.0266659
0.00454723
0.00800408
-0.0220992
-0.026165
0.0020344
-0.0446967
0.00755498
0.0115838
0.0436323
0.0145904
0.00353768
-0.0482091
0.00976543
0.00409697
0.0503808
0.0030167
0.0097811
-0.0124452
0.102147
-0.0746305
-0.0257698
0.0172849
0.0359204
-0.0588706
0.000669225
0.0945663
-0.0849288
-0.00165767
0.0782745
-0.0890621
-0.0228812
0.00722743
0.0717168
0.0878992
0.000926334
0.0749902
-0.0106382
-0.046196
-0.0810112
0.0624821
-0.0115579
0.0679712
0.0610855
-0.00325877
0.0471886
0.0264664
-0.0231281
0.0216778
-0.0250154
0.00821554
-0.0384958
0.0411555
-0.0108761
-0.0720838
0.0750726
0.0456558
-0.0486451
0.0266441
-0.000503796
-0.00798158
-0.0181589
0.00268429
0.0186852
0.00509504
0.0132186
-0.00231884
0.0676899
-0.0223609
0.00882496
-0.06116
0.00872182
0.0797896
-0.0273514
0.0116638
0.0337874
-0.0184579
0.0933285
0.0207485
-0.0353361
-0.0454098
0.0267165
0.119001
-0.0976119
-0.0491358
0.0855875
-0.0504564
-0.0354916
-0.107815
0.0132692
0.166215
-0.129428
0.0532157
-0.0900027
0.0118655
0.0329834
-0.0118603
-0.17772
0.0741956
-0.0921757
0.048571
-0.0889315
-0.0322493
0.0564306
0.0913506
0.0184251
0.0582592
0.0100355
0.195349
-0.0554295
-0.00899873
0.00551825
0.0100648
-0.00658902
0.0258406
-0.0350838
0.0662902
-0.0284739
0.032323
-0.0205984
-0.00335714
0.0123582
0.014547
-0.0599668
0.0169815
0.0339836
0.00536205
-0.039489
0.0307635
-0.0171412
-0.0388686
-0.0488205
0.0491935
-0.0141602
0.0463941
0.0428377
-0.0311209
0.0100667
0.0205482
0.0526643
-0.0900247
-0.0268603
0.0642212
0.00404005
0.0191786
-0.0620871
-0.00129525
0.0132346
0.058608
-0.0191821
-0.0293487
-0.0107502
-0.0267106
-0.0365975
0.0628208
-0.0333559
-0.00871667
0.00575883
0.0156127
0.0250217
-0.0451341
-0.0463019
-0.0585756
-0.0428472
0.00230368
-0.0386022
-0.0381023
0.110674
-0.0297358
0.0562927
-0.0407092
0.0309355
-0.0928791
-0.0613995
0.128392
-0.0346667
-0.0580215
0.0661165
-0.0461992
-0.0209122
0.0294657
-0.0247525
-0.00314495
-0.00673585
-0.0544863
0.0621089
0.0139424
0.0013367
-0.0175459
0.0248435
0.0527206
-0.0585695
0.0165042
-0.0106549
-0.0143453
0.0377182
-0.0385719
0.0151994
-0.0530647
0.0476887
0.0172286
-0.0118512
0.0136782
0.0368919
-0.0379388
-0.0126314
0.0667106
0.0378341
-0.0518215
0.031451
0.020915
0.0645819
-0.0130681
0.0429682
0.0200557
-0.0133781
-0.0195138
0.0128347
-0.00291566
0.00546171
-0.00630456
0.00375558
-0.0255499
-0.0130369
0.0283388
0.0102488
0.0113943
-0.015548
0.0302785
-0.0261249
0.0259661
0.0133359
-0.0192452
0.0125609
0.01049
0.0414739
-0.0167428
0.0284851
0.0451506
-0.0497837
0.0143076
-0.00967543
-0.0160672
-0.0401711
0.0401736
0.0160639
-0.0447449
0.0403866
0.0167426
-0.0123819
0.0176778
-0.0397757
0.0391857
-0.0170887
0.0619612
0.0270075
-0.0438181
0.028911
0.0169839
0.0545889
-0.00990123
0.0387551
0.0353108
0.0186073
-0.0379457
-0.0159721
-0.0145563
0.0151013
0.0395239
-0.0400689
-0.0431385
0.0197206
0.038569
-0.0151495
0.0208937
0.0440616
-0.0477161
-0.0172389
0.0537934
0.023159
-0.0416389
0.0221184
0.0171193
0.0602609
-0.0162061
0.0392411
0.0225347
0.0492768
-0.0340956
-0.0431103
0.0614756
0.0293223
0.0554097
0.0159283
-0.0344476
-0.0353403
0.0477762
0.0190483
-0.0314859
-0.0152696
-0.013567
0.0513705
-0.0154119
-0.0163238
-0.032584
0.0236737
0.0213552
0.0145434
0.012091
0.0201368
-0.0450475
0.0203384
0.0116709
0.0120829
0.0326831
0.0167095
0.0360704
0.0366546
0.0314179
0.0348177
0.0139193
0.0211881
-0.016447
0.0597053
-0.0139371
0.0484171
-0.0138824
-0.014674
0.048823
-0.0189008
0.0540859
-0.0154649
-0.0383587
0.0361361
-0.0142246
0.0337321
-0.0361775
0.0534124
0.042604
-0.0196801
0.0339899
0.0334805
0.0354793
-0.0544501
0.0346163
-0.0189008
0.0176866
0.0148315
-0.0155754
0.0327364
-0.0548868
0.0706301
-0.0382871
0.0225431
0.0506033
-0.0414524
-0.0209934
0.0118416
0.0159252
-0.0519171
0.0706049
-0.0346135
-0.0195043
-0.0386313
0.0464164
0.0117197
-0.074409
0.00668363
0.012838
0.00826689
-0.0320726
-0.06423
0.0514094
-0.0400379
-0.0432241
0.0489328
-0.0223714
0.0166616
0.047465
-0.0202934
0.013215
0.00993943
0.0469415
-0.0167076
-0.015504
0.0446105
0.0100781
-0.0638265
0.00495204
0.0156496
0.00581415
-0.0221755
-0.0545086
0.0439565
-0.0335751
0.00795219
0.0473236
-0.0217007
0.0415815
0.0056744
-0.0189172
0.00336366
0.0103226
-0.00822485
-0.0137869
0.00644514
0.0376199
-0.048509
0.00922144
0.00571209
0.00975453
-0.016682
-0.0416033
0.0370379
-0.0360031
-0.0125533
0.0414238
0.00713271
0.0417303
-0.0120725
0.00891101
0.00954301
-0.0166652
0.0466465
-0.015419
0.0480498
0.0114315
-0.0489297
0.00520961
0.00771686
0.00492241
-0.0121217
-0.0537065
0.043498
0.00543258
-0.0639227
0.017037
0.0132013
-0.0746417
0.0095229
-0.0564004
0.00677928
0.0109909
0.0391261
-0.0552757
0.00563027
0.0105173
0.0442422
0.0168353
-0.0556459
0.0174056
0.0454727
0.0104892
0.00647804
0.00571842
-0.0207084
-0.0163688
0.0057034
0.0600295
0.00812672
-0.0212147
-0.055403
0.0107612
-0.0299999
-0.0384809
-0.0114468
-0.0108931
-0.0415934
-0.0252565
0.00754296
0.0152599
-0.0524027
0.046666
-0.0456861
0.0399132
0.0396698
-0.0461128
-0.00856067
-0.0503285
0.0422244
0.00613293
-0.031805
0.0409316
-0.0330752
0.00552715
-0.045893
-0.0336899
-0.00840411
-0.0064195
0.0484163
0.0132408
-0.0412195
-0.0410565
0.0147396
-0.304423
0.0707513
0.231483
0.00219002
0.00215386
-0.215378
0.10447
0.108748
0.153829
-0.316541
0.134138
0.0285759
0.159163
-0.461687
0.24995
0.0525729
-0.135285
-0.316316
0.147186
-0.380554
0.247426
-0.175502
0.0183482
-0.402227
-0.0939858
-0.00454806
0.0606994
0.037832
-0.0154214
-0.0108989
0.0265039
-0.00018489
0.0667765
-0.0326057
-0.0651282
0.0309566
0.0644611
-0.0058394
-0.11972
0.0610962
-0.0335792
-0.131804
0.0713995
-0.0251437
-0.023855
-0.0601013
-0.00724123
-0.0184684
-0.359486
0.17637
0.152981
0.0301367
-0.0163022
0.102108
-0.166438
0.0806315
0.103872
-0.278894
0.133784
0.0412397
0.192318
0.295872
-0.53984
0.0516509
-0.125613
-0.395148
0.161274
-0.132313
-0.00959813
-0.248473
0.0456428
-0.276914
-0.489983
0.138986
0.284135
0.0668621
0.0240971
0.120705
-0.296455
0.151653
0.417328
0.238661
-0.754344
0.0983558
0.129797
-0.43298
0.262005
0.0411803
-0.382217
-0.433624
0.325858
-0.539044
0.180926
-0.372925
0.0690989
-0.494641
-0.229033
-0.100544
0.114193
0.206397
-0.153375
-0.369565
-0.331596
-0.428013
0.297923
0.260655
-0.167706
-0.267183
0.174231
0.0055705
-0.107739
-0.126866
-0.19026
0.00277133
0.150145
-0.519084
-0.199879
0.0947866
0.0994917
-0.273039
0.0818136
-0.0897362
-0.0246834
-0.00299855
-0.249667
0.0992885
-0.21253
-0.114214
-0.120281
-0.209839
0.0926282
-0.248307
-0.178609
-0.236995
0.0460409
-0.349361
0.060335
0.021394
-0.167871
0.580861
-0.435162
0.0929632
0.329806
-0.580264
0.07185
-0.538639
0.336319
-0.335722
-0.310292
0.435422
-0.574713
-0.185337
-0.255574
0.149998
-0.137627
-0.122118
-0.0268991
-0.0224175
-0.125208
-0.332963
0.38046
-0.216394
-0.115738
-0.0483282
-0.237113
0.402845
-0.148808
-0.0169243
-0.0313355
0.147938
-0.0562904
-0.060312
-0.127432
0.594212
-0.278219
-0.188561
0.275456
0.202069
-0.0970639
0.131439
-0.0930966
0.191869
-0.117232
0.291973
0.361451
-0.218509
-0.0769233
-0.0660182
-0.176242
-0.0560968
-0.0465554
-0.0492716
-0.0768122
-0.0403544
-0.128058
-0.303894
-0.107888
0.252296
0.156344
-0.0471891
0.137882
-0.0618282
0.188304
-0.160017
0.0636524
-0.0162768
-0.0246252
-0.0227499
-0.02872
-0.03246
-0.00394815
-0.00863841
-0.000302515
-0.00195733
-0.0303233
-0.057727
-0.0316699
0.0466146
0.0319692
-0.0149309
0.0202769
-0.00238077
0.00682991
-0.00518294
0.591848
-0.181056
-0.243703
-0.167089
-0.302351
-0.240295
-0.211698
-0.0818399
-0.0757679
-0.138847
-0.17598
-0.168583
-0.0884178
0.414571
0.313742
-0.136465
0.252528
-0.140307
0.323953
-0.186191
0.226283
0.313949
-0.137386
-0.0420044
0.100916
0.0890264
0.4574
0.316078
-0.179266
-0.634404
0.464918
0.353299
-0.183812
-0.151514
0.166415
0.211383
0.0984551
-0.300825
-0.167165
0.25503
0.199388
-0.103948
-0.146025
0.307049
-0.134657
0.08637
-0.0285254
0.0779706
0.0517056
-0.0287591
0.362653
0.0481188
0.0566108
0.185852
-0.0597621
0.107805
0.0683898
0.0792063
-0.0585695
0.347015
-0.211994
-0.250606
0.363609
-0.164558
0.185925
-0.0971343
-0.100496
0.294522
-0.125636
0.50155
-0.110637
0.2406
0.114635
-0.127375
0.0959456
-0.0837173
0.0360903
0.063614
0.149315
0.0877019
-0.0696297
-0.180158
0.0825641
0.167224
0.0651424
-0.0487022
-0.163454
0.147015
0.0769571
-0.0449529
-0.0841519
0.0521479
-0.0744879
-0.0229595
0.0286739
0.0687742
-0.229136
0.00348578
0.156021
0.00289391
-0.166888
-0.106084
0.0350825
-0.0262329
-0.0284226
0.0448767
-0.15408
0.137626
0.0209026
-0.131939
0.115329
0.040182
0.0181351
-0.0527257
-0.0447447
0.00971073
0.0426768
-0.160629
0.00533185
0.126875
0.00325475
-0.142982
-0.0568759
0.0174635
-0.017346
0.00948569
0.00151755
0.00634369
0.00913922
0.0105684
-0.0109067
0.0119741
-0.00304544
-0.00420035
-0.00217972
0.00727737
-0.00667604
-0.0205523
-0.0103577
0.0135641
-0.00729175
-0.00412137
-0.0105977
-0.00194034
-0.00542254
-0.0114351
0.00338631
0.0134711
0.000334707
-0.0127856
0.012545
0.00769746
-0.00198236
-0.00607504
-0.00289291
0.00197678
0.00821433
-0.0138201
-0.00404651
0.0124477
-0.00330499
-0.0101794
-0.00642017
-0.00051359
0.00535951
-0.198239
0.144178
0.0655765
-0.10912
-0.00140855
-0.0821009
0.00105484
0.0580867
0.0134216
-0.0625307
0.00159972
0.0475115
0.0242983
0.0674558
-0.0863939
0.0636419
0.0209351
0.0599427
0.00247606
0.00470099
-0.158063
-0.0530024
0.000182826
0.0780609
0.00035117
-0.0602769
-0.0326432
-0.000567433
-0.0759098
-0.018707
-0.0629858
-0.054246
-0.0215416
-0.0740875
0.00227344
0.0062942
-0.0212958
0.0135929
-0.0209608
0.0105813
0.00280934
-0.0139926
0.00513264
-0.000785755
-0.00632902
0.0117979
-0.0114161
0.00591411
-0.00668638
0.0140564
-0.020339
-0.0123771
0.00418823
-0.0110019
0.0208522
0.00919845
-0.00801106
-0.0069519
0.0151149
0.190451
-0.204199
-0.0246107
0.20205
-0.177437
-0.161532
0.164437
0.0151379
0.113029
-0.0988665
0.188687
0.151956
-0.150192
0.164078
0.170919
0.173464
0.196089
-0.0453065
-0.150781
-0.0562163
-0.12394
-0.124857
-0.0385951
0.00503423
-0.0431747
-0.0460108
0.179802
0.128029
-0.111742
0.123588
0.168157
-0.0350935
0.147025
-0.14444
-0.0200905
-0.133988
-0.134061
0.000619541
-0.0472733
0.152286
0.139421
-0.144682
0.132197
0.144845
0.00386643
0.00671254
0.00456645
-0.0194903
0.0126748
0.00833243
0.00162007
-0.00224026
0.0072807
-0.00416143
0.0134799
-0.00811801
-0.00149511
-0.00897462
0.00296404
0.0114759
0.150661
0.187438
-0.13605
-0.164071
0.167791
0.160716
0.122495
0.0253911
-0.0348576
-0.103897
0.11318
0.0305727
-0.0398559
-0.0147639
-0.011103
0.176527
-0.00536999
-0.0425421
-0.0724583
0.0745831
0.142133
0.00466156
0.0653441
-0.169603
0.13101
0.0253966
0.142396
0.173912
0.144749
0.14348
0.170147
0.144023
0.000987998
0.160495
0.0599049
-0.0229888
0.066236
-0.0458195
0.0506435
-0.0580307
0.0679606
0.0764572
-0.0564324
0.0785734
0.158451
-0.056907
0.0556702
-0.161041
-0.00325922
0.0170283
0.0184071
1.02351e-05
0.00812308
0.013029
-0.0211524
-0.0123686
0.00338772
0.00898084
0.00861055
0.00797661
-0.0165876
-0.00532758
0.0123075
0.0194257
-0.0264057
0.00548299
-0.0128021
0.0154421
-0.00688528
0.00407675
-0.0222059
0.00580194
0.00430605
-0.0127133
0.00840623
-0.0120864
0.00708346
0.00500196
0.00702372
-0.014737
0.0077128
0.00129566
-0.0251964
0.0101925
0.013708
0.00434056
-0.0075343
0.00749829
-0.00774583
0.00900064
-0.0152398
0.00827853
0.0104195
0.00722247
-0.0176418
-0.0152295
0.00763688
0.00759154
0.0150674
-0.0122662
-0.00279974
-0.0105355
0.0178427
-0.0183147
0.0110077
0.00767653
-0.00704851
0.00979133
-0.00755275
-0.0030303
-0.0145539
0.00448474
0.0123468
0.00088177
0.0114712
-0.0247001
-0.0241926
-0.00152459
0.0133543
0.0123616
0.0172826
-0.00750361
-0.0203316
0.0105522
-0.00545138
0.016113
-0.0217224
0.01106
0.0107799
-0.0121816
0.0137472
-0.0112486
-0.00216427
0.00529018
-0.0229242
0.0113242
-0.0095207
0.00379471
0.00911278
0.0125986
0.00921449
-0.0138355
0.012516
-0.0149585
0.01475
-0.0136332
0.0146828
-0.0127539
0.011704
-0.0175418
-0.00111902
0.0091396
0.000858796
-0.0263634
0.0116111
-0.0129885
-0.00891863
-0.00034422
-0.0101695
-0.00867967
-0.00605723
0.0164618
-0.0072468
0.00808634
-0.00786558
-0.00749777
0.00859621
-0.00758104
0.00304466
0.0101281
-0.0270063
0.0127474
-0.0268241
-0.0249507
0.0106717
0.0100585
0.00127885
-0.0188407
0.0132374
0.0145826
-0.0247754
0.0129962
0.0141187
0.0105225
0.0101042
0.00851758
0.0106042
-0.0120526
0.0125549
-0.00721758
0.00879812
0.00293975
0.0169563
0.0219801
0.00215782
0.0120854
-0.00142622
-0.00666386
0.0157074
-0.00761751
-0.00723864
-0.00114499
0.0172461
-0.0088627
-0.00925776
-0.000506666
-0.00781394
0.0175784
0.0179071
-0.00111817
-0.00760341
-0.0091856
0.0152954
-0.00846782
-0.00825396
-0.00851156
0.0165685
0.0172328
-0.00779336
-0.000536343
-0.000133103
-0.00850806
0.0169821
-0.00834114
-0.00940147
0.0165523
-0.00715046
-0.00760466
-0.0093896
0.0169939
0.0167532
-0.009048
-0.00770592
0.0175132
-0.00945541
-0.0081911
-0.0091636
0.0172755
0.0167683
-0.00947067
-0.000488005
-0.00783518
-0.00781628
0.0161393
-0.00889384
-0.0069158
0.0158099
-0.00569119
-0.00973243
0.0154233
0.0144387
-0.00591902
-0.00851982
0.0155291
-0.00935162
-0.00666534
-0.00799218
0.0146277
0.0136834
-0.00859628
-0.000733528
0.0174874
-0.00862116
-0.00813243
-0.00926358
0.0168828
-0.00761919
-0.00637356
0.015117
-0.0087437
0.0157832
-0.00911789
-0.00666535
0.0165936
-0.00964113
-0.00768589
-0.00926578
0.0165962
0.0156393
-0.00949728
-0.00926113
0.0166749
-0.00855918
-0.00803909
0.0163677
-0.00883512
0.0168927
-0.00936547
-0.00864532
0.000466938
0.0169145
-0.00946505
-0.00791653
-0.00886484
-0.0173343
0.0169381
-0.0174401
-0.00869639
-0.00817093
-0.00924377
-0.00921691
0.0173839
0.0173323
-0.00946598
-0.0165825
-0.00916759
0.0163603
0.00871084
-0.00851451
0.0161715
-0.000282037
0.00800333
0.00757953
-0.00035638
0.0170707
-0.00935936
-0.0166353
0.016333
-0.00853303
0.0170165
-0.00889421
-0.00936306
0.0167809
0.00914709
0.0149368
-0.00896694
-0.0079861
-0.00037561
-0.00827341
-0.000213233
-0.00701995
0.0157917
-1.64326e-05
0.00901789
0.00731489
-0.0160835
-0.0156948
0.00901321
0.00911476
-0.0164296
-0.000380532
-0.00805303
0.0142783
-0.00584494
-0.0105131
-0.00177394
-0.0106316
0.0229185
-0.0107347
0.000505514
0.0149919
-0.0047616
0.0228302
-1.66285e-05
-0.0124117
-0.0104019
0.0197101
-0.00891037
-0.0111801
-0.00912346
0.0183208
0.0197097
-0.00578962
-0.000148491
-0.00179224
-0.0143893
-0.0112177
0.0273989
-0.0150778
-0.0124245
0.0275019
-0.0112144
-0.013521
0.0247354
0.0283628
-0.0154771
-0.0128858
0.0279405
-0.0169546
-0.0127783
-0.0151441
0.0280069
0.0263586
-0.0149505
0.000812457
-0.00820384
0.0118749
-0.00448347
-0.0105212
-0.0103379
0.0208593
-0.00744136
0.0119262
-0.00448479
0.0179292
-0.00921768
-0.00871207
0.019193
-0.0083357
-0.010045
-0.0079862
0.0166581
0.0154276
-0.00583424
-0.0011424
0.0256442
-0.0110618
-0.0134399
-0.0156496
0.0278115
-0.012162
-0.0100011
0.0234756
-0.0134744
0.027462
-0.0112543
-0.0162081
0.0272539
-0.0167786
-0.0116176
-0.0155088
0.0271137
0.02551
-0.0148267
-0.0158538
0.0249864
-0.0109072
-0.010929
0.0200742
-0.00863994
0.0242224
-0.0128887
-0.0113502
0.00226058
0.027543
-0.0174163
-0.0123875
-0.0130112
-0.0267377
0.0238949
-0.0240884
-0.0136349
-0.0108422
-0.0135005
-0.0149401
0.0255372
0.0271856
-0.0151194
-0.024071
-0.0125814
0.0231317
0.0108163
-0.00834773
0.0176056
-0.001435
0.0103898
0.0108002
-0.000546316
0.0217524
-0.0138167
-0.0198478
0.0168608
-0.00565268
0.0236085
-0.0108528
-0.015378
0.0257736
0.0130398
0.0210829
-0.0106467
-0.0111089
0.000175513
-0.00891406
-0.00100075
-0.010735
0.0239506
0.000309237
0.0118655
0.0106543
-0.022919
-0.0223875
0.0126522
0.0134288
-0.0240831
0.0229402
0.052824
-0.0757644
0.0221533
0.00575233
-0.0279053
-0.00497557
0.0113946
0.0227325
-0.0291516
-0.0307232
0.00515783
0.0255653
-0.0246129
0.0475531
0.0296132
-0.0320726
-0.0164998
0.0333297
0.00813797
-0.00215518
0.00288833
-0.000734062
-0.0064361
0.0137103
-0.00727481
-0.00126359
-0.00651015
0.0176057
-0.00983279
0.0110492
-0.00662982
-0.00442039
0.00664579
-0.00880179
-0.0140996
0.0143086
0.00771059
-0.0054632
-0.00765288
0.00540533
0.00558696
-0.00500684
-0.00598772
-0.0088082
-0.000674405
0.0213369
-0.0118539
-0.00468132
-0.00705754
0.0247914
-0.0130525
0.0111056
0.00102273
-0.00479469
-0.00733278
0.00568557
-0.00710711
0.00682747
-0.0184432
0.0153206
0.00945069
-0.0054522
-0.0136737
0.0013066
-0.0121469
0.01084
-0.00590399
0.00666985
-0.000765668
0.0049404
-0.0072218
-0.00560516
0.00788756
-4.16179e-05
-0.00089647
0.000938898
-0.00283582