/*--------------------------------*- C++ -*----------------------------------*\
| =========                 |                                                 |
| \\      /  F ield         | OpenFOAM: The Open Source CFD Toolbox           |
|  \\    /   O peration     | Version:  2506                                  |
|   \\  /    A nd           | Website:  www.openfoam.com                      |
|    \\/     M anipulation  |                                                 |
\*---------------------------------------------------------------------------*/
FoamFile
{
    version     2.0;
    format      ascii;
    arch        "LSB;label=32;scalar=64";
    class       volScalarField;
    location    "1800";
    object      p;
}
// * * * * * * * * * * * * * * * * * * * * * * * * * * * * * * * * * * * * * //

dimensions      [0 2 -2 0 0 0 0];

internalField   nonuniform List<scalar> 
41920
(
2.7246e+14
-6.56406e+12
2.6255e+14
2.01517e+14
2.97048e+14
2.39299e+14
1.92091e+14
2.74641e+14
-1.05792e+13
-1.26153e+13
1.69138e+13
1.05508e+13
2.56912e+12
-2.07225e+12
1.20802e+13
6.98524e+12
2.01049e+14
2.19449e+14
9.2826e+14
4.90898e+14
4.80302e+14
4.79344e+14
2.75949e+14
6.02389e+14
1.13286e+14
9.85117e+13
1.69541e+14
1.65988e+14
3.92555e+14
8.05482e+13
2.63658e+14
3.38454e+14
2.86065e+13
3.50642e+14
2.81977e+14
1.56005e+13
1.92921e+13
2.21773e+14
5.26826e+13
1.80328e+14
2.8256e+13
2.33198e+12
-1.33086e+13
3.18049e+14
1.77399e+13
-1.44342e+12
3.45446e+13
5.78281e+11
1.83076e+14
1.34536e+14
1.88523e+13
2.46317e+14
1.67368e+14
2.66853e+14
3.83637e+14
1.4824e+14
2.91778e+14
3.18788e+14
4.52759e+13
6.90918e+13
2.59206e+14
2.59078e+14
2.09185e+13
5.50536e+13
-5.73201e+12
1.97893e+12
1.02301e+12
-1.87527e+13
-4.36053e+12
-5.76082e+12
-7.8721e+12
-8.63493e+12
7.8993e+13
5.52742e+14
8.23895e+13
2.34464e+14
2.49869e+14
2.51389e+14
2.13496e+14
2.53353e+14
-3.79627e+12
-2.53169e+12
1.29984e+13
2.14067e+13
1.4988e+13
1.04107e+13
4.42641e+12
7.08291e+12
5.26486e+12
2.13621e+14
1.28306e+14
1.19335e+14
1.55737e+14
1.68807e+14
1.96347e+14
1.98458e+14
-1.26863e+13
-1.07522e+13
-4.91409e+12
1.32132e+14
-2.95582e+13
-1.73822e+13
8.0489e+12
-5.95184e+12
-7.9837e+12
1.52846e+14
-2.75263e+13
-9.81204e+12
-3.16875e+13
2.29616e+13
-2.83429e+13
-4.12656e+13
8.9682e+12
-1.27038e+13
1.41569e+14
9.11603e+13
-1.43986e+13
-1.07516e+13
2.87377e+13
3.81474e+13
1.10298e+13
9.38621e+13
1.84353e+14
-1.02475e+13
4.8653e+12
2.77928e+13
-6.95075e+12
8.17623e+13
-9.16797e+11
5.7305e+12
6.27724e+11
5.53903e+12
-4.29718e+12
-1.50531e+12
-2.11734e+12
-2.55397e+12
8.31402e+13
5.63336e+14
-5.13015e+13
-8.38989e+13
-8.1861e+12
2.37986e+14
4.52223e+13
4.91757e+13
-9.38093e+11
-2.66097e+13
-5.63995e+12
-1.28687e+12
-4.18587e+12
-9.44935e+12
-1.60197e+12
-8.85246e+12
-2.21202e+12
-1.89595e+13
-2.87859e+12
-6.32543e+12
-6.04968e+12
-4.22696e+12
1.23987e+12
-8.16643e+12
-9.28412e+12
-3.69451e+12
-1.84747e+12
-3.12965e+13
-2.09481e+13
-6.73068e+12
-1.10634e+13
-8.59885e+12
-7.47686e+12
-1.78403e+13
-3.87224e+13
-2.27228e+12
-1.81381e+13
-3.24368e+13
-1.30452e+13
-1.23136e+13
-1.16714e+12
1.98935e+12
1.91471e+12
-1.06e+12
1.98941e+12
-7.50435e+11
-1.67355e+12
-2.49605e+12
-3.45188e+12
-1.48862e+12
-8.85904e+12
-2.81473e+13
-4.72464e+12
-3.84471e+12
-1.64048e+10
-5.67252e+12
-1.78853e+14
-1.85944e+14
6.10357e+14
1.30166e+14
1.78605e+14
-2.1379e+14
2.4765e+14
2.84793e+14
-3.13352e+14
-2.97832e+14
7.12017e+13
-6.47779e+14
-7.87507e+14
2.35117e+14
4.04035e+14
5.70929e+14
1.50336e+15
3.08584e+14
8.17284e+14
-1.10478e+14
1.13602e+15
1.05687e+15
1.68094e+15
1.11957e+15
-3.56213e+13
-1.96112e+14
-7.64173e+13
-1.20442e+13
-5.9254e+13
-7.97663e+13
-4.61021e+13
-5.81687e+13
-1.51793e+14
6.77137e+14
-1.08856e+14
-3.98164e+14
-3.11988e+14
3.45651e+14
-3.54331e+14
-2.86491e+14
2.23871e+14
-3.28499e+14
-7.00395e+13
5.56683e+14
1.31796e+14
7.38846e+14
5.66244e+14
1.25793e+14
1.01514e+15
-8.65937e+13
-5.62779e+14
-2.7752e+14
-4.08817e+13
-3.24994e+14
-2.23262e+14
-5.54258e+14
9.28902e+14
-1.21164e+14
-3.72544e+14
3.49208e+14
1.26303e+15
-1.16874e+14
9.58297e+14
-4.50537e+14
6.76167e+15
7.05346e+14
-9.36257e+14
-3.05524e+14
2.16487e+15
1.37281e+15
4.58287e+14
-1.59818e+14
-4.87372e+14
7.81715e+14
-5.63937e+14
-6.68848e+14
-3.73771e+14
7.90546e+13
-6.35093e+14
-4.98208e+14
1.04898e+15
3.41185e+14
-6.30399e+14
-1.30082e+15
1.753e+14
2.34855e+14
-1.69564e+15
-1.66062e+15
-3.99701e+14
-2.26688e+14
-6.88816e+14
-3.21374e+14
-3.61845e+14
-3.39191e+14
-2.94025e+14
-3.27783e+14
1.90315e+14
-9.32299e+14
-3.33424e+14
-5.53838e+14
-1.55916e+15
-5.52624e+14
-7.4351e+14
-6.79912e+14
-1.20292e+15
-5.67971e+14
-2.04314e+14
-1.29372e+15
-1.23742e+15
-5.20247e+14
-1.04843e+15
-2.55763e+14
-6.74813e+14
-3.78398e+14
-4.78397e+14
-4.94494e+14
-5.98994e+14
-4.37045e+14
-5.48995e+14
-4.29302e+14
5.28042e+14
-9.88768e+14
-4.31217e+14
-3.38991e+13
2.46638e+14
-8.24155e+14
-1.28195e+14
-3.70417e+14
9.98827e+12
-5.94268e+12
1.83756e+12
2.40149e+13
2.08105e+13
1.93153e+13
2.1274e+13
2.20184e+13
9.51305e+13
6.49952e+14
1.00164e+14
1.90791e+14
1.9847e+14
3.61678e+14
2.90961e+14
3.76428e+14
-2.12275e+12
-2.6161e+13
-4.40413e+12
2.39825e+12
-2.73089e+12
4.76785e+11
-5.26747e+12
4.71431e+12
1.00121e+14
1.99456e+14
6.35131e+13
1.53776e+14
2.12274e+14
1.91183e+14
2.32923e+14
2.02283e+14
1.82475e+13
2.91573e+12
9.23499e+13
2.01056e+14
2.03173e+13
1.57088e+13
5.79332e+13
5.36219e+13
1.39186e+13
1.58222e+14
-5.56688e+13
1.83534e+12
1.25239e+13
1.09281e+14
-3.49581e+12
2.8948e+13
2.97145e+12
1.02013e+14
2.10981e+14
1.02151e+14
1.35943e+13
6.29894e+13
8.05467e+13
1.12132e+14
1.56431e+12
7.17528e+13
1.24007e+14
-5.33738e+13
1.18181e+13
5.40022e+13
7.08711e+13
4.1369e+13
1.51947e+14
1.50529e+14
4.24518e+13
1.54314e+14
1.39011e+14
1.76511e+14
6.17283e+13
1.34928e+14
6.72464e+13
2.4617e+13
1.13868e+13
6.45721e+12
3.81358e+13
1.3186e+13
-7.12111e+11
4.74196e+12
-1.1622e+13
5.59052e+11
-5.30478e+12
5.86067e+12
-7.95979e+12
-4.18633e+12
-7.75707e+12
-5.52994e+12
1.62597e+14
4.23814e+13
4.59287e+13
1.45784e+14
1.55182e+14
5.77401e+13
3.72204e+13
1.48725e+13
8.69156e+13
1.81396e+13
1.54819e+14
8.82783e+13
4.14405e+13
6.38485e+13
6.23956e+13
3.34278e+13
1.39467e+13
1.10367e+13
9.24819e+12
-1.31331e+13
6.94843e+12
3.4227e+12
1.01599e+13
-2.45919e+12
7.31859e+13
1.99332e+14
4.19408e+13
5.41444e+13
6.33956e+13
-2.96172e+12
4.20049e+13
4.61596e+13
-9.14959e+12
-2.15929e+12
-3.5965e+12
-6.95846e+11
-1.09188e+13
-6.24886e+12
-1.14603e+13
-1.02056e+13
-1.41975e+13
-1.03304e+14
-5.35237e+13
-2.50304e+13
-3.12796e+13
-8.30423e+13
-3.61969e+13
-5.53754e+13
-4.49788e+14
-2.2268e+15
1.16899e+15
-1.12225e+15
-7.41304e+14
1.33379e+14
-5.22545e+14
-4.69769e+14
-7.05311e+13
7.29933e+14
8.81473e+14
-7.351e+13
-1.68007e+14
4.86776e+14
-1.24453e+14
3.72673e+14
-4.11629e+13
-1.70728e+14
-7.85412e+13
-5.90821e+13
-5.93915e+13
-9.30173e+13
-5.62855e+13
-6.9845e+13
-3.17753e+14
-7.58881e+13
-4.79583e+13
-3.04363e+14
-2.02909e+14
-1.13175e+14
-1.49913e+14
-1.10506e+14
-3.20722e+14
-8.86703e+14
3.12382e+14
-2.00165e+13
-4.16236e+14
-1.19505e+13
-3.30558e+14
-4.08149e+14
-6.20499e+13
-4.50959e+13
-1.94036e+14
-8.12701e+13
-6.8232e+13
-7.85759e+13
-1.17639e+14
-1.18344e+14
-9.70699e+13
-2.26573e+14
-5.42112e+14
7.69092e+13
-1.24185e+14
-2.66638e+14
-6.06069e+13
-2.00291e+14
2.23749e+14
2.24298e+14
6.4078e+13
1.96297e+14
2.49659e+14
2.10892e+14
1.6102e+14
1.25162e+14
2.33345e+14
1.43651e+15
3.22156e+14
6.67606e+14
6.79801e+14
1.30045e+15
3.75378e+14
-9.10523e+14
-3.54531e+13
-9.73347e+13
4.49113e+12
-1.88496e+13
-3.15847e+13
-6.87891e+13
-9.95884e+12
-1.21648e+13
1.49885e+14
1.3806e+14
6.18154e+13
1.2197e+14
1.11556e+14
8.17899e+13
5.95714e+13
2.18278e+12
1.62973e+14
7.48502e+13
1.7976e+14
1.23504e+14
1.09154e+14
1.0407e+14
1.71933e+14
1.41347e+14
-7.36527e+13
6.79174e+13
-1.25882e+14
1.53354e+13
3.59108e+12
-8.94185e+13
3.28526e+13
-3.53471e+13
4.78745e+13
9.23656e+13
-7.00852e+13
5.61774e+13
6.71351e+13
7.01398e+13
6.43982e+13
5.065e+13
-1.94582e+13
-3.39318e+13
-4.53128e+14
-1.05085e+14
-4.05303e+13
2.65204e+12
-3.02914e+12
-2.67816e+12
1.30257e+14
1.1131e+14
1.43846e+14
1.95523e+14
1.40831e+14
1.00348e+14
1.73389e+14
1.45279e+14
6.63316e+13
2.49238e+13
6.69346e+13
8.07364e+13
5.50364e+13
4.36809e+13
7.02948e+13
5.47235e+13
1.68479e+14
1.12366e+14
1.62944e+14
2.24402e+14
1.66043e+14
1.4715e+14
1.90518e+14
1.68939e+14
2.2564e+14
1.45849e+14
2.18186e+14
2.38985e+14
2.08246e+14
1.82028e+14
2.23458e+14
2.09323e+14
1.02141e+14
1.47766e+14
1.86738e+14
1.23606e+14
1.2392e+14
1.53813e+14
1.38185e+14
1.54655e+14
8.13896e+13
1.02212e+14
9.24726e+13
1.18864e+14
1.03184e+14
1.09243e+14
1.15577e+14
1.09797e+14
1.91733e+14
2.22898e+14
1.38591e+14
2.27872e+14
2.0797e+14
1.96073e+14
2.02215e+14
1.88294e+14
1.56886e+14
2.09704e+14
1.23146e+14
1.06263e+14
1.59465e+14
1.76293e+14
1.22665e+14
1.35667e+14
-1.4165e+14
-4.51705e+14
-3.59239e+14
-1.19046e+14
-1.86389e+14
-2.41344e+14
-1.70522e+14
-3.06683e+14
7.40634e+13
2.83763e+15
5.32643e+14
-1.13128e+15
3.76439e+14
2.76828e+13
-1.39364e+15
2.43254e+15
-6.53908e+14
1.6471e+14
-5.16619e+14
-6.07301e+14
-7.29065e+14
-6.34039e+14
-7.70681e+14
-6.24548e+14
-7.188e+13
-2.66702e+14
-2.9242e+14
-6.0454e+13
-1.08409e+14
-1.96749e+14
-8.9106e+13
-1.96087e+14
-2.43808e+14
-4.54554e+14
-1.48214e+14
-4.46621e+14
-2.77469e+14
-2.80813e+14
-3.1137e+14
-1.93029e+14
-1.58927e+14
-8.36985e+14
-1.56046e+14
-6.8147e+14
-1.82196e+14
-7.12927e+14
-5.09658e+14
-7.55301e+14
-3.97739e+14
-1.18396e+14
-3.07198e+14
-3.08916e+14
-3.23014e+14
-2.28133e+14
-3.6308e+14
-3.0669e+14
-6.09954e+14
-4.3461e+14
-6.2262e+14
7.62208e+14
-7.15421e+14
-5.73818e+14
-7.48607e+14
-6.44983e+14
-5.32984e+12
-1.17242e+13
-5.87805e+13
8.22952e+12
3.49077e+12
-1.4875e+13
-6.0159e+12
-5.09635e+13
-7.20832e+12
-7.89732e+12
-1.51141e+14
-1.0464e+14
-4.41385e+13
-4.47831e+13
-9.57753e+13
-1.21419e+14
-5.73705e+13
-4.39813e+14
-1.07906e+15
-3.59514e+14
5.05685e+12
-2.39811e+14
-6.85623e+13
-5.01332e+14
3.48491e+13
-7.04225e+13
-1.32989e+14
4.81282e+14
1.52368e+14
-8.06669e+13
6.41337e+14
7.1644e+14
-1.93246e+13
2.90397e+13
6.72748e+13
-1.21121e+14
-5.79187e+13
-8.51118e+13
-8.13819e+13
-1.95882e+11
-2.59128e+13
-1.57286e+14
-2.03526e+14
1.37757e+13
-5.46633e+13
-1.18731e+14
-1.02642e+14
-2.05915e+14
2.12584e+13
3.31627e+13
-1.81954e+14
3.51279e+14
-6.26341e+13
1.37628e+13
-3.96403e+12
-1.12397e+14
5.65798e+12
1.72904e+14
-3.21643e+14
-4.97559e+14
-3.24945e+14
-2.78074e+14
-4.03011e+14
-2.54319e+14
3.07519e+12
-3.98192e+12
7.31347e+11
-5.88427e+13
-1.27844e+13
-4.938e+12
-3.06282e+13
-1.27953e+13
-6.24132e+12
-4.05376e+12
1.04666e+13
1.82711e+13
-3.24291e+12
-1.47335e+12
7.2959e+12
2.23493e+12
3.57707e+12
3.50987e+13
-2.02754e+13
1.62605e+14
3.11758e+13
1.39889e+13
2.11869e+13
-6.96074e+12
-1.3337e+13
8.56789e+13
1.86964e+14
7.67811e+14
8.67659e+13
5.66532e+13
6.4408e+13
2.20702e+14
-6.72966e+12
2.78413e+12
-9.79656e+13
-1.00969e+13
-4.68884e+12
-1.52475e+13
-1.46697e+13
-4.71862e+13
-3.89398e+12
2.24276e+12
1.87664e+13
-1.86375e+13
-9.0321e+11
1.28958e+13
-2.03393e+13
2.06232e+13
-5.4238e+10
-6.21645e+13
2.84588e+13
-2.19363e+12
-2.70629e+13
-4.02464e+13
8.69678e+12
1.39364e+13
1.24518e+13
1.08547e+14
1.42661e+13
6.38086e+13
6.63861e+13
4.80891e+13
8.65618e+13
5.73788e+13
7.39504e+15
2.28389e+15
1.86847e+15
-6.58542e+14
1.18104e+15
2.20567e+15
2.38612e+15
1.00445e+15
1.23404e+15
2.13394e+15
1.48936e+15
-6.92706e+14
1.86668e+15
2.38393e+15
1.16189e+15
1.88384e+15
4.36793e+14
1.56267e+15
9.53636e+14
-7.67424e+14
5.60834e+14
1.42487e+15
-8.73626e+13
7.68464e+14
-4.42672e+14
-4.77227e+14
-3.50009e+14
-2.20416e+14
-3.68523e+14
-4.50415e+14
-2.68524e+14
-3.71393e+14
1.19533e+15
1.31032e+15
-5.76576e+14
-7.53971e+14
4.51972e+14
8.03981e+14
-7.53426e+14
-7.52249e+14
1.73406e+15
-9.97797e+14
1.90541e+15
1.49573e+15
1.14782e+15
9.08384e+14
1.34465e+15
1.05363e+15
7.54888e+14
-6.01302e+14
-6.6675e+14
-4.76261e+14
-7.94215e+14
-8.73746e+14
-7.94799e+14
-6.08354e+14
4.6789e+14
-7.0871e+14
-1.01391e+15
9.48047e+14
3.96546e+14
-7.90698e+14
7.46946e+14
-7.18065e+14
3.79522e+14
4.04998e+14
1.94037e+14
3.09757e+14
4.02962e+14
3.25e+14
3.00021e+14
2.07116e+14
3.44719e+14
2.43447e+14
1.86321e+14
2.03248e+14
2.89208e+14
2.4897e+14
2.302e+14
1.89705e+14
1.03452e+14
1.02896e+14
3.73039e+13
6.86168e+13
1.00601e+14
9.48354e+13
8.33314e+13
7.01013e+13
2.6722e+14
1.9541e+14
1.15327e+14
1.37593e+14
2.16257e+14
1.8373e+14
1.67766e+14
1.25793e+14
3.67196e+14
1.72102e+14
3.16537e+14
2.81005e+14
2.72982e+14
2.28391e+14
3.50896e+14
2.66462e+14
2.91363e+14
2.0919e+14
1.6892e+14
1.65907e+14
2.24235e+14
2.58433e+14
2.31873e+14
1.98808e+14
1.48725e+14
2.5198e+14
1.93847e+14
1.07891e+14
1.14203e+14
1.92956e+14
1.31286e+14
1.91015e+14
1.27949e+14
9.13749e+13
1.34341e+14
1.25385e+14
1.40476e+14
1.23665e+14
1.5062e+14
1.50223e+14
2.22125e+13
6.9451e+13
1.08679e+13
7.89383e+13
3.6448e+13
3.68191e+13
4.90613e+13
4.43353e+13
1.12067e+14
1.84413e+14
1.48084e+14
2.18249e+14
1.65278e+14
1.6601e+14
1.75878e+14
1.77243e+14
7.30204e+12
1.20249e+14
6.83351e+13
1.02466e+14
5.85374e+13
8.37137e+13
6.01471e+13
1.12341e+14
1.26641e+14
2.22944e+14
1.52367e+14
2.84477e+14
1.42518e+14
1.66322e+14
1.78176e+14
1.86882e+14
9.4278e+13
5.49818e+13
8.0789e+13
1.68549e+14
9.50619e+13
6.6905e+13
1.21793e+14
8.60118e+13
9.12692e+13
1.73717e+14
1.23663e+14
3.71535e+13
9.94663e+13
1.37506e+14
5.35522e+13
1.19759e+14
5.41987e+13
8.93859e+13
1.7588e+14
1.04559e+14
6.22726e+13
9.28203e+13
9.73401e+13
1.20538e+14
5.39975e+13
1.12979e+14
1.76803e+14
1.4712e+14
9.99596e+13
1.19937e+14
1.18016e+14
1.31558e+14
2.37115e+14
2.03853e+14
2.19939e+14
2.75422e+14
2.53383e+14
2.16469e+14
3.0022e+14
2.49212e+14
1.7709e+14
1.39683e+14
1.51867e+14
2.12724e+14
1.85901e+14
1.52706e+14
1.94108e+14
1.67683e+14
2.08132e+14
1.64389e+14
1.77192e+14
2.30861e+14
2.15736e+14
1.78178e+14
2.2634e+14
1.99338e+14
2.62172e+14
2.33888e+14
2.47979e+14
2.70951e+14
2.50293e+14
2.38511e+14
2.69016e+14
2.46901e+14
2.20323e+14
2.34738e+14
2.70388e+14
2.36172e+14
2.48002e+14
2.59919e+14
2.59406e+14
2.66898e+14
1.83405e+14
2.2583e+14
1.69209e+14
1.99911e+14
2.04382e+14
2.05661e+14
1.86252e+14
1.96971e+14
2.46748e+14
2.62657e+14
2.42304e+14
2.58208e+14
2.54981e+14
2.55922e+14
2.47537e+14
2.48703e+14
2.1875e+14
2.40904e+14
2.29377e+14
1.82919e+14
2.21134e+14
2.29631e+14
2.11325e+14
2.20348e+14
1.62207e+14
1.02132e+14
1.21598e+14
2.16047e+14
1.61516e+14
1.26821e+14
1.68718e+14
1.33227e+14
5.77707e+13
1.9073e+13
2.79777e+13
6.68847e+13
4.1101e+13
2.46658e+13
5.014e+13
2.90761e+13
7.86457e+13
2.55652e+13
3.18065e+13
9.74567e+13
6.39542e+13
3.81752e+13
7.67162e+13
4.65983e+13
2.03028e+14
1.28565e+14
1.66377e+14
2.50332e+14
1.9701e+14
1.6455e+14
1.93988e+14
1.68878e+14
8.99585e+13
1.1055e+14
1.8999e+14
1.08548e+14
1.00678e+14
1.1662e+14
1.21296e+14
1.44101e+14
7.42298e+13
8.49999e+13
2.8654e+13
8.2798e+13
7.8218e+13
6.69078e+13
6.59475e+13
5.41256e+13
1.20476e+14
1.91668e+14
1.14321e+14
1.32701e+14
1.19569e+14
1.44909e+14
1.1743e+14
1.44228e+14
8.80739e+13
9.61352e+13
8.62381e+13
3.34786e+13
7.89516e+13
8.89232e+13
5.79985e+13
7.2536e+13
9.46892e+13
6.08223e+13
6.27877e+13
3.78264e+13
3.68856e+13
4.70244e+13
8.82598e+13
7.17316e+13
9.82775e+12
-3.69535e+12
-5.34087e+12
1.69927e+13
2.38639e+13
4.48751e+12
1.39524e+13
1.38683e+12
-1.10496e+14
-1.34468e+13
-5.28975e+14
-2.97884e+14
-1.61653e+14
-7.9122e+13
-1.77142e+14
-1.38215e+14
7.68268e+13
1.56344e+13
-3.02808e+13
2.07578e+14
5.26462e+14
1.13997e+14
7.85089e+14
7.93351e+14
4.96337e+13
5.15087e+13
9.17872e+13
2.74634e+12
4.98486e+13
1.19726e+13
2.76585e+13
1.37517e+14
2.42808e+13
5.41862e+13
7.39018e+13
-4.3969e+13
5.07759e+13
3.69616e+13
1.16783e+13
1.53014e+13
-1.16491e+13
2.64184e+14
-5.58079e+12
-4.21528e+13
8.19125e+13
1.60974e+14
2.56765e+14
4.1501e+13
-1.45249e+14
9.60709e+13
1.86978e+13
-6.86605e+13
-1.83094e+14
-1.50675e+14
-1.06806e+14
-9.60493e+13
-6.30999e+14
-2.76783e+14
-6.38451e+14
-4.9987e+14
-3.56206e+14
-3.83862e+14
-4.96637e+14
-5.07832e+14
-2.18806e+14
-1.11634e+14
-5.59423e+14
-3.0617e+14
-1.84079e+14
-1.80338e+14
-3.20551e+14
-3.73742e+14
-7.29085e+14
-8.76322e+14
-4.737e+14
-1.1085e+15
-7.30764e+14
-7.62928e+14
-9.01439e+14
-8.93545e+14
-3.88753e+14
-5.00753e+14
-8.46853e+14
-2.78568e+14
-3.01301e+14
-4.04159e+14
-5.79106e+14
-7.35234e+14
-2.85871e+14
-5.87694e+14
-3.41613e+14
-2.22609e+14
-3.85429e+14
-4.77276e+14
-4.01796e+14
-4.26028e+14
-2.64263e+14
-2.34826e+14
-4.63384e+14
-5.71659e+14
-4.07296e+14
-3.71525e+14
-4.83957e+14
-5.08493e+14
-7.38559e+14
-6.06314e+14
-4.26267e+14
-9.92553e+14
-1.01514e+15
-6.61678e+14
-7.50853e+14
-4.48764e+14
-6.48367e+14
-9.94889e+14
-5.02413e+14
-7.27141e+14
-6.83271e+14
-6.90686e+14
-7.16759e+14
-7.38332e+14
-1.37909e+15
-6.41465e+15
-1.8174e+15
1.56801e+13
1.88764e+15
-4.91789e+15
5.15595e+14
-3.71446e+15
-8.46851e+14
-1.67903e+14
6.1111e+14
-4.75601e+14
-8.44218e+14
-1.91368e+13
-9.31324e+14
1.36919e+14
-2.52587e+15
6.33705e+15
2.33524e+16
-4.66827e+15
-6.52248e+14
1.93409e+16
-1.26281e+15
1.35671e+16
-6.76639e+14
-3.1703e+14
8.48214e+13
-1.26927e+14
-2.03876e+14
-2.79332e+14
-2.23293e+14
-1.25785e+14
-3.59115e+14
-2.44935e+15
-8.03337e+14
-4.33887e+14
-3.51384e+14
-2.31222e+15
-7.94508e+14
-3.66109e+14
3.83614e+14
-6.2464e+14
1.96511e+15
-2.99076e+15
9.16893e+14
-1.05996e+15
-1.50238e+15
-4.10431e+14
-2.66671e+15
-4.17388e+14
-5.16241e+14
-9.39297e+14
-2.77754e+15
-4.52521e+14
-1.09136e+15
-8.43742e+14
-3.34304e+15
-1.909e+15
-3.72126e+14
2.52425e+15
-2.45375e+15
-1.92927e+15
-2.285e+14
-1.38222e+15
2.47018e+14
7.32058e+13
6.0496e+13
1.80153e+14
1.5307e+14
1.12967e+14
1.68654e+14
1.22762e+14
-2.95543e+13
8.02533e+12
-1.91989e+13
7.37382e+12
-1.59746e+13
-2.39864e+13
-1.89113e+13
-1.8985e+13
4.76044e+13
-1.58382e+12
2.59737e+13
5.60898e+13
6.12437e+13
4.08724e+13
4.73855e+13
4.13095e+13
1.24997e+14
9.08141e+13
8.18686e+13
1.23738e+14
1.49886e+14
1.4984e+14
1.11415e+14
1.46524e+14
5.94035e+13
9.0254e+13
1.34464e+14
5.81081e+13
5.62988e+13
1.10384e+14
1.10698e+14
1.22236e+14
-6.09914e+12
-2.03723e+12
-6.7313e+12
6.26252e+13
2.75423e+13
2.66888e+12
3.5837e+13
1.75879e+13
6.42174e+13
1.01844e+14
7.58901e+13
7.66718e+13
7.20945e+13
1.26897e+14
9.9196e+13
1.34492e+14
7.02471e+13
8.96812e+13
2.67705e+13
7.56002e+12
7.79299e+13
7.63115e+13
2.08704e+13
3.2432e+13
3.87827e+14
1.22726e+14
-1.23156e+14
3.66247e+13
3.40125e+14
1.3215e+14
1.08355e+14
1.03281e+13
1.79906e+14
3.99e+14
3.39697e+14
-1.62653e+14
1.63389e+14
3.21125e+14
-6.3177e+13
2.12466e+14
-3.2363e+14
3.194e+14
3.1672e+14
-5.94882e+14
-5.12777e+14
3.32001e+14
-6.20194e+14
4.29554e+14
-2.5041e+13
-2.30101e+14
-2.95502e+14
-6.39505e+13
-6.8633e+13
-2.05438e+14
-9.57756e+13
-2.01255e+14
1.03624e+14
-1.86366e+14
-2.62931e+13
-1.16407e+14
-4.34483e+13
-8.7198e+13
-1.33196e+14
-1.23465e+14
1.73446e+14
-3.00874e+14
3.29811e+14
-2.18254e+14
1.29201e+14
-9.37489e+13
-5.0828e+13
-2.22546e+14
-3.42486e+14
-1.15667e+14
-2.5974e+14
-3.80634e+14
-2.71685e+14
-1.63472e+14
-3.53523e+14
-2.56665e+14
-2.3888e+14
-5.39958e+14
-3.87416e+14
2.90101e+14
-3.77793e+14
-5.42945e+14
-5.34084e+14
-5.54979e+14
4.71105e+14
3.57125e+14
-7.55904e+13
-2.87414e+14
-4.19734e+13
-4.58289e+12
-2.17623e+14
-2.84161e+13
-1.59635e+13
-5.00433e+12
-3.09866e+12
-4.34524e+12
-1.20809e+13
-7.75383e+12
-8.33822e+12
-2.80991e+12
-3.8983e+13
-8.05961e+12
-4.08473e+12
-5.36503e+12
-2.33035e+13
-7.35731e+12
-1.44752e+13
-7.45883e+12
-5.97024e+13
-1.48911e+13
-2.06205e+13
-3.03769e+13
-3.77132e+13
-2.77843e+13
-3.9877e+13
-2.09118e+13
-3.089e+13
-6.2222e+13
-5.77912e+13
-2.34007e+13
-7.6671e+13
-4.66941e+13
-4.58994e+13
-6.32952e+13
-4.84257e+13
-1.29558e+13
-1.02364e+13
-7.1232e+13
-8.19395e+13
-1.80375e+13
-6.05876e+13
-1.55458e+13
-6.50225e+13
-6.13275e+13
-2.04962e+13
-2.62942e+13
-6.83785e+13
-5.72172e+13
-3.25664e+13
-3.23327e+13
-4.45119e+13
-1.29486e+13
-1.09795e+13
-7.14449e+12
-1.17897e+13
-1.86905e+13
-8.29578e+12
-5.7838e+12
2.74592e+14
3.72132e+14
3.80804e+14
2.067e+14
2.89599e+14
3.47238e+14
2.60547e+14
3.46962e+14
4.49688e+14
4.75924e+14
4.69876e+14
3.07843e+14
4.22661e+14
4.84721e+14
3.64184e+14
4.32874e+14
4.02635e+14
4.75164e+14
4.5163e+14
1.8875e+14
3.44083e+14
4.49509e+14
2.49094e+14
4.07775e+14
1.25835e+14
1.54127e+14
1.00831e+14
5.76559e+13
1.12856e+14
1.30224e+14
8.49531e+13
1.06572e+14
3.59824e+14
3.57116e+14
2.02303e+14
2.48575e+14
3.31712e+14
3.15562e+14
2.67692e+14
2.35355e+14
4.36973e+14
2.7756e+14
4.63869e+14
4.45833e+14
4.01846e+14
3.61516e+14
4.32327e+14
3.91427e+14
3.19558e+14
1.71295e+14
1.9447e+14
1.73731e+14
2.22214e+14
1.9368e+14
2.11059e+14
1.80299e+14
3.67806e+14
1.91725e+14
2.47835e+14
4.07153e+14
3.19807e+14
1.95455e+14
3.24585e+14
2.47528e+14
-1.08446e+14
-2.38297e+13
3.65779e+14
-4.31157e+14
8.70141e+14
-5.02425e+13
2.91213e+14
5.27589e+14
-1.01242e+15
2.83289e+15
1.58935e+16
-1.50148e+15
-2.94701e+14
4.38505e+15
-3.95952e+15
1.89374e+15
6.8745e+15
4.48486e+16
1.0723e+17
-8.24876e+15
3.92899e+14
3.40412e+16
-1.641e+16
1.17219e+16
-3.9175e+14
-2.30634e+14
-4.58567e+14
-1.29888e+14
-1.64934e+14
-2.16143e+14
-2.2069e+14
-2.17477e+14
1.36315e+15
1.7877e+15
-3.13807e+14
-5.34528e+14
3.39607e+14
1.26828e+15
-4.90712e+14
-8.88758e+12
-3.65204e+13
-1.70336e+15
1.8288e+16
-2.34955e+15
2.89971e+15
-2.74071e+15
-1.25194e+15
-8.40931e+15
8.3253e+14
-1.52655e+14
-5.33291e+14
-1.05355e+15
-1.39333e+15
-3.63905e+14
-1.91767e+15
-6.10634e+14
1.22187e+15
-2.59969e+15
-1.37591e+15
-7.15753e+15
-6.74736e+15
-2.88513e+15
-9.3342e+15
-2.69002e+15
-7.8257e+14
1.39718e+14
-4.03632e+15
1.23404e+15
1.27125e+15
4.34043e+14
9.88342e+14
-2.72667e+14
-1.62671e+14
-6.8073e+13
-1.76626e+14
-9.09227e+13
-1.03157e+14
-1.07613e+14
-1.38093e+14
-1.31292e+14
-8.93909e+14
-1.06184e+14
-2.05468e+14
-2.68803e+14
-7.60366e+14
-6.15996e+14
-5.83351e+14
-5.55422e+14
-8.35816e+13
-1.11657e+14
-1.62216e+14
-6.82036e+13
-9.98913e+13
-1.44679e+14
-1.41056e+14
-1.27942e+14
2.20152e+13
-7.75069e+14
-1.89387e+14
-1.01114e+14
-3.14717e+14
-6.75397e+14
-2.39158e+14
-2.2746e+14
-2.52079e+14
-1.44294e+14
-2.31353e+14
-8.89789e+14
-4.53591e+14
-2.51449e+14
-4.66795e+14
-3.27996e+14
-8.28972e+14
-1.73145e+14
-1.30807e+14
-3.6861e+14
-4.87138e+14
-2.34512e+14
-2.79811e+14
-1.66784e+14
-5.27685e+14
-3.63053e+14
-1.40391e+14
-1.97928e+14
-5.34387e+14
-3.75231e+14
-3.32597e+14
-2.32552e+14
2.16488e+13
8.38126e+12
5.10217e+12
4.39792e+13
4.64847e+13
2.47964e+13
4.9048e+13
3.13979e+13
-7.33851e+12
-8.7364e+12
-2.13596e+12
5.48344e+13
-1.01265e+13
-8.75146e+12
-1.93706e+12
-1.00512e+13
8.04904e+12
-8.00827e+11
-5.05664e+11
3.20464e+13
-1.60098e+12
-2.99555e+12
3.52713e+11
1.10741e+12
3.02256e+14
1.41515e+14
1.68945e+14
6.98743e+14
1.71654e+14
1.02061e+14
2.69213e+14
2.76964e+14
-1.87687e+12
1.50506e+10
5.83388e+13
3.39484e+13
-7.62388e+12
-8.48248e+12
1.16336e+13
2.72124e+13
-2.29488e+12
1.6336e+13
-1.19644e+12
1.64776e+12
-2.1126e+12
-6.43746e+12
2.61366e+12
-5.91055e+12
-2.82506e+13
8.38546e+13
3.04855e+13
4.42526e+13
-5.99771e+12
8.64269e+13
8.4732e+13
5.77768e+13
-3.16786e+12
7.47406e+13
2.50206e+13
-2.68448e+12
4.39588e+12
3.02568e+13
2.92196e+12
1.83338e+13
6.55928e+14
2.36686e+15
-1.23947e+15
-1.68473e+14
5.92906e+14
4.84369e+14
5.44216e+14
-1.37543e+14
3.20461e+15
6.27667e+15
-1.79409e+15
-5.90258e+14
-1.06867e+15
1.42896e+14
-2.00013e+15
-1.77517e+15
-4.57412e+13
-1.63613e+15
-6.64145e+14
-7.70522e+14
-6.81397e+14
-7.71682e+14
-6.22722e+14
-7.35565e+14
-9.20609e+14
-1.07092e+15
-7.23151e+14
-7.44326e+14
-1.0809e+15
-1.11814e+15
-9.77408e+14
-1.16219e+15
-2.66843e+14
-1.44475e+15
-6.48983e+14
-9.54799e+14
-1.92765e+15
-4.98638e+14
-8.74225e+14
-6.80808e+14
-1.23682e+14
-1.24705e+15
-1.7019e+15
-1.31389e+15
-2.9116e+15
-1.83469e+15
-1.33325e+15
-1.70962e+15
-6.14401e+14
-9.04514e+14
-1.12983e+15
-9.12696e+14
-8.84958e+14
-1.45854e+15
-1.32737e+15
-1.27036e+15
-1.09063e+15
-1.10268e+15
-1.37859e+15
-1.59071e+15
-1.24973e+15
-1.36245e+15
-1.56216e+15
-1.76073e+15
-8.34298e+12
-1.37533e+13
-4.29722e+13
-4.15626e+12
3.47458e+12
-7.69842e+12
-7.05082e+11
-1.33326e+13
-4.10244e+13
2.406e+14
1.71887e+15
9.26355e+13
-1.91463e+14
9.78062e+14
-2.0108e+14
1.11771e+15
1.60598e+13
1.04483e+15
8.40233e+14
1.98351e+13
4.9782e+13
3.94643e+14
4.30984e+12
1.09338e+15
-4.73327e+12
-2.21321e+13
-5.28393e+13
-4.99611e+12
2.04076e+12
-4.28501e+13
-2.78951e+12
-4.50483e+13
-6.93807e+12
-4.43934e+13
8.22481e+12
-4.33362e+13
-2.40908e+13
-3.04426e+13
6.30208e+12
2.59241e+13
2.51724e+13
-1.01729e+14
1.25041e+15
6.44567e+13
5.68481e+13
3.80375e+13
-2.74575e+14
-3.1548e+13
-7.89318e+13
7.44246e+12
-6.10292e+13
-1.46433e+13
-6.85221e+13
2.60625e+13
2.36325e+13
-1.43937e+13
1.28186e+14
-2.75652e+13
-6.75001e+12
1.83886e+15
-1.0892e+14
2.83017e+13
-6.59815e+13
9.18803e+13
2.75589e+14
7.29886e+13
1.72705e+14
3.85461e+14
4.24158e+14
3.22065e+14
4.31772e+14
3.86352e+14
1.85175e+12
7.34564e+11
-9.86039e+13
-2.02897e+13
-1.62256e+13
-3.98982e+12
-2.51464e+12
-2.28308e+13
-2.47049e+14
8.02725e+14
1.6244e+15
6.29047e+14
9.95118e+14
6.94341e+14
1.18611e+15
3.34737e+14
2.34988e+14
3.85986e+13
1.05846e+14
1.08697e+14
1.44715e+14
1.39027e+14
1.73417e+14
9.48601e+13
1.16796e+14
5.27194e+14
3.65226e+14
3.53638e+13
1.06637e+14
1.73844e+14
7.53972e+13
2.15905e+14
9.03613e+13
5.5293e+13
-2.75159e+14
2.59189e+14
4.96276e+13
2.015e+13
1.23775e+14
-9.5865e+13
4.58335e+14
3.75296e+14
3.48704e+13
4.72328e+14
1.8705e+14
2.70986e+14
4.20902e+14
6.3913e+13
2.26608e+14
-9.32744e+13
3.15778e+12
-1.78817e+14
-3.09855e+14
7.77625e+13
-1.03793e+14
-9.18658e+13
-7.51417e+13
-2.38063e+14
-6.78504e+14
-2.67354e+14
-1.15121e+14
-1.08568e+14
-3.83193e+14
-3.21571e+14
-5.56468e+14
-3.34475e+14
3.03169e+14
-9.43899e+14
-9.26134e+14
-5.8589e+14
-1.12201e+15
-8.32235e+14
-2.69596e+15
3.08138e+15
3.13817e+16
-2.4161e+15
-1.76321e+15
9.85353e+14
-2.15772e+15
4.49165e+15
4.62541e+14
-4.40283e+15
-2.06756e+15
-1.24659e+15
-1.85362e+15
-6.88546e+15
-5.14158e+15
-5.69726e+15
-2.68118e+14
-8.85539e+14
-4.73028e+14
-7.93927e+14
-3.70029e+14
-6.11094e+14
-6.08743e+14
-9.08964e+14
-8.57371e+14
-7.22859e+14
-9.22429e+14
-1.27558e+15
-9.96085e+14
-8.7227e+14
-7.26369e+14
-8.68263e+14
-1.74401e+15
-1.1855e+15
-2.11149e+15
2.32114e+15
-3.03407e+15
-5.23814e+15
-1.62593e+15
-4.90184e+15
-3.10673e+15
-2.84106e+15
-2.04892e+14
1.38324e+12
-2.40091e+15
-2.00134e+15
-1.67103e+15
-1.53774e+15
3.79626e+15
2.88117e+15
2.76628e+15
3.59822e+15
3.60649e+15
2.9587e+15
3.98778e+15
3.45588e+15
2.17314e+15
1.67687e+15
1.89504e+15
1.74351e+15
1.92749e+15
1.64682e+15
2.0895e+15
1.80005e+15
2.22916e+15
1.68698e+15
1.80011e+15
1.75919e+15
2.19799e+15
1.72153e+15
2.56347e+15
2.45012e+15
2.25568e+15
1.08534e+15
9.01182e+14
-3.22551e+13
1.25058e+15
1.06816e+15
1.04597e+15
1.20542e+15
2.69529e+15
3.01436e+15
3.07801e+15
1.93609e+15
2.82442e+15
3.35399e+15
2.62265e+15
2.72461e+15
2.40694e+15
1.57659e+15
1.81129e+15
2.75758e+15
2.42735e+15
2.52581e+15
2.38819e+15
2.24137e+15
2.81436e+15
2.49973e+15
1.44897e+15
1.93196e+15
3.06371e+15
2.66773e+15
2.14772e+15
1.79592e+15
2.67714e+15
2.12423e+15
1.50467e+15
1.99983e+15
2.21191e+15
1.96434e+15
2.11381e+15
1.82603e+15
-3.60124e+12
-9.66334e+10
-1.58496e+13
-3.36728e+12
-1.73932e+12
-2.59855e+12
-4.52111e+12
-4.14705e+12
1.02747e+12
1.55446e+13
4.22679e+13
-8.33252e+10
-1.473e+12
7.02309e+12
8.48992e+11
1.35846e+13
1.11204e+12
1.29672e+14
2.84723e+14
1.70404e+14
1.98847e+13
4.25952e+13
4.02905e+13
-5.42728e+12
-2.72028e+12
-3.65854e+12
3.67082e+13
-8.30413e+12
-6.60388e+12
-1.43152e+12
-6.6709e+12
1.36271e+13
5.39706e+10
-1.13054e+13
-6.86641e+12
-3.59017e+12
-8.35103e+11
-5.10684e+12
-2.85045e+12
-6.83058e+12
2.05121e+11
-3.40424e+12
1.19515e+13
6.04576e+10
-7.96076e+11
-1.39435e+12
4.65308e+12
-5.52313e+12
2.24316e+12
-6.47026e+12
-6.26856e+12
1.92658e+13
3.47643e+13
1.35002e+12
3.29317e+13
3.73952e+12
1.27249e+13
2.67003e+13
-2.98248e+11
2.54098e+13
4.58147e+13
3.49307e+13
2.37738e+13
3.0843e+13
1.81317e+14
6.80101e+13
7.11829e+13
1.82484e+14
1.09984e+14
4.5034e+13
1.25097e+14
4.56964e+13
5.05482e+13
7.0633e+12
2.00824e+13
1.32185e+14
1.15162e+14
7.73237e+13
1.12648e+14
7.56846e+13
2.36633e+13
-5.52595e+12
-7.40183e+12
1.89827e+13
3.52284e+13
-1.08275e+12
3.61151e+13
-3.81557e+11
7.19819e+14
2.62815e+14
1.50026e+14
4.94188e+14
1.15204e+15
2.12925e+14
1.42582e+15
1.78051e+14
9.83648e+13
5.69534e+13
7.64141e+14
2.61917e+14
1.08059e+14
6.43428e+13
9.33409e+13
8.06506e+13
5.26101e+13
1.21229e+14
-7.2794e+12
2.21881e+13
4.15679e+13
8.20881e+13
2.99117e+13
4.10542e+13
6.37097e+13
6.64351e+14
2.95224e+14
6.93541e+13
1.40621e+13
6.76386e+13
5.57874e+13
1.64655e+14
2.19812e+13
1.3547e+13
8.74957e+13
-6.28627e+12
3.54278e+13
1.8901e+13
3.38219e+13
4.18441e+13
2.08953e+13
-2.35567e+14
-2.05553e+14
-7.30396e+11
-3.10801e+13
-1.5236e+14
-4.05488e+13
-1.63121e+14
-7.35263e+14
7.7838e+14
6.85797e+14
-4.6699e+14
-7.56844e+14
1.61121e+14
-7.75358e+14
-5.53276e+13
-6.6237e+14
-1.301e+15
5.78163e+14
-7.51789e+14
-6.75163e+14
-2.26634e+15
-6.47723e+14
-5.91425e+14
-5.56379e+13
-3.10591e+14
-3.08777e+14
-1.54509e+14
-1.42931e+14
-2.24681e+14
-1.96158e+14
-2.68144e+14
-3.6488e+14
-3.39078e+14
-8.79864e+13
-3.22421e+14
-3.61049e+14
-2.76404e+14
-2.90737e+14
-2.02413e+14
-5.29289e+14
-5.33443e+14
-8.76201e+14
-4.5905e+14
-5.27677e+14
-5.81264e+14
-6.70988e+14
-7.05348e+14
-3.36508e+14
-9.39511e+13
-3.38303e+14
-4.10261e+14
-2.74769e+14
-2.15875e+14
-3.71872e+14
-3.20544e+14
-5.37347e+14
-5.48654e+14
-3.8115e+14
-2.66945e+14
-5.20808e+14
-4.99622e+14
-6.81075e+14
-3.9417e+14
7.79616e+14
6.63959e+14
7.02453e+14
6.22688e+14
7.79817e+14
7.33076e+14
8.05671e+14
7.51589e+14
5.30598e+14
4.26137e+14
4.64401e+14
4.10553e+14
4.8668e+14
4.58369e+14
4.97797e+14
4.58691e+14
6.00443e+14
4.82975e+14
5.27417e+14
4.68784e+14
5.41489e+14
5.10914e+14
5.23626e+14
4.79601e+14
4.6737e+14
4.03881e+14
4.58917e+14
4.04763e+14
4.4327e+14
4.15594e+14
4.43837e+14
4.16272e+14
5.90773e+14
6.81807e+14
5.65151e+14
4.68563e+14
6.02244e+14
6.85813e+14
5.53193e+14
5.50611e+14
5.7121e+14
4.34978e+14
4.89208e+14
6.37565e+14
5.62406e+14
5.37871e+14
5.74314e+14
5.24926e+14
6.68584e+14
5.48799e+14
4.83161e+14
4.86714e+14