/*--------------------------------*- C++ -*----------------------------------*\
| =========                 |                                                 |
| \\      /  F ield         | OpenFOAM: The Open Source CFD Toolbox           |
|  \\    /   O peration     | Version:  2506                                  |
|   \\  /    A nd           | Website:  www.openfoam.com                      |
|    \\/     M anipulation  |                                                 |
\*---------------------------------------------------------------------------*/
FoamFile
{
    version     2.0;
    format      ascii;
    arch        "LSB;label=32;scalar=64";
    class       surfaceScalarField;
    location    "300";
    object      phi;
}
// * * * * * * * * * * * * * * * * * * * * * * * * * * * * * * * * * * * * * //

dimensions      [0 3 -1 0 0 0 0];

oriented        oriented;

internalField   nonuniform List<scalar> 
111136
(
1.69653e-05
-3.48522e-05
1.78983e-05
2.61911e-05
2.21865e-05
-4.83346e-05
-3.50068e-05
2.25866e-05
1.24278e-05
8.03413e-07
1.77679e-05
-3.0108e-05
1.15352e-05
1.79511e-05
2.47234e-05
-2.56846e-05
4.41493e-05
1.62464e-05
9.30641e-06
2.53897e-05
1.35857e-05
1.14191e-05
-2.48297e-05
-7.78785e-05
0.000285108
-0.000207189
5.74798e-05
1.3953e-05
-7.12696e-05
-1.62711e-05
-3.19898e-05
0.000353469
-0.000305154
1.90491e-05
-2.59488e-05
2.06933e-05
-5.87926e-05
-5.0679e-05
8.48551e-06
-5.19748e-05
2.52741e-05
-3.23184e-05
7.00352e-06
1.5123e-05
-3.36441e-05
1.87405e-05
-5.81957e-05
3.97138e-05
1.85326e-05
3.5524e-06
-6.09529e-05
1.55137e-05
4.184e-05
3.37165e-05
4.2968e-05
-5.14237e-05
4.88684e-05
3.67594e-05
9.77714e-06
2.74398e-05
1.53445e-05
-3.736e-07
-2.26511e-05
7.65758e-06
6.84081e-07
4.57798e-06
-6.25222e-05
5.72768e-05
-4.21101e-05
9.53512e-06
1.65574e-05
1.60352e-05
1.57902e-05
-6.30956e-05
4.99661e-05
-2.74784e-06
-7.54883e-06
3.1188e-05
-8.26209e-06
3.9817e-06
-1.08163e-05
4.97776e-05
-2.79002e-06
1.16502e-05
3.72113e-05
7.04926e-06
-2.20332e-05
-4.8145e-05
1.76952e-05
5.30233e-05
1.64197e-05
2.64624e-05
-2.51439e-05
1.99777e-05
6.51317e-05
-6.00857e-05
-2.50919e-05
2.18664e-05
-7.11823e-07
1.60582e-05
-8.91428e-07
5.01506e-06
1.42373e-05
2.04692e-05
1.84853e-05
-3.21687e-06
3.62545e-05
1.30632e-05
1.2285e-06
-1.07164e-05
2.83953e-05
3.58832e-05
-1.31502e-06
4.11519e-05
-1.20313e-05
4.22057e-05
-4.02413e-06
3.23763e-05
2.46588e-05
1.51229e-05
1.09445e-05
-2.41806e-06
-5.31669e-05
-1.62151e-05
1.81247e-05
7.36431e-06
-2.38869e-05
9.05316e-06
1.06169e-05
1.16662e-05
1.5681e-06
-8.96925e-06
2.84423e-05
-3.55106e-05
-7.41418e-06
1.45549e-06
-1.85501e-05
-2.20294e-05
-1.0331e-05
-3.72628e-06
-1.92534e-05
-4.82537e-05
9.04533e-07
-4.5947e-05
-5.79911e-06
1.76475e-05
-1.18429e-05
2.3908e-05
-5.51378e-06
-1.84048e-05
-2.09633e-05
-9.8567e-06
3.08179e-05
4.00143e-06
-5.72002e-06
1.78394e-05
-1.61143e-05
-6.86891e-06
1.72305e-05
-1.61653e-05
1.70409e-05
1.05085e-06
2.01939e-05
-2.8701e-06
-8.95721e-06
3.45935e-05
-2.56493e-05
5.15073e-05
-1.82889e-05
-3.32025e-05
-4.63577e-05
7.08068e-05
-2.44106e-05
4.83039e-06
6.18831e-05
-2.72848e-05
-3.94705e-05
-1.19298e-05
3.14853e-05
-2.85026e-05
3.95876e-05
-7.6865e-06
4.40259e-05
-1.44468e-05
-8.26902e-06
-4.16778e-05
4.99653e-05
4.52998e-05
-5.61767e-05
1.09639e-05
-4.08563e-05
-2.29442e-05
6.38823e-05
1.7529e-05
-5.68442e-05
8.97336e-05
-5.03443e-05
4.58452e-06
5.5527e-05
-6.83222e-05
4.99124e-05
2.38056e-05
4.93134e-05
3.28751e-05
-1.94931e-05
3.27379e-06
3.72633e-05
-2.10625e-05
7.71575e-05
-2.74969e-06
-5.40445e-05
-2.03861e-05
-4.23711e-05
4.59389e-06
3.99077e-05
-2.12569e-06
-1.32103e-05
5.1678e-05
-2.39896e-05
-1.45232e-05
-3.38091e-05
3.9747e-05
-2.54493e-05
4.4831e-05
-1.486e-06
-4.66852e-05
7.32098e-05
-4.42263e-05
2.42134e-05
-8.44557e-06
-2.12886e-05
-3.35939e-05
-8.68697e-06
3.24468e-05
-3.4763e-06
1.59837e-05
-1.82626e-05
1.49465e-05
-1.77681e-05
3.4435e-05
-3.1636e-05
3.1084e-05
-2.17914e-06
-4.6803e-06
-5.38091e-06
3.57866e-05
-2.3037e-05
2.69239e-05
2.61557e-05
7.39695e-06
3.67014e-05
1.63884e-05
5.44396e-05
-4.06655e-05
3.20156e-05
-8.95892e-06
3.04493e-05
4.24761e-05
-1.02054e-05
4.86736e-05
-7.15863e-06
3.47441e-06
3.61415e-05
-1.38695e-05
3.31298e-05
7.07322e-05
-3.90623e-05
-4.05346e-05
-1.84809e-05
6.36354e-05
-3.85553e-05
-1.63927e-05
4.77982e-05
-2.55002e-05
-4.3746e-05
-1.31716e-05
-6.17146e-06
-4.43055e-05
-3.10332e-05
5.3862e-05
-5.62361e-05
5.02491e-06
-6.72461e-06
-1.37363e-05
-6.07177e-05
-7.12268e-05
-7.01983e-06
-2.43933e-05
0.000100903
-0.000742835
0.00142494
-0.000782609
0.00129275
0.000155502
-0.000477571
-0.000971354
-0.000942483
3.64213e-05
-0.000173684
0.00107937
-0.00053586
8.09179e-05
0.00126934
-0.000813869
-0.000377674
0.00128237
-0.000803788
0.00133026
-0.000415239
-0.000289459
0.00103583
9.82616e-05
0.000316034
0.00128399
-0.000352469
-0.00124847
0.000990536
-0.000371525
0.000539518
-0.00115862
-0.00111951
0.000913506
-0.000130347
0.000336374
-0.000276118
0.00101524
0.000208743
-0.000949213
0.00010954
0.00147085
-0.00126483
0.00142107
-0.000320898
0.00010011
0.00109435
0.000401411
7.34274e-05
-0.000970513
3.81069e-05
0.000858898
0.000767279
-0.00100442
-8.68278e-06
0.000246195
-0.000869824
0.000110558
0.00016522
0.000594
-1.77475e-05
-0.000785613
0.000140647
0.000662393
0.000127338
0.000909292
-0.000963307
0.000853419
4.13755e-05
0.000177547
0.000713852
0.000161061
6.165e-05
-0.000481625
0.00117946
-0.000758861
0.000970499
-0.000228969
-4.43008e-06
-0.000737602
-0.000720759
-0.000175621
4.6521e-05
0.000849035
-0.000420281
-5.43425e-06
0.00115005
-0.000724112
-0.000259134
0.00104396
-0.000723059
0.000972281
-0.000261094
-0.000246195
0.000869796
4.99669e-06
0.00136032
-0.000109967
-0.00109525
-0.000942363
-7.7961e-05
0.0010563
-0.000293269
0.00117249
-0.000798372
-7.15533e-05
-0.000104823
0.00116604
-0.000990076
0.00115339
0.000299055
-9.2418e-05
0.000309288
0.00113236
-0.000904969
0.00114842
0.00150371
-0.000330317
-0.000239602
0.00114956
-0.000106282
0.00109646
-7.67113e-05
-0.00107495
0.00108109
-8.41162e-05
0.000250909
0.00116009
0.00110559
0.000189214
-0.000104051
0.00118836
0.000174553
1.12415e-05
0.000870021
-0.000253633
0.000944444
0.00103564
-9.86139e-05
-0.000982296
-6.39182e-06
0.000812464
-0.000819993
9.49806e-05
0.000899333
7.47539e-05
-0.000849299
-3.81289e-05
0.00012151
-0.000885107
9.24066e-05
0.000856162
0.000194475
-0.000133596
0.000225423
9.16155e-05
-0.000933803
-0.000831705
0.000120798
0.000145168
0.00108303
-0.00108134
-0.000114765
0.00104174
-0.000928353
-4.07861e-05
0.000958213
-0.00091648
-0.000921544
0.000923198
7.9595e-05
0.00100201
0.000949781
-0.000985821
8.19358e-05
0.000990711
0.000884737
-0.00016164
-0.000726069
-0.000217909
0.00081166
-0.000596197
-5.80123e-05
-0.000129507
0.000827003
-0.000641173
-0.000649002
-0.000145774
0.000793173
0.000211187
0.000672329
0.000593538
-0.000601386
0.000207248
-0.000185002
0.000742928
0.000863057
-9.87284e-05
-0.000763296
-3.88656e-05
-0.000121441
0.000765966
-0.000607878
-0.000155482
0.0008274
-0.000671086
-0.000643159
-0.000142812
0.000786899
0.000151354
0.000785758
-7.83234e-05
0.000814037
-0.000702917
0.000143463
0.000801956
0.000791904
-0.000790263
-6.44123e-05
-0.000691562
0.000753592
-6.40565e-05
-0.000688424
0.000753818
-0.000691544
0.000693259
5.6184e-05
0.000733964
0.000661804
-0.000671494
4.37245e-05
0.000641408
0.000854848
0.000185008
-4.58624e-05
0.000120773
0.000881018
7.00244e-05
0.000851495
-0.000890425
0.000153753
0.000734637
-9.7136e-05
0.000757888
0.00019073
0.000847478
-0.000133554
0.000783127
0.000789773
-0.000769051
-0.000688957
0.000696401
-0.000175797
0.000751255
-0.000707814
4.95665e-05
0.00086007
-0.000792656
0.000920005
5.94466e-05
4.49307e-05
0.000908002
-0.000799757
0.000772966
0.000788087
9.37848e-05
6.26454e-05
-7.21826e-05
0.00011343
-0.000764281
7.68413e-05
-5.25398e-05
0.00084204
0.00079306
-4.93835e-05
0.000126806
0.000854198
-0.000757574
0.00069135
7.76542e-05
0.000731787
-0.000176225
0.000803918
0.000683367
8.31314e-05
5.1698e-05
0.000679672
0.000808863
8.84682e-06
-1.73125e-05
8.46017e-06
-1.37747e-05
7.4179e-06
6.35339e-06
7.19672e-06
7.633e-06
-1.4837e-05
-1.08592e-06
5.53307e-06
-1.02192e-05
5.76338e-06
7.65989e-06
-6.84779e-06
8.03244e-06
-6.11557e-06
5.97854e-06
-1.39183e-05
7.05871e-06
7.24767e-06
-1.35402e-05
6.29186e-06
-1.30666e-05
6.86627e-06
6.19135e-06
6.16457e-06
-1.20397e-05
5.87095e-06
-4.22772e-07
-1.30069e-05
6.8722e-06
6.55551e-06
7.14815e-06
-6.15655e-06
6.25244e-06
-5.91954e-06
5.85677e-06
-1.24427e-05
6.10086e-06
6.47926e-06
7.29778e-06
-1.37863e-05
-1.26866e-05
7.18747e-06
5.49578e-06
8.79507e-06
-1.51324e-05
6.32327e-06
-1.1476e-06
7.63373e-06
-1.19982e-05
5.51063e-06
5.46324e-06
-6.71645e-06
7.72993e-06
-7.22461e-06
4.44957e-06
-1.23178e-05
6.0201e-06
4.56205e-06
-3.81676e-07
-9.27139e-06
5.07805e-06
-1.06119e-05
-3.90651e-07
5.19427e-06
5.79732e-06
6.52738e-06
-3.54502e-07
-1.11276e-05
4.94656e-06
-3.65686e-07
-9.66977e-06
4.02858e-06
5.99593e-06
4.63996e-06
-5.76382e-06
5.67981e-06
-5.60066e-06
-3.73056e-07
3.05839e-06
-9.19705e-06
3.9836e-06
-6.74647e-06
7.61439e-06
6.54914e-06
7.89822e-06
6.33951e-06
-6.60724e-06
5.00875e-06
-5.95168e-06
6.47219e-06
-6.47232e-06
6.34615e-06
-6.53362e-06
6.65546e-06
-1.38153e-05
7.86585e-07
6.27643e-06
1.14139e-06
-1.19326e-05
6.24092e-06
-5.78412e-06
-5.92676e-06
-4.53221e-07
-6.20867e-06
-5.53019e-06
-6.51128e-06
1.21605e-05
-5.82521e-06
6.56643e-06
-6.21923e-06
-6.33011e-06
5.94068e-06
-5.92025e-06
1.11068e-06
4.39557e-06
-1.21201e-05
4.07544e-06
-1.04182e-05
-1.1844e-05
4.91273e-06
5.74454e-06
3.96354e-06
-1.00717e-05
7.16223e-06
5.59447e-06
-1.16546e-05
5.45187e-06
6.76517e-06
4.57055e-06
5.86808e-06
6.23021e-06
5.36438e-06
-6.95568e-06
5.65813e-06
-5.6002e-06
6.27642e-06
1.17638e-06
1.24194e-05
1.19726e-05
8.98517e-07
5.91365e-06
0.000667227
0.000534084
-0.000834914
-0.000366631
0.000401032
0.000633253
-0.000647849
-0.0003869
-0.000384666
0.000668616
0.000374151
-0.000658399
-0.000699256
0.000570141
0.000399215
-0.00027026
-5.97383e-05
0.00106143
-0.000334748
0.00104897
-0.000707872
-3.28043e-05
0.000394823
0.000631419
0.000625842
0.000288396
-0.000519202
-0.000395482
9.26408e-05
0.000647981
-0.000401555
-0.000339508
-0.000319943
6.98668e-05
0.000684677
-0.000435044
-0.000399438
0.000179011
0.000504342
-0.000284067
0.00018372
0.000792093
-0.000350154
0.000721807
-0.000445677
0.000191924
0.000200547
0.000593812
0.000635234
-0.000372414
0.000240094
-0.000503073
6.69239e-05
-0.000315213
0.000624105
-0.000376262
-0.000314122
0.000569336
0.000108969
-0.000364649
-0.00040764
-0.000282729
0.000560799
0.000129522
0.000206967
0.000775655
-0.000347508
0.000631167
-0.000357488
0.000209291
0.000158546
0.000526322
0.000479832
-0.000571728
0.000317452
-0.00022552
0.000223775
-0.000410564
0.000434003
-0.000247283
-0.000239621
-0.000437182
0.000496692
0.000180118
-0.000470174
0.000382296
0.000265817
-0.000177938
-1.4386e-05
0.000717504
-0.000223307
0.000693403
-0.000484103
-3.84739e-06
0.00025116
0.000449993
0.000928668
6.9844e-05
-0.000365492
-0.000346612
9.61242e-05
0.000918862
-2.61386e-05
0.000863106
-0.000266924
-0.000532768
7.4836e-05
0.000734285
-0.000276689
0.000308164
0.000530071
9.02315e-05
0.000592956
0.000285512
-0.000288261
0.000852247
0.00092957
-0.000571588
-0.000488473
0.000742209
-0.000199456
0.000688619
-0.000419546
-0.000251615
0.00088932
-0.000542033
0.000644453
0.000375135
0.000356495
0.000651416
-0.000528132
0.000808421
0.000513881
0.00011691
0.000287874
-1.16817e-05
0.000303061
0.000220512
0.000103068
-0.000732903
0.000104377
0.000191036
-0.000294296
0.000556079
0.000251909
0.00054615
-0.000282558
0.000105667
0.000633798
-0.000695975
0.000517702
0.000289942
0.000555308
-0.000191912
0.000565283
0.000457264
-0.000171021
-0.000133123
0.000445416
0.000602302
1.89365e-06
4.92119e-06
-8.00972e-06
1.00922e-06
-7.16302e-06
1.46762e-05
-1.80441e-05
9.98825e-06
-7.2339e-06
1.40001e-05
2.15171e-06
-8.52483e-06
6.4909e-06
9.92965e-06
-1.34524e-05
-2.37135e-06
1.27742e-05
6.75522e-06
-1.76082e-05
5.5316e-06
4.16894e-07
1.00944e-05
3.26938e-06
8.3149e-06
3.40286e-05
-1.65907e-05
-3.42482e-05
1.65469e-05
-2.85481e-05
-4.86381e-05
1.72183e-05
5.92651e-05
-2.91768e-05
-3.18647e-05
6.37571e-06
5.50062e-05
1.76543e-05
-4.12368e-06
-3.69983e-05
2.41724e-05
5.86536e-05
1.7845e-05
-4.26924e-05
2.32958e-05
6.92302e-06
4.72655e-05
-1.14826e-05
4.14759e-05
1.732e-05
-2.11043e-06
-5.65819e-06
-1.04881e-05
-2.31216e-05
-9.02889e-06
-7.63165e-07
3.23569e-05
-2.48753e-06
-6.98762e-06
-3.88846e-06
1.37364e-05
-1.15972e-06
-1.21988e-06
7.1343e-06
-3.59521e-06
1.59365e-05
5.45953e-06
-3.76431e-06
2.89646e-06
-1.01244e-05
5.31891e-06
-1.02012e-06
5.75588e-06
-1.15741e-06
8.28059e-06
-1.50316e-05
8.158e-06
6.26525e-06
7.68021e-06
-1.94643e-05
7.24433e-06
-6.79879e-06
-7.97572e-07
7.32572e-06
1.81163e-06
1.35888e-06
-9.8836e-06
-1.4956e-07
1.06289e-05
-3.91097e-06
1.21617e-05
-8.88869e-06
9.47818e-06
-6.36229e-06
6.40381e-06
7.29253e-06
9.19955e-06
1.41846e-05
3.06797e-05
-3.05782e-05
-9.88915e-06
1.60881e-05
7.3215e-06
1.75959e-05
7.46663e-06
-1.46877e-05
-1.28057e-05
2.64521e-05
1.60204e-05
-2.93471e-05
-5.21389e-06
-6.63573e-06
2.58849e-05
-6.7628e-06
-3.3268e-06
-1.60534e-05
7.59017e-06
1.4276e-05
-3.17613e-07
1.03515e-05
1.21492e-05
-3.50419e-05
1.1344e-05
-8.01247e-06
8.02735e-06
8.75661e-06
-8.26553e-07
2.26858e-05
1.75508e-05
2.15868e-05
2.30626e-05
2.47373e-06
9.58105e-06
-4.51886e-06
5.3711e-06
6.17467e-06
9.74623e-06
6.34165e-06
2.0593e-07
2.408e-05
6.67001e-07
-5.64753e-06
5.37486e-06
-1.3503e-05
5.23563e-06
4.50633e-06
4.52778e-06
1.62858e-06
5.12183e-06
1.20406e-05
-3.82568e-06
-2.72657e-06
1.93591e-05
1.68086e-05
-2.69215e-05
2.86294e-05
-3.99758e-06
1.22249e-05
-2.44356e-06
-5.01971e-06
1.18123e-05
-5.51058e-06
6.58765e-06
-1.08482e-06
5.95116e-07
-4.32232e-06
3.62541e-06
7.97501e-08
5.56764e-06
-4.98362e-06
-5.98597e-07
-9.80827e-07
-5.34155e-06
6.30901e-06
-5.47876e-06
-5.07044e-06
5.02914e-06
-4.74376e-06
-1.48377e-07
-6.05617e-06
-5.238e-06
-2.65534e-06
2.37567e-06
-4.41696e-07
6.51293e-07
3.29824e-06
-5.78581e-06
1.74988e-07
2.28293e-06
-8.46371e-07
2.58373e-06
-1.99393e-06
1.5146e-07
6.6645e-07
2.31234e-06
-1.477e-06
-1.5406e-06
-7.81282e-07
5.8131e-08
-2.00485e-06
1.10381e-06
1.36158e-06
-1.73853e-06
2.42768e-06
-1.50141e-06
-4.55346e-06
5.53078e-06
-9.96826e-07
7.1654e-07
1.73586e-06
-1.7371e-06
-7.63728e-07
6.09908e-06
-4.92819e-06
-1.18676e-06
-9.22127e-07
5.06472e-06
-4.15209e-06
-4.60565e-06
-4.99317e-06
5.03384e-06
-3.90912e-06
8.81264e-09
-5.92088e-06
-3.73619e-06
-4.64036e-06
-9.25326e-07
5.54138e-06
1.17645e-06
-1.40815e-06
3.36317e-06
-3.15887e-06
4.31298e-06
-2.33215e-07
-4.1253e-06
-1.06338e-06
5.11851e-06
-4.07919e-06
-5.21607e-06
-3.6058e-06
4.15418e-06
-3.30505e-06
-7.59696e-07
-4.67805e-06
-3.68024e-06
-3.48681e-06
-3.80773e-06
2.95313e-06
5.03429e-06
-5.11744e-06
-4.92181e-06
-5.22956e-06
-5.17194e-06
5.04103e-06
3.87401e-06
-3.78306e-06
-1.57074e-06
1.42801e-06
2.90855e-07
7.88209e-07
-4.58239e-06
8.09804e-08
9.69293e-07
3.68192e-06
-4.1875e-06
-1.7113e-06
2.58757e-07
-4.12857e-07
-1.08346e-06
2.76721e-06
-4.12714e-07
1.96459e-07
-2.72006e-07
-4.56135e-06
-2.95798e-07
-3.28548e-06
-3.02874e-06
-1.28509e-06
-3.55407e-06
2.35976e-07
-2.08512e-06
6.1823e-07
-5.54831e-06
-6.10418e-06
8.81679e-07
-3.87304e-06
4.70234e-06
-4.94735e-06
5.72872e-06
-5.12499e-06
-4.56883e-06
4.44684e-06
-4.88294e-06
-4.58205e-06
3.603e-06
-3.4955e-06
-2.66933e-06
-2.32248e-06
2.93837e-06
-1.63867e-06
6.40415e-07
-1.92521e-07
-6.41557e-07
6.49323e-07
-2.67717e-06
0.000966613
-0.00156653
0.000228172
-0.00125669
0.00093055
0.000195631
0.000120756
0.00085936
-0.00112392
0.000144475
7.48489e-05
0.00111457
-0.00154202
0.0011612
-0.000515357
-0.000299333
0.000203852
0.00115199
-0.00159239
0.000973557
0.000753515
-0.00099866
0.000236674
-0.000709173
0.000569948
0.000249904
-0.000150812
-0.000706866
0.000632511
0.000225579
0.000136415
-0.000844875
0.000746398
0.000889647
-9.46916e-05
-3.80024e-05
0.000218554
0.000778409
-0.000736534
0.000589633
0.000742988
-9.66638e-05
-0.000764885
0.000120919
-0.00055857
-0.000205794
0.000574961
0.000190633
-0.000261121
-0.000521426
0.000613726
0.000169216
2.31749e-05
-0.000120664
-0.000957073
0.00105559
0.00081066
8.43118e-05
-0.00015117
0.000103405
0.00014911
0.000857957
-0.00074999
0.000700303
0.0012242
-0.00012755
-0.00157413
-0.0011106
-1.8293e-05
0.000955051
0.0002605
-0.00016829
-0.00148657
0.00139481
-0.000446274
-0.00168799
0.00139122
0.000962027
-0.000152834
-6.86306e-05
-7.98674e-05
0.00105977
-0.00165894
0.00125165
-0.000212693
0.00106677
-3.7937e-05
0.00105077
-0.00015305
0.00108617
-0.000301743
-0.000958486
0.000956444
-8.2162e-05
-0.00101895
-0.00011946
0.000926072
-8.32755e-05
-0.00118182
-0.00017885
-0.00013435
0.000202566
0.000131939
-2.01898e-05
-0.000941944
4.48368e-05
0.000190498
0.000915724
-3.34983e-05
0.000168962
0.000729593
6.23072e-05
0.000125052
0.000784804
0.000193348
-3.19217e-05
-1.85904e-05
0.000947746
-0.00108185
0.00121284
-0.00164225
-0.00112365
0.0010233
-2.50687e-05
0.000939495
-0.00108253
0.00014565
0.00101524
-0.00117931
0.00117965
2.3865e-05
0.000966487
0.000817615
-7.8203e-05
0.000897428
0.000106321
0.000897097
-0.000813487
0.000652611
-6.41507e-05
0.000730939
0.000824442
-0.000114322
0.00081645
0.000656866
0.000394097
-0.000511592
-0.00046927
0.000576872
0.000366607
-0.000475099
-0.000426951
0.000530569
0.000232369
0.000108652
0.000527118
-0.000427306
0.000974564
0.000228669
-0.000546643
0.000190369
0.000314771
0.000738459
0.000501799
0.000586044
-0.000406033
0.000340808
-0.000523147
-0.000342568
0.000235877
0.00076214
-0.000657246
-0.000357907
-0.000229909
0.000190075
0.0003969
3.83044e-05
-0.000105898
0.000562654
-0.000496237
0.000858329
0.000349559
-0.000622889
0.000205899
0.000309536
0.000589367
-0.000202209
0.00043717
0.000377054
-0.000328758
0.000197948
-0.000204958
-0.000260883
0.000158604
0.000307286
-0.000263096
0.000146238
0.000281758
8.15254e-05
-0.000273104
0.000331994
0.000503027
0.000180378
-0.000306357
0.000141952
0.0001561
0.000422897
0.00030171
0.000408865
-4.17913e-05
-0.00037189
4.82465e-05
-0.000122308
0.000475937
-0.000402583
-0.000332542
1.37618e-05
0.000364827
-0.000136864
0.000450762
-0.000319489
0.000346294
0.000408664
-0.000346778
0.000407428
-1.31004e-05
0.000276415
0.000351228
0.000249031
0.000885823
-0.000558995
-0.000350545
0.000646472
0.000234728
0.000583009
0.000372313
-0.000428571
-0.000553752
0.000569453
0.000422867
-0.000439442
-0.000237512
-0.00011753
0.00060363
-8.63404e-05
-0.000236212
-0.000435525
0.000260406
0.000183135
0.000296455
0.000114139
0.00034923
-0.000558634
0.000132805
0.000195758
0.000287854
0.000182093
0.000176374
0.000443072
0.000343562
0.000354984
0.000397308
0.000233952
0.000193677
-8.54799e-05
0.00054572
0.000524824
-9.56037e-05
0.000395693
-0.000271699
0.000377499
-0.000352424
0.000411996
0.000432727
-0.000324023
0.000464201
0.000399094
-0.000245034
0.00034935
0.000350973
0.000393765
-0.000489517
0.000361525
-0.000100147
0.000192946
0.000119002
-0.000102896
0.00036702
-0.0140368
0.0273067
-0.012297
0.0215065
-0.00415404
-0.0169355
0.0134383
-0.019791
0.00673912
-0.010499
-0.0320448
0.0347629
0.00792434
-0.0213228
-0.012757
0.0207609
0.000290503
-0.0304201
0.00733483
-0.0166595
-0.00158602
0.00852839
-0.0070285
0.00445872
-0.00385454
-0.000564923
-0.00347997
0.00460211
-0.00110069
0.000155733
0.00373573
-0.00278326
-0.00109022
-0.00156446
0.00427272
-0.00436088
0.0028845
-0.000393073
0.00484327
-0.000971577
-0.0115304
0.005088
0.0065235
0.0045768
-0.000953101
-0.00359846
0.00816347
-0.0078934
-0.000218209
0.000416901
0.0012235
-0.00549306
0.00403821
-0.0105743
-0.00847942
0.00763332
-0.0059891
-0.008374
0.000356714
-0.00619407
-0.00733384
0.0059547
-0.00132271
0.00285174
0.0024638
0.00105573
-0.00188548
-0.00157817
0.00115773
0.000404814
-0.00469719
0.00319081
0.00297802
-0.00107989
-0.00092016
-0.000899602
-0.00544908
-0.00558972
0.00380507
-0.00288603
-8.09259e-05
-0.000966924
-0.00162165
-0.00268065
0.0142942
-0.00500122
-0.0131429
0.00517114
-0.0158508
-0.00894686
-0.0209854
0.00754109
-0.0184068
0.00336742
-0.00326104
0.0054258
-0.00536174
0.0142879
0.00174635
-0.00170039
0.00280632
0.00624846
-0.00106533
-0.0118724
0.00350426
0.0001235
0.00041662
0.00448115
0.000146116
-0.0103992
-0.00540002
-0.00393752
0.0057877
0.00112035
-0.00459421
0.00106997
-0.00428754
-0.0111246
0.00653376
0.00709933
0.00648878
0.00331716
0.00323311
0.00848151
-0.00653374
-0.00136283
-0.0076632
-0.00698899
0.0104865
-0.0124115
0.00917523
-0.0075485
-0.0114226
0.00024461
-0.00543829
0.00617752
-0.00247497
0.00266986
-0.00343509
0.000714527
-0.00448259
-0.00657852
-0.000739121
-0.00112868
0.00819909
0.0181033
-0.0262742
-0.0306236
0.0196986
0.0109647
0.0077854
0.0104767
-0.0182336
2.72662e-06
0.0164065
-0.0200951
0.00372842
0.024364
-0.00174774
-0.0144002
-0.00625502
0.00877786
-0.0105008
0.0103082
0.0119695
-0.0263283
0.0144019
-0.0134251
0.00247804
0.0109866
0.00561279
-0.00718684
0.00155014
-0.0013008
-0.00564207
-0.00139228
0.00847165
0.00711513
-0.0113744
0.0162393
-0.00630747
-0.0020282
-0.0106418
-0.00271794
0.00429077
0.00691502
-0.0111781
-0.00608621
0.00484739
0.00126526
0.00301005
-0.00442293
0.00143763
0.000375786
0.00338588
-0.00340494
-0.000315071
0.00277704
-0.00471636
0.00623488
-0.00330765
0.00077936
-0.00510467
0.000482753
0.00745221
0.00212833
-0.0265915
0.0170507
-0.00641967
0.000899365
0.00100043
0.00457201
0.00284197
0.000653843
-0.00266166
-0.00078785
0.00207267
-0.0064282
0.000113569
0.00422729
0.00281077
-0.00751699
0.0121613
-0.0042043
0.000599714
0.000255784
-0.00570737
-0.00109768
-0.0138616
0.0175066
0.01607
0.0106421
0.00789236
-0.00805258
0.0093526
-0.0174968
0.0245714
-0.000576563
-0.00341166
-0.00941885
0.0134423
-0.0198063
0.00255691
0.00339126
0.00114447
-0.0176779
0.0196821
-0.00717598
-0.00881943
-0.00166429
-0.00737957
-0.001941
-0.00524558
0.013288
-0.00538934
0.00352692
-0.00895401
-0.0087803
0.00433233
-0.00638952
0.0014476
0.0019934
-0.0114876
-0.00282317
-0.012534
-0.00854102
2.92457e-05
0.00740741
0.000555953
-0.00730206
0.00807119
0.00433482
-0.0109501
-0.00192972
0.00987103
0.00186299
0.00351866
0.00440065
-0.000463688
-0.00693637
-0.000399846
-0.00215639
0.00176776
0.000513534
0.00923716
0.00676139
0.000690043
0.000516064
-5.94633e-06
1.31164e-05
-7.16754e-06
-5.97086e-06
-5.62639e-06
1.15957e-05
1.158e-05
-5.68763e-06
-5.89342e-06
-2.33729e-07
-5.80665e-06
1.23259e-05
-6.2836e-06
-5.44984e-06
-1.27028e-05
1.22078e-05
-1.14227e-05
-5.85521e-06
-7.08318e-06
-5.69903e-06
-6.56602e-06
-7.2414e-06
1.38074e-05
-7.87423e-06
1.70168e-05
-9.14411e-06
1.40588e-05
-6.6448e-06
-7.41715e-06
2.82453e-08
-6.4412e-06
1.36895e-05
-7.27493e-06
-6.59313e-06
-1.30732e-05
1.30994e-05
-1.44684e-05
-6.46675e-06
-6.58044e-06
-6.87641e-06
-5.37894e-06
1.15233e-05
-6.15119e-06
-6.16336e-06
1.29155e-05
-6.76251e-06
1.25563e-05
-6.0899e-06
-6.47619e-06
-3.47454e-07
1.29387e-05
-6.91206e-06
-5.68308e-06
-5.50679e-06
-1.27828e-05
1.29031e-05
-1.16739e-05
-6.35908e-06
-6.77344e-06
-5.47761e-06
-5.92313e-06
-4.02358e-07
1.26567e-05
-6.33877e-06
-5.41001e-06
-6.84108e-08
1.27153e-05
-7.24636e-06
1.16981e-05
-1.63266e-07
-6.50939e-06
-5.04076e-06
-2.82989e-07
1.11435e-05
-6.54331e-06
-4.32337e-06
-6.26254e-06
-1.20011e-05
1.23236e-05
-1.16601e-05
-2.28934e-08
-6.33005e-06
-5.96195e-06
-6.29337e-06
-1.17332e-05
-6.18826e-06
1.22896e-05
1.15724e-05
-5.87671e-06
-1.13958e-05
-6.27344e-06
-1.27661e-05
1.32275e-05
6.1575e-06
-6.57494e-06
-1.31582e-05
1.35694e-05
-6.17253e-06
-1.32079e-07
-5.4308e-06
-2.99217e-07
-6.30025e-06
1.23238e-05
-1.28739e-05
-1.34316e-05
-9.7006e-09
-1.30093e-05
6.28863e-06
-1.2939e-05
6.52149e-06
-1.2407e-05
-6.32035e-06
-1.25465e-05
-1.2914e-05
-6.02568e-06
-1.26531e-05
-2.08928e-07
-5.21098e-06
-5.97937e-06
-6.5786e-06
-6.5921e-06
-6.4434e-06
-6.78469e-06
1.24464e-05
-6.412e-06
-6.19973e-06
1.31686e-05
-6.54018e-06
-6.84007e-06
-6.28444e-06
1.27507e-05
-6.84762e-06
-6.09579e-06
1.28949e-05
-6.37068e-06
-1.3228e-05
-6.56773e-06
6.17461e-06
-6.19944e-06
1.76432e-07
6.62935e-06
6.22305e-06
1.50741e-07
-6.85494e-06
-1.52897e-06
-6.47304e-07
7.20791e-06
-2.61164e-06
-4.06589e-07
8.48295e-06
8.60712e-06
1.09062e-06
-6.40407e-06
-5.12997e-06
-9.96164e-07
-1.93553e-06
7.99313e-06
-5.91937e-06
-3.60398e-06
7.92058e-06
-4.38601e-06
-5.13633e-06
-3.71868e-06
-9.48747e-07
4.87317e-07
-3.74728e-06
9.53932e-06
-2.92315e-06
1.09279e-05
-1.42752e-06
9.04664e-06
-4.52953e-06
-9.22102e-07
-6.93432e-06
-2.74016e-06
1.09828e-05
-1.35605e-06
-5.33009e-06
-4.77948e-06
1.05762e-05
-3.22933e-06
-6.90959e-06
-4.90525e-06
-1.10908e-06
2.91151e-06
6.46013e-06
-1.09111e-05
-1.06273e-05
7.64947e-06
2.45393e-06
5.90356e-06
-1.86929e-05
6.97002e-06
2.26087e-06
8.21444e-06
-1.63416e-05
5.81468e-06
3.83692e-06
-9.56214e-06
8.58435e-06
-8.79871e-06
8.60573e-06
-1.59511e-05
5.69239e-06
-4.31077e-07
-5.62179e-06
-2.63286e-06
8.63042e-06
-3.36774e-06
-7.01169e-06
1.11649e-05
-8.1622e-07
1.10245e-05
-2.77881e-06
-1.14664e-05
3.20294e-06
-9.80531e-06
-1.51179e-06
1.15586e-05
-2.77576e-07
-7.20749e-06
-3.25403e-06
9.98149e-06
-5.21202e-06
-5.37122e-06
-4.7109e-06
-8.39397e-06
1.09323e-06
-4.58844e-06
-4.99364e-06
9.12973e-06
9.32779e-06
-2.46569e-06
-5.84208e-06
-6.15534e-06
-3.01163e-06
8.10372e-06
1.44399e-06
-6.1457e-06
-5.25831e-06
9.90238e-06
-5.00736e-06
6.60236e-06
-6.301e-06
3.36454e-06
-2.09874e-06
1.01066e-05
-4.89405e-06
-3.70632e-06
-4.04935e-06
-4.8462e-06
4.50614e-06
-6.12599e-06
4.55441e-06
-5.63772e-06
-7.09113e-07
-9.32352e-06
-9.66756e-06
-1.11574e-06
-6.28327e-06
1.56167e-06
1.42391e-06
-8.92834e-06
-2.87952e-06
-5.80084e-06
-5.3742e-06
-6.95348e-06
7.68816e-06
3.15014e-06
-1.36442e-05
7.65924e-06
2.79531e-06
-8.93383e-06
-1.32105e-07
1.08775e-05
-4.3042e-07
2.22675e-06
7.70515e-06
3.64586e-06
-1.05939e-05
-1.22277e-06
-2.96567e-07
1.77062e-06
1.03893e-06
9.74345e-06
8.29581e-06
3.16002e-06
8.33222e-07
0.000101827
0.000133504
-3.31239e-05
9.86721e-05
0.000124444
-0.000283621
0.000126939
0.000156305
0.000192537
0.000147923
0.000312951
9.79724e-05
0.00012255
0.000157036
0.000290405
0.000129281
9.03917e-05
-2.56156e-05
9.37918e-05
-2.70049e-05
7.13489e-05
0.000101834
-0.000190763
-9.73775e-06
8.27567e-05
0.000117958
0.00012829
-3.71861e-05
0.000107075
0.000191222
5.54217e-05
7.91412e-05
8.52161e-05
0.000211939
-2.8181e-05
0.000100361
0.000146472
-0.00028061
0.000133941
1.1705e-05
-0.000233977
8.44975e-05
0.000137659
-0.000280178
9.7235e-05
0.000182771
0.000126343
-0.000283902
0.000157093
0.000257231
0.000150109
-0.000261221
0.000161459
0.000107354
0.00027637
0.000157603
0.000163225
0.000203101
-4.73481e-05
0.000175692
0.000103818
-0.000310198
0.000161703
0.000148009
0.00020793
0.000185988
0.000340516
0.000137222
0.00012554
0.000167432
0.000345083
0.000160352
6.39652e-05
0.000230225
-0.000277107
0.000284229
0.000119664
0.000332229
0.000111696
-0.000104672
0.000233128
4.79874e-05
-2.3074e-05
-0.000160753
0.000247747
-0.000171008
-3.15587e-05
0.000129368
8.59629e-05
0.000118624
0.000119353
7.65164e-05
-0.000218537
0.000118322
9.03867e-05
5.44832e-06
0.000136645
0.000142061
0.000110301
0.000223148
0.000201376
0.000113875
0.000114627
9.66528e-05
-0.000159475
0.000278982
0.000314598
-3.59599e-05
0.000259595
-0.000127503
0.000288823
-0.000304922
0.000144791
0.000138929
-0.000270401
0.000287217
0.000134957
-0.000135984
0.000140648
0.000234794
0.00010122
-0.000231485
0.000115799
-0.000134613
8.28466e-06
1.66087e-05
-0.000126571
0.000124791
-0.000596844
0.00126491
-0.00066862
0.00153415
-0.000688712
-0.000845833
-0.000687031
-0.000578265
0.00126476
-0.000218462
-0.000769788
0.00149331
-0.000505723
-0.000708695
0.000782879
-0.000671246
0.000825429
-0.000733985
0.00129829
-0.000595809
-0.000609363
0.00184201
-0.00123348
0.00167647
-0.00112236
-0.000555167
-0.000867005
0.00131981
-0.000453542
-0.000195428
0.00128656
-0.000938589
-0.000153789
-0.000648129
0.00113358
-0.00109568
0.00102827
-0.000736872
0.00167431
-0.000575898
-0.000466826
-0.000695485
0.00116164
0.00106798
-0.000611324
-0.000457657
-0.000502491
0.000921382
-0.000419559
-0.000110289
-0.0004113
0.000931027
-0.00041004
-0.000484356
0.000691447
-0.000674797
0.000583519
-0.000469643
0.00105025
-0.000388955
-0.000343534
-0.000285242
0.00120198
-0.000574107
0.000997605
-0.000247776
-0.00061929
-0.000131659
-0.000457239
-0.000182521
0.0008973
-0.00025791
-0.000226705
0.000734726
-0.000398831
-0.000109848
-0.000537549
0.000759911
-0.000567214
0.000691958
-0.000232086
-0.000435157
0.000967873
-0.000200746
0.00102776
-0.000727498
-0.000989597
-0.000668461
-0.000646191
0.000735758
-0.00106876
0.000961388
-0.000663112
0.000574516
-0.000664306
0.000993408
-0.000905229
0.00149464
0.000292866
-0.000760343
0.000230338
0.00165621
-0.000789206
0.000817611
0.00111442
-0.000212256
0.000834157
0.000586122
0.000732938
-0.00148587
0.000839162
-0.000574009
0.000927392
0.000887707
-0.000559027
0.000914607
0.000148942
-0.000633836
0.00122007
-0.000775131
0.00145075
0.00130421
-0.000560067
-0.00072625
-0.000571755
0.00111444
-0.0005214
-0.000513118
0.00118228
-0.000479472
-0.000592656
-0.00064848
-0.000490614
-0.000596944
-0.000386892
0.000586248
-0.000312819
0.00056951
-0.000448773
0.00015246
-0.0013184
-0.00109338
0.000165678
-0.000341873
-6.07153e-05
9.47513e-05
-6.15257e-05
2.74081e-05
-6.08137e-05
-3.29793e-05
8.12014e-05
1.23896e-05
2.87236e-05
-4.05137e-05
9.27857e-05
-8.10799e-05
9.17487e-05
-4.24639e-05
-8.60432e-05
3.66259e-05
3.62668e-05
-0.000124591
2.74884e-05
-0.000104854
8.02395e-05
4.24367e-05
-7.52908e-05
-3.37069e-05
-1.16007e-05
-6.74028e-05
7.16735e-05
7.21622e-06
-7.4863e-05
6.80738e-05
8.37529e-06
1.67811e-05
-8.49053e-05
6.96145e-05
6.64726e-05
-8.3325e-05
1.82642e-05
5.8713e-05
-8.51414e-05
1.46331e-05
-7.9729e-05
6.35223e-05
6.13483e-05
-8.00995e-05
-2.11174e-05
3.53044e-05
8.44223e-05
-9.87844e-05
-9.82743e-05
2.75234e-05
7.22267e-05
3.85521e-05
6.96865e-05
-0.000106801
7.75658e-05
4.65985e-05
-0.000122768
6.41126e-05
-0.000119128
3.37121e-05
-0.000107862
7.35784e-05
6.77102e-05
-0.000109389
-2.18775e-05