/*--------------------------------*- C++ -*----------------------------------*\
| =========                 |                                                 |
| \\      /  F ield         | OpenFOAM: The Open Source CFD Toolbox           |
|  \\    /   O peration     | Version:  2506                                  |
|   \\  /    A nd           | Website:  www.openfoam.com                      |
|    \\/     M anipulation  |                                                 |
\*---------------------------------------------------------------------------*/
FoamFile
{
    version     2.0;
    format      ascii;
    arch        "LSB;label=32;scalar=64";
    class       volScalarField;
    location    "1000";
    object      p;
}
// * * * * * * * * * * * * * * * * * * * * * * * * * * * * * * * * * * * * * //

dimensions      [0 2 -2 0 0 0 0];

internalField   nonuniform List<scalar> 
57792
(
-0.021997
-0.0224753
-0.0185122
-0.018555
-0.0208043
-0.0212853
-0.0194326
-0.0194049
-0.0235251
-0.0260058
-0.0158659
-0.0166702
-0.0222484
-0.0221853
-0.0176844
-0.0183611
-0.0122081
-0.00910491
-0.00404769
-0.00661176
-0.00841292
-0.00749969
-0.00731668
-0.00559972
-0.0145418
-0.0127353
-0.00900027
-0.0107772
-0.0127323
-0.0123734
-0.0113001
-0.0101451
-0.0211615
-0.0162804
-0.016679
-0.0157583
-0.0186413
-0.0176221
-0.0175363
-0.0165944
-0.0214784
-0.0150993
-0.013821
-0.0165193
-0.0187795
-0.0162164
-0.0169083
-0.0140679
-0.0145359
-0.0152169
-0.0133376
-0.00935552
-0.0134279
-0.0147056
-0.0113545
-0.0129882
-0.0139337
-0.00805997
-0.0127583
-0.0105857
-0.0111571
-0.0100796
-0.0121553
-0.011433
-0.0222948
-0.0211226
-0.0221057
-0.0191038
-0.0209071
-0.0217947
-0.0205384
-0.0211132
-0.0203082
-0.0194908
-0.020866
-0.0170702
-0.0192676
-0.020081
-0.0188738
-0.0197632
-0.0236512
-0.0227697
-0.0272136
-0.0178358
-0.0222588
-0.0235835
-0.0213689
-0.0237536
-0.0154222
-0.0145547
-0.01395
-0.0117579
-0.0140438
-0.0145977
-0.0128897
-0.0135156
-0.0200879
-0.0210024
-0.0174193
-0.0166364
-0.019666
-0.0201666
-0.0178088
-0.018316
-0.0208698
-0.0173255
-0.0214674
-0.0220387
-0.0203676
-0.0194807
-0.021476
-0.0205105
-0.0208074
-0.016578
-0.0158813
-0.0158092
-0.0181754
-0.0171819
-0.0167477
-0.0161466
-0.022058
-0.0167138
-0.0165626
-0.0214362
-0.0205794
-0.0179088
-0.0199835
-0.017824
-0.00626611
-0.0122458
-0.013921
-0.00895131
-0.00789651
-0.0105355
-0.00925773
-0.011301
-0.0187939
-0.0249239
-0.0198515
-0.0165028
-0.019828
-0.0219462
-0.0178191
-0.0198859
-0.0163256
-0.0177427
-0.0163614
-0.014786
-0.0164151
-0.0170546
-0.0154896
-0.01626
-0.0105042
-0.0126489
-0.012998
-0.0106427
-0.0109855
-0.0121956
-0.01107
-0.0120803
-0.0137708
-0.0142994
-0.0100043
-0.0137714
-0.0134069
-0.012985
-0.0128089
-0.0123393
-0.0164992
-0.0154791
-0.0184781
-0.0159934
-0.0160625
-0.0165101
-0.0168578
-0.017492
-0.0136384
-0.0105561
-0.0134642
-0.0137452
-0.0133013
-0.0119361
-0.0140047
-0.0127614
-0.0153623
-0.0145369
-0.0149257
-0.0175763
-0.0156244
-0.0150789
-0.0163459
-0.0155655
-0.00259667
-0.00906277
-0.00273736
-0.00578633
-0.00538473
-0.00559426
-0.0049136
-0.00529792
-0.0178108
-0.0259645
-0.0178225
-0.0161801
-0.0182355
-0.0214824
-0.0164094
-0.0185395
-0.00259613
-0.0101076
-0.00283237
-0.00660492
-0.00571486
-0.00584965
-0.00530014
-0.0060325
-0.00801383
-0.0116572
-0.00923235
-0.00957796
-0.00972692
-0.00981252
-0.00915608
-0.00997347
-0.0114428
-0.00524036
-0.00814671
-0.012261
-0.0106566
-0.00728508
-0.0107166
-0.0081819
-0.0129126
-0.0131022
-0.013123
-0.00555229
-0.0116758
-0.013917
-0.00974312
-0.0120517
-0.00464119
-0.00763536
-0.0117486
-0.00770497
-0.00654218
-0.00810962
-0.00852454
-0.00957468
-0.0053545
-0.00874383
-0.0125553
-0.0121493
-0.00743181
-0.00852621
-0.0111566
-0.0110872
-0.0200836
-0.0208028
-0.0219044
-0.0173502
-0.0196724
-0.0206756
-0.0192928
-0.0205476
-0.0217048
-0.0230133
-0.024119
-0.0190103
-0.0216369
-0.022882
-0.0209904
-0.0227499
-0.0247012
-0.0257518
-0.0290241
-0.0191466
-0.0235041
-0.0260288
-0.0228745
-0.0254723
-0.0142292
-0.0152945
-0.014344
-0.0117141
-0.0137815
-0.0146715
-0.0128606
-0.0137634
-0.0205819
-0.021579
-0.0168269
-0.0177981
-0.0198689
-0.0201331
-0.018174
-0.0179489
-0.0217468
-0.0188826
-0.0241291
-0.0229005
-0.0217246
-0.0209895
-0.0227502
-0.0224774
-0.0212331
-0.016357
-0.0169344
-0.0169817
-0.0183945
-0.0174076
-0.0175083
-0.016899
-0.0227419
-0.0181187
-0.0183092
-0.0242939
-0.0222213
-0.0187896
-0.0218812
-0.0191787
-0.00130632
-0.00127207
-0.000784458
-0.00571747
-0.00226893
-0.00173633
-0.00268492
-0.00279825
-0.00138343
-0.00126513
-0.000885587
-0.00526592
-0.00166456
-0.00198795
-0.00403025
-0.00254336
-0.000774733
-0.000917308
-0.000748681
-0.00339345
-0.00189015
-0.00135719
-0.00198622
-0.00244571
-0.00755952
-0.00697081
-0.00607765
-0.00852798
-0.00779627
-0.00744853
-0.00784924
-0.00702272
-0.00252801
-0.00207074
-0.00577179
-0.00562146
-0.00355283
-0.00289129
-0.00513718
-0.00519602
-0.00194243
-0.00568915
-0.00117705
-0.00151939
-0.00270637
-0.00351243
-0.00104518
-0.00150689
-0.00197024
-0.00592068
-0.00683721
-0.00526508
-0.00425918
-0.00534589
-0.00517986
-0.00604888
-0.00264731
-0.00479172
-0.00570462
-0.00237928
-0.00269864
-0.00470894
-0.00296364
-0.00436893
-0.00287657
-0.00263779
-0.00265878
-0.0105597
-0.00491006
-0.00263596
-0.00672929
-0.00499198
-0.00230132
-0.00210806
-0.00228123
-0.00837097
-0.00386741
-0.00202852
-0.00545888
-0.00375919
-0.00266692
-0.00254474
-0.00279054
-0.010818
-0.00480679
-0.00256354
-0.00684453
-0.00510849
-0.0148708
-0.0134778
-0.0151299
-0.0166282
-0.0156288
-0.0143209
-0.0165808
-0.0158888
-0.00429745
-0.00492013
-0.0119075
-0.0105018
-0.00596376
-0.00683478
-0.00942043
-0.0101409
-0.00228695
-0.00888541
-0.00229095
-0.00258106
-0.00425585
-0.00583851
-0.00254527
-0.00425291
-0.00675021
-0.0134293
-0.0119851
-0.0134007
-0.0107131
-0.0120789
-0.0119847
-0.0129764
-0.00498058
-0.0122759
-0.0105832
-0.00422904
-0.00666263
-0.0102217
-0.00593632
-0.00953944
-0.00363699
-0.00867786
-0.0117046
-0.00618457
-0.00537971
-0.00802472
-0.00679217
-0.00957393
-0.0166212
-0.0275137
-0.0256415
-0.0181183
-0.0199849
-0.0241241
-0.0193639
-0.0240038
-0.0187387
-0.0240159
-0.0229165
-0.0185942
-0.0199948
-0.0226173
-0.019755
-0.021838
-0.00883299
-0.0133247
-0.0146021
-0.0109242
-0.0105179
-0.0123024
-0.0115458
-0.0130261
-0.0114691
-0.0132135
-0.00863473
-0.0136915
-0.0117417
-0.0115481
-0.0115137
-0.0107424
-0.0148925
-0.0166935
-0.0234438
-0.0171152
-0.0163222
-0.0181432
-0.0183564
-0.0197568
-0.0145905
-0.00967116
-0.0142495
-0.0154933
-0.0134941
-0.0116582
-0.014819
-0.0133333
-0.0171128
-0.0173331
-0.017031
-0.0227619
-0.0185418
-0.017382
-0.0196101
-0.0185812
-0.0024835
-0.00262999
-0.00891838
-0.00519695
-0.00311724
-0.00427288
-0.00555181
-0.00620222
-0.0030255
-0.00350925
-0.011302
-0.00617784
-0.00385804
-0.00582201
-0.00673769
-0.00812441
-0.0137877
-0.0153685
-0.0166938
-0.0144208
-0.0144633
-0.015744
-0.0147106
-0.015666
-0.00761696
-0.00825559
-0.012193
-0.00981585
-0.00829582
-0.00940437
-0.00997276
-0.010492
-0.00334188
-0.00966876
-0.00588509
-0.00636699
-0.00613799
-0.00726519
-0.00561148
-0.00703488
-0.00480959
-0.00793622
-0.0124435
-0.0108171
-0.00700209
-0.00826486
-0.0098287
-0.0106882
-0.0111137
-0.0079158
-0.00856752
-0.0124597
-0.0108132
-0.00851781
-0.0114875
-0.00956612
-0.0118248
-0.0131431
-0.00956319
-0.0131641
-0.0128101
-0.0125628
-0.012098
-0.0117828
-0.0081093
-0.0180828
-0.0153781
-0.0145355
-0.0123252
-0.0157541
-0.0131992
-0.0165606
-0.0217158
-0.0217857
-0.0201354
-0.0224383
-0.0218211
-0.0216967
-0.0215752
-0.0215727
-0.0172327
-0.0184245
-0.0169388
-0.0186327
-0.0182963
-0.0179531
-0.0178936
-0.0176887
-0.0219527
-0.0242782
-0.0210848
-0.0272785
-0.0240171
-0.0237846
-0.0241731
-0.0236025
-0.0204486
-0.0171122
-0.0186389
-0.0227948
-0.0205934
-0.0183521
-0.0226171
-0.0208189
-0.0211715
-0.0223484
-0.0198252
-0.0185608
-0.0212568
-0.0211097
-0.0187303
-0.0199316
-0.0171324
-0.0192929
-0.0225753
-0.0195993
-0.0183193
-0.0210016
-0.0198202
-0.0217178
-0.0185909
-0.0198137
-0.0220916
-0.0197428
-0.0189187
-0.0198085
-0.0196159
-0.0207059
-0.0224661
-0.0210459
-0.0189217
-0.0228523
-0.0228633
-0.021171
-0.0219772
-0.0201748
-0.0161116
-0.00527182
-0.00432869
-0.0135991
-0.0134051
-0.0080139
-0.0118657
-0.00632354
-0.0119391
-0.00388149
-0.00361154
-0.00860137
-0.00815949
-0.00590064
-0.00730955
-0.00494502
-0.0244698
-0.0210472
-0.0156896
-0.0276179
-0.0251649
-0.0212263
-0.0240015
-0.0197326
-0.0204221
-0.0172644
-0.0238931
-0.0194817
-0.0192665
-0.0192223
-0.0211605
-0.0210084
-0.0170505
-0.0153624
-0.00642144
-0.014803
-0.0156297
-0.0139875
-0.014076
-0.00999989
-0.0161462
-0.0226382
-0.0181208
-0.0139714
-0.0168932
-0.0199486
-0.014784
-0.0182851
-0.0137372
-0.0109887
-0.0137145
-0.00499542
-0.0113942
-0.012426
-0.00887303
-0.010946
-0.716996
-0.182811
-0.259509
-0.924491
-0.21634
0.119591
-0.462608
-0.132817
-0.0873484
-0.0135199
-0.0608816
-0.0606178
-0.0555006
-0.0241497
-0.0833436
-0.053937
-0.135328
-0.120812
-0.0617841
-0.0862401
-0.0281139
0.0122171
-0.165023
-0.0215505
-0.822543
-0.129853
-0.125069
-0.458548
-0.157818
0.11105
-0.379858
-0.0921342
-0.108319
-0.0925266
-0.157845
-0.118743
-0.17783
-0.0787744
-0.166556
0.152343
-0.0496372
0.00865554
-0.00762396
-0.0461674
-0.12491
-0.0813286
-0.172975
-0.0844442
-0.215319
-0.383451
-0.218798
-0.2032
-0.153777
-0.0180304
-0.0307066
-0.0415332
-0.0804873
-0.0532857
-0.109899
-0.0905266
-0.0278354
0.00184791
-0.159795
-0.142754
-0.536211
-0.208783
-0.201349
-0.818392
-0.20422
0.0837899
-0.370677
-0.13397
-0.0908804
-0.0129661
-0.0615219
-0.0690655
-0.0540871
-0.00900561
-0.0838107
-0.0460616
-0.133043
-0.127726
-0.0740987
-0.088707
-0.0815661
-0.0681429
-0.163269
-0.0748717
-0.718231
-0.122136
-0.12982
-0.427905
-0.172225
0.0572393
-0.331622
-0.0995
-0.103901
-0.128457
-0.186215
-0.116842
-0.169575
-0.133156
-0.140119
0.0633953
-0.0406464
-0.0338746
-0.0309009
-0.107838
-0.0949053
-0.0936225
-0.146719
-0.0886261
-0.208665
-0.353581
-0.180867
-0.193518
-0.161548
-0.0558374
-0.0687873
-0.0693406
-0.109605
-0.0783373
-0.103911
-0.0790495
-0.0780065
-0.0523245
-0.127372
-0.149535
-0.561822
-0.125583
-0.45998
-0.204764
-0.15297
0.0561485
-0.284844
-0.0704444
-0.0266822
-0.000644932
-0.0137213
0.0134784
0.00241028
0.0131094
0.00348634
0.000144281
-0.336999
-0.0727023
-0.247422
-0.124716
-0.118555
0.00633973
-0.179498
-0.0856229
-0.0888003
0.0120075
-0.08245
-0.0459455
-0.144562
-0.00246639
-0.0894972
-0.104049
-0.0314214
-0.130691
-0.11614
0.00716655
-0.0443334
-0.102985
-0.023344
-0.0549545
0.0358975
0.000522461
0.0260354
0.0357299
-0.00942325
-0.0180222
-0.115235
-0.00966524
-0.215244
-0.140126
-0.000780773
-0.133969
-0.150259
-0.0801916
-0.10892
-0.0440225
-0.0890837
-0.0803055
-0.00389995
-0.0196777
-0.0861753
-0.0486877
-0.0285703
-0.0191495
-0.335923
-0.59008
-0.112318
-0.150122
-0.302998
-0.169761
-0.105508
0.0758132
-0.649375
-0.939336
-0.0784096
-0.266407
-0.443227
-0.285276
-0.147243
0.00121176
-0.054674
-0.0474499
-0.0139586
-0.0486934
-0.056676
-0.0421336
-0.0377003
-0.0409138
-0.102107
-0.19276
-0.115113
-0.0783459
-0.162094
-0.0864777
-0.0527605
-0.065426
-0.333559
-0.179719
-0.191858
-0.310409
-0.0737624
-0.068836
-0.189411
-0.0759725
-0.148168
-0.146649
-0.156133
-0.121768
0.0119306
-0.170356
-0.160423
-0.215898
-0.109325
-0.0839542
-0.139965
-0.113141
-0.148462
-0.0482741
-0.121195
-0.0625924
-0.0339401
-0.0829379
-0.118486
-0.0595268
-0.0943992
-0.104708
-0.145566
-0.186511
-0.433161
-0.104417
-0.0918104
-0.506544
-0.16823
0.174464
-0.35623
-0.261175
-0.0132555
0.00042238
0.0219847
-0.015768
0.0030611
0.0447616
-0.00417091
-0.00349973
-0.0425771
0.00140295
-0.0854366
-0.182475
-0.037564
0.0350342
-0.0192491
-0.00900672
-0.354907
-0.0735746
-0.240206
-0.242721
-0.139937
-0.052816
-0.139174
-0.117471
-0.0141959
-0.116971
-0.136662
-0.0277261
-0.0362599
-0.0645899
-0.120781
0.0951387
0.0889827
0.00339224
0.0296663
-0.0241157
-0.0147433
0.00701439
0.0303732
-0.00255772
-0.067143
-0.251057
-0.020408
-0.0231319
-0.132062
-0.172113
-0.125096
-0.116015
-0.0778127
-0.0782397
-0.0200959
-0.00205519
-0.0370702
-0.116705
-0.0256909
0.00116488
-0.23372
-0.307803
-0.143551
-0.0920644
-0.115642
-0.17978
0.0339421
-0.14452
-0.325066
-0.401114
-0.248727
-0.0515947
-0.173197
-0.208311
-0.0120126
-0.0999172
-0.123429
-0.150521
-0.103468
-0.00177955
-0.0709863
-0.0590147
0.010996
-0.0142647
0.00475823
0.0212488
0.0198553
0.0176006
-0.00354564
0.0156509
0.0149444
0.0180179
-0.160143
-0.104194
-0.0451816
-0.0340352
-0.00282646
-0.107585
-0.0650799
-0.0111375
-0.244284
-0.0168793
-0.11732
-0.106101
-0.174894
-0.148553
-0.204823
-0.128686
-0.0481767
-0.0152698
-0.00669472
0.00349545
0.0215772
-0.016024
-0.0125927
-0.0125785
-0.0906625
0.00693914
0.00883898
-0.0810811
-0.0650082
-0.00789386
-0.110667
-0.00703308
-0.0143685
-0.013501
-0.0155305
-0.013439
-0.0139782
-0.0143219
-0.0141448
-0.0145726
-0.0105149
-0.0043147
-0.0117334
-0.0072188
-0.00876957
-0.00846428
-0.0093276
-0.00928133
-0.0169978
-0.0164595
-0.018291
-0.0159901
-0.0168052
-0.0174807
-0.0170101
-0.0176824
-0.0123155
-0.00919399
-0.0132629
-0.0107607
-0.0114717
-0.0114463
-0.0119435
-0.0118732
-0.0125448
-0.0153779
-0.0129093
-0.0103879
-0.0128665
-0.013994
-0.0117375
-0.0129227
-0.0126913
-0.0101635
-0.0146375
-0.0158151
-0.0132786
-0.0119028
-0.0147226
-0.0141642
-0.0155208
-0.0131634
-0.0109316
-0.0144929
-0.0146782
-0.013284
-0.0141072
-0.0126034
-0.0160003
-0.0146954
-0.0106663
-0.0149779
-0.0156589
-0.0144042
-0.014504
-0.0127792
-0.0184267
-0.017004
-0.0166276
-0.0162072
-0.017473
-0.0173405
-0.0167833
-0.0165628
-0.0155422
-0.0143862
-0.0135498
-0.0135115
-0.014823
-0.014725
-0.0142291
-0.0140052
-0.0123091
-0.0108064
-0.00502827
-0.00789876
-0.0108381
-0.0102286
-0.00795859
-0.00699627
-0.0136444
-0.0122877
-0.00955177
-0.0108836
-0.0123502
-0.0118904
-0.0109633
-0.0105056
-0.016012
-0.0153105
-0.0150032
-0.0138747
-0.0153613
-0.0155641
-0.0147148
-0.01467
-0.0158475
-0.0135787
-0.0135202
-0.0150043
-0.015103
-0.0143826
-0.0150206
-0.0138158
-0.0136487
-0.0139219
-0.0128053
-0.00964648
-0.0133151
-0.0136143
-0.0117461
-0.0125955
-0.0130779
-0.00899594
-0.0124101
-0.0118229
-0.0120376
-0.0111937
-0.0122874
-0.0115826
-0.0102743
-0.0184663
-0.0188551
-0.0160949
-0.0144852
-0.016918
-0.0155582
-0.0179434
-0.0211831
-0.021589
-0.0217183
-0.0201302
-0.0217386
-0.0219198
-0.0209356
-0.0213392
-0.0221902
-0.0219018
-0.0224446
-0.0205983
-0.0216401
-0.0220122
-0.021213
-0.0217069
-0.0174764
-0.0183924
-0.0187335
-0.0171235
-0.0178675
-0.0185545
-0.0177016
-0.0180047
-0.0206252
-0.0199699
-0.0175766
-0.0195564
-0.0200259
-0.0197568
-0.0187658
-0.0190027
-0.0214445
-0.0201432
-0.0218565
-0.0213341
-0.0209243
-0.0212339
-0.0216217
-0.0214355
-0.0199176
-0.0178558
-0.0191888
-0.0193163
-0.0197474
-0.0188903
-0.0195743
-0.0191333
-0.0213789
-0.019861
-0.0196355
-0.0214149
-0.0209641
-0.0202118
-0.0208801
-0.0201761
-0.00312284
-0.00920045
-0.00619028
-0.00651823
-0.0059506
-0.0074696
-0.00541435
-0.00709244
-0.0123171
-0.0136424
-0.0127457
-0.0128803
-0.0133045
-0.0135551
-0.0129021
-0.013215
-0.00834458
-0.0115784
-0.0100325
-0.00995642
-0.00996478
-0.0107885
-0.00943646
-0.0103373
-0.0083336
-0.01176
-0.00997049
-0.010068
-0.00978177
-0.0104802
-0.0094693
-0.0102772
-0.010838
-0.0081555
-0.00829304
-0.0114761
-0.0106109
-0.00878099
-0.0112948
-0.00933284
-0.0117487
-0.0121982
-0.0123137
-0.00934529
-0.0112799
-0.0122546
-0.0104398
-0.0117877
-0.00763983
-0.00781287
-0.0112116
-0.00925651
-0.00834187
-0.00902578
-0.00961971
-0.0100329
-0.00896598
-0.0101698
-0.012013
-0.011922
-0.0105508
-0.0104122
-0.0112585
-0.0114533
-0.0222716
-0.0210718
-0.0201649
-0.0184241
-0.0212302
-0.0212319
-0.0199142
-0.0199724
-0.0200796
-0.0192362
-0.0181399
-0.016992
-0.0191203
-0.0191634
-0.0178885
-0.018039
-0.0182165
-0.0171857
-0.0166261
-0.0153271
-0.0171653
-0.0172175
-0.0162371
-0.0163084
-0.0150795
-0.0142441
-0.0135673
-0.011912
-0.0140339
-0.0142744
-0.013044
-0.0134223
-0.0199727
-0.0189892
-0.0176043
-0.0166179
-0.018835
-0.0187546
-0.0177451
-0.0177696
-0.0200185
-0.0167971
-0.0179839
-0.0190323
-0.0188917
-0.0178135
-0.0189913
-0.0179245
-0.0179618
-0.0163404
-0.0154978
-0.0148615
-0.0167658
-0.0165699
-0.0157888
-0.0154783
-0.0179961
-0.0150899
-0.0157898
-0.0169576
-0.0169932
-0.0159171
-0.0168379
-0.0158951
-0.00330126
-0.00313845
-0.00368925
-0.0144408
-0.00679881
-0.00339792
-0.00957565
-0.00664226
-0.00282806
-0.00224887
-0.00271308
-0.0108076
-0.00518553
-0.00253184
-0.00730027
-0.00477478
-0.0031388
-0.00290454
-0.00312591
-0.014926
-0.00583367
-0.00298443
-0.00797138
-0.00562684
-0.0202504
-0.0181789
-0.0207031
-0.0221981
-0.0206216
-0.0193568
-0.0217318
-0.0210654
-0.00578509
-0.00635058
-0.0162199
-0.0140308
-0.00803619
-0.00894518
-0.0126936
-0.013768
-0.00303139
-0.0116134
-0.00264986
-0.00327528
-0.00560492
-0.00783282
-0.00311148
-0.00531628
-0.00881345
-0.0179112
-0.0160552
-0.0181786
-0.0143505
-0.0163809
-0.0166976
-0.0180308
-0.00620738
-0.0172364
-0.0143456
-0.00484466
-0.00837293
-0.0142391
-0.0072458
-0.0130578
-0.0165237
-0.016924
-0.0180711
-0.0154721
-0.0162543
-0.0168247
-0.0162623
-0.0168297
-0.0179152
-0.0190654
-0.0196868
-0.0167294
-0.0177551
-0.0188052
-0.0176546
-0.0187381
-0.0197955
-0.0204993
-0.021673
-0.0190716
-0.0196472
-0.0204634
-0.0197125
-0.0204484
-0.0137444
-0.0143434
-0.0154811
-0.0121384
-0.0132576
-0.0142267
-0.0129957
-0.0139012
-0.0167606
-0.0178105
-0.0150229
-0.0156327
-0.0167006
-0.0166602
-0.0157965
-0.0157301
-0.0176585
-0.0165779
-0.0196106
-0.0186416
-0.0175698
-0.0174934
-0.0186789
-0.0185957
-0.0177914
-0.0149156
-0.0154091
-0.0163743
-0.0166079
-0.015639
-0.0164913
-0.0153348
-0.0186261
-0.0171999
-0.01644
-0.0196203
-0.0184582
-0.0174056
-0.0185563
-0.0174309
-0.00438074
-0.0126699
-0.0041334
-0.010428
-0.00840245
-0.00913867
-0.00749631
-0.00828238
-0.0164102
-0.0177235
-0.0164988
-0.0191164
-0.0176897
-0.0177273
-0.0177198
-0.0178224
-0.00412757
-0.012408
-0.00439337
-0.0110827
-0.0082129
-0.00905888
-0.00713444
-0.00824661
-0.0179959
-0.0217101
-0.0194588
-0.02619
-0.0226658
-0.0216689
-0.0226212
-0.0225559
-0.0150388
-0.00800769
-0.0154777
-0.0194621
-0.015023
-0.0110545
-0.0171657
-0.0157789
-0.0152035
-0.0192859
-0.0151953
-0.00915714
-0.0151052
-0.0166797
-0.0127359
-0.0150572
-0.00681247
-0.0149607
-0.0194474
-0.0144769
-0.0108193
-0.0154899
-0.0157338
-0.0176189
-0.00823015
-0.0152976
-0.0196494
-0.0151269
-0.0108346
-0.0152815
-0.0150118
-0.0175178
-0.016584
-0.0150093
-0.0136435
-0.0143579
-0.0158342
-0.0154855
-0.0148573
-0.0140672
-0.010785
-0.00360346
-0.00327766
-0.00684924
-0.00812852
-0.00573461
-0.00727331
-0.00423576
-0.00891424
-0.00293852
-0.00265586
-0.00518825
-0.00609999
-0.00432006
-0.00547772
-0.00329347
-0.012147
-0.0082197
-0.0075149
-0.00961824
-0.0108577
-0.00929201
-0.00993724
-0.00812616
-0.0131321
-0.011867
-0.0135003
-0.0100312
-0.0120942
-0.0127358
-0.011535
-0.0123472
-0.0121839
-0.00788923
-0.00479907
-0.0107059
-0.0102815
-0.00845075
-0.00968725
-0.00712438
-0.0110563
-0.0124739
-0.00868594
-0.007997
-0.0105482
-0.0110563
-0.00874771
-0.0096373
-0.00949815
-0.00589107
-0.00659835
-0.00366696
-0.00726537
-0.00699423
-0.00610828
-0.00581477
-0.00548093
-0.0126643
-0.0134335
-0.0122155
-0.00941323
-0.010863
-0.0113212
-0.0130875
-0.0216705
-0.0288743
-0.0225182
-0.027807
-0.024629
-0.0243446
-0.0242626
-0.0256496
-0.0170516
-0.0197883
-0.0181186
-0.0198802
-0.0190656
-0.0185587
-0.0191106
-0.0188555
-0.0212549
-0.0279159
-0.0226406
-0.028735
-0.0256915
-0.0242606
-0.0249285
-0.0255309
-0.0171762
-0.016724
-0.0182045
-0.0249281
-0.0184835
-0.0169873
-0.0205716
-0.0182371
-0.018328
-0.0240201
-0.0206476
-0.0169337
-0.0198986
-0.0216267
-0.0187334
-0.0210857
-0.0172415
-0.0191432
-0.0246315
-0.021545
-0.0184377
-0.0197159
-0.0217723
-0.0218904
-0.0176804
-0.0212417
-0.0252741
-0.02095
-0.0198046
-0.0208033
-0.0210343
-0.0221616
-0.00516437
-0.0174891
-0.00381475
-0.0121288
-0.0106117
-0.0115205
-0.00830889
-0.00919321
-0.0220786
-0.0231161
-0.0186024
-0.0248964
-0.0234585
-0.022723
-0.0227607
-0.0222918
-0.00361221
-0.0112173
-0.0029503
-0.00870887
-0.00694281
-0.00758876
-0.00530384
-0.00641344
-0.0196869
-0.0264625
-0.0168567
-0.0298352
-0.0244966
-0.023565
-0.0237916
-0.0234903
-0.0198657
-0.00842486
-0.017532
-0.0238661
-0.0189192
-0.0129807
-0.0226027
-0.0175417
-0.0197612
-0.0232374
-0.0167342
-0.00920508
-0.0186785
-0.0206664
-0.0138309
-0.0168772
-0.00671888
-0.0160853
-0.0226131
-0.012537
-0.00965709
-0.0166299
-0.0143885
-0.0190965
-0.00792395
-0.0133046
-0.0222786
-0.0159368
-0.0113122
-0.0144503
-0.015638
-0.0187054
-0.0164497
-0.0137696
-0.0144418
-0.0142438
-0.0152494
-0.0144878
-0.0148339
-0.0141293
-0.00890576
-0.00298697
-0.00581379
-0.00560112
-0.00653418
-0.005269
-0.00639398
-0.00517745
-0.0122683
-0.00797718
-0.0101012
-0.00976154
-0.0105542
-0.00972321
-0.0103583
-0.00945393
-0.0122367
-0.00785467
-0.00975863
-0.010016
-0.0108333
-0.00950799
-0.0105636
-0.00927598
-0.0116571
-0.0129015
-0.0131077
-0.0088833
-0.0114085
-0.0126395
-0.0107152
-0.0120323
-0.0107401
-0.00753931
-0.00744772
-0.0121249
-0.0104035
-0.00827011
-0.0109034
-0.00879476
-0.0125797
-0.0127294
-0.00861767
-0.0103341
-0.0119868
-0.0117146
-0.0105966
-0.0101418
-0.0118797
-0.00917996
-0.00720796
-0.00728315
-0.0100544
-0.00940658
-0.00852553
-0.00776023
-0.00620561
-0.014096
-0.0155037
-0.00972807
-0.00911996
-0.0132781
-0.0112823
-0.0128518
-0.0218377
-0.0267027
-0.0239725
-0.0179353
-0.02223
-0.0248601
-0.0205135
-0.023164
-0.019582
-0.0217305
-0.0199939
-0.0170278
-0.0191857
-0.0208094
-0.0183209
-0.0194177
-0.0106127
-0.0130671
-0.0139819
-0.0110588
-0.0111202
-0.0125659
-0.0117222
-0.0126756
-0.0159476
-0.0166576
-0.0107095
-0.0148662
-0.0150986
-0.0144928
-0.0133929
-0.0127678
-0.0205052
-0.0170177
-0.0224352
-0.0195914
-0.0191046
-0.0193153
-0.0209303
-0.0209543
-0.01698
-0.0117713
-0.0143117
-0.0153829
-0.0147234
-0.012902
-0.0151295
-0.013913
-0.0182972
-0.0161456
-0.0163345
-0.0211199
-0.0183453
-0.0165414
-0.0190574
-0.0173856
-0.00194977
-0.00236529
-0.00826578
-0.00217786
-0.00191546
-0.00353365
-0.00344353
-0.00490046
-0.00267786
-0.00263057
-0.0108339
-0.00273484
-0.00229925
-0.00433173
-0.004613
-0.00674207
-0.0136662
-0.015359
-0.0171317
-0.0158813
-0.0143771
-0.0159152
-0.015915
-0.0171166
-0.00264531
-0.00277879
-0.0107805
-0.00295717
-0.00238727
-0.00469557
-0.00452774
-0.00701061
-0.00218608
-0.00867283
-0.00224216
-0.00236306
-0.00395353
-0.00541867
-0.00254168
-0.0039625
-0.00388122
-0.00460225
-0.0117287
-0.0102411
-0.00571576
-0.00675717
-0.00921956
-0.00984716
-0.0102643
-0.00402092
-0.00463946
-0.012011
-0.00961956
-0.00561977
-0.00988505
-0.00669694
-0.0116095
-0.0136038
-0.00707708
-0.0136148
-0.0127581
-0.0119312
-0.0117416
-0.0108383
-0.00841661
-0.0192362
-0.0196766
-0.0171088
-0.0126186
-0.0181436
-0.0167345
-0.0194528
-0.0228649
-0.0229841
-0.0226126
-0.0241603
-0.0225373
-0.0228473
-0.0231856
-0.0232907
-0.0230598
-0.0225334
-0.0226387
-0.0245568
-0.0229405
-0.0227678
-0.0236949
-0.0231512
-0.0261926
-0.0267594
-0.0277696
-0.0319895
-0.0252261
-0.027362
-0.0302264
-0.028812
-0.0204012
-0.0212353
-0.0193419
-0.0239014
-0.0230381
-0.0213554
-0.0247205
-0.0237898
-0.0225333
-0.024269
-0.0226181
-0.0229169
-0.0234111
-0.0231539
-0.0227969
-0.0227955
-0.0233676
-0.0245032
-0.0251518
-0.0261257
-0.0245996
-0.0253079
-0.0247923
-0.0252846
-0.0237803
-0.0257724
-0.0251068
-0.0230528
-0.0233669
-0.0248376
-0.0232611
-0.0241553
-0.00517603
-0.0168803
-0.00523949
-0.0145712
-0.0115875
-0.0124343
-0.0100674
-0.0112064
-0.0219519
-0.02336
-0.0225604
-0.0249047
-0.0232218
-0.0231242
-0.0235685
-0.0231982
-0.00454373
-0.0176423
-0.00537506
-0.0129416
-0.0101731
-0.0112388
-0.00890495
-0.0101926
-0.0238192
-0.027518
-0.0228947
-0.0316877
-0.0290477
-0.0277382
-0.0291106
-0.0278798
-0.020519
-0.0108353
-0.0206612
-0.0254703
-0.020197
-0.0151054
-0.0231752
-0.0206153
-0.0205661
-0.0250664
-0.0207804
-0.0119039
-0.0202627
-0.0226491
-0.0171153
-0.020255
-0.0092644
-0.019667
-0.0254297
-0.0186887
-0.0135817
-0.0200366
-0.0196986
-0.0228939
-0.0105464
-0.0191674
-0.025341
-0.0205996
-0.01458
-0.0198684
-0.0200443
-0.0230594
-0.00333254
-0.0111404
-0.00321538
-0.00631607
-0.00627338
-0.00731881
-0.00487666
-0.00576795
-0.0155275
-0.0170711
-0.0136197
-0.0146792
-0.015653
-0.0158931
-0.0143836
-0.0147572
-0.00272882
-0.00845759
-0.00254162
-0.00513074
-0.0048103
-0.00550247
-0.00394448
-0.00459604
-0.00837683
-0.0121774
-0.00759595
-0.00977734
-0.00982472
-0.0102936
-0.00881827
-0.00937622
-0.0129748
-0.00532257
-0.0085719
-0.0127174
-0.0112954
-0.00791627
-0.0119209
-0.0094006
-0.0134907
-0.0130492
-0.0115653
-0.00617349
-0.0119829
-0.0128579
-0.00958764
-0.0110569
-0.00423095
-0.00714317
-0.0115803
-0.00645786
-0.00573332
-0.00808225
-0.00741103
-0.00935314
-0.00507235
-0.00710627
-0.0120279
-0.0103558
-0.00701869
-0.0081552
-0.00970048
-0.0104892
-0.00376966
-0.00681355
-0.00956471
-0.00666511
-0.00490953
-0.00675386
-0.00649257
-0.00785459
-0.00870489
-0.00970162
-0.0116396
-0.00962138
-0.0088646
-0.00981726
-0.00966058
-0.0106447
-0.0127696
-0.0130603
-0.0139621
-0.0130802
-0.0128894
-0.013337
-0.0132809
-0.0136686
-0.00831534
-0.00962849
-0.0116232
-0.00976977
-0.00876682
-0.00971013
-0.00986481
-0.0106954
-0.00733845
-0.0101522
-0.00726002
-0.00866392
-0.00857555
-0.00874562
-0.00845302
-0.00847087
-0.00868455
-0.00957482
-0.0118944
-0.0111134
-0.00966981
-0.00993258
-0.0108737
-0.0110875
-0.0109996
-0.00837242
-0.00963999
-0.0117054
-0.0109147
-0.00963311
-0.0109891
-0.00989362
-0.0118002
-0.012419
-0.0105791
-0.0124174
-0.0119883
-0.0116573
-0.0116807
-0.0115006
-0.00758284
-0.0155569
-0.0186479
-0.0167686
-0.0123837
-0.0150258
-0.0157302
-0.0183497
-0.0236649
-0.0313896
-0.0253748
-0.0314263
-0.0309602
-0.029118
-0.0290292
-0.0283012
-0.0223231
-0.0236423
-0.0230112
-0.0250511
-0.0241468
-0.0235706
-0.0240074
-0.0233637
-0.0262611
-0.0332616
-0.0284953
-0.0344107
-0.0322914
-0.0307116
-0.031452
-0.0312124
-0.0212607
-0.0220696
-0.0223187
-0.0305565
-0.0226077
-0.0215041
-0.0246367
-0.0227548
-0.0220261
-0.0291929
-0.0253069
-0.0220751
-0.0240434
-0.0270599
-0.0226589
-0.0262277
-0.0227194
-0.0238114
-0.0300244
-0.0266288
-0.0246777
-0.0256011
-0.0272559
-0.0284983
-0.0228435
-0.0257838
-0.0297148
-0.0249154
-0.0250633
-0.0262814
-0.025594
-0.0271069
-0.00125994
-0.000860166
-0.00109678
-0.00427272
-0.00204121
-0.00148269
-0.00271786
-0.0023255
-0.00110604
-0.0013058
-0.00123441
-0.0052112
-0.00299326
-0.00235562
-0.00422444
-0.00334468
-0.00114655
-0.000885694
-0.00114222
-0.00390732
-0.00180403
-0.00134485
-0.00294093
-0.00246915
-0.00684304
-0.00737527
-0.00674525
-0.00869826
-0.00752549
-0.00685778
-0.00833608
-0.00790412
-0.0021852
-0.00178185
-0.00528876
-0.00627488
-0.00318908
-0.00260149
-0.00507547
-0.00493332
-0.0018486
-0.00521346
-0.00199416
-0.00155525
-0.00252569
-0.00276723
-0.00138104
-0.00178951
-0.00268352
-0.00565717
-0.00738362
-0.0064095
-0.0042162
-0.00500859
-0.00521121
-0.00573835
-0.00226995
-0.00579382
-0.00684205
-0.00270428
-0.00254978
-0.00459002
-0.00339249
-0.00496146
-0.00129514
-0.00132575
-0.000621672
-0.0080638
-0.00321195
-0.00166392
-0.00428178
-0.00267128
-0.0014269
-0.00147104
-0.00235067
-0.00822052
-0.00224895
-0.00109672
-0.00395062
-0.00226511
-0.000770953
-0.00226922
-0.00160467
-0.00559312
-0.00161787
-0.000913747
-0.00234552
-0.00205805
-0.0152501
-0.0174023
-0.0123021
-0.022249
-0.0174875
-0.0155664
-0.0177806
-0.0167533
-0.00229398
-0.00238414
-0.00976636
-0.00944343
-0.0044464
-0.00415491
-0.00841036
-0.008063
-0.00108132
-0.00686277
-0.000902457
-0.00121031
-0.00254478
-0.00395347
-0.00156666
-0.00134474
-0.00332904
-0.0114266
-0.0107428
-0.00866261
-0.00515696
-0.00943664
-0.0082837
-0.0108287
-0.00235069
-0.00780965
-0.00826654
-0.00204477
-0.00353585
-0.00628942
-0.00330257
-0.00825525
-0.00375679
-0.00310418
-0.0111274
-0.00660954
-0.00411029
-0.00497752
-0.00681977
-0.00792439
-0.00263483
-0.00221543
-0.00841987
-0.0051771
-0.00313376
-0.00389072
-0.00535974
-0.00611904
-0.01531
-0.0136095
-0.0169273
-0.0146024
-0.0149272
-0.0152057
-0.0153019
-0.0154866
-0.00827175
-0.00751144
-0.0122482
-0.00971911
-0.00837979
-0.00876434
-0.00987616
-0.0103553
-0.00363652
-0.0108971
-0.00671603
-0.0060996
-0.00595616
-0.00788197
-0.00574342
-0.00720004
-0.00434445
-0.00655391
-0.0101904
-0.0114997
-0.00691386
-0.00694284
-0.00937902
-0.00961315
-0.0122968
-0.00857799
-0.00781226
-0.0125678
-0.011657
-0.00929833
-0.0114942
-0.00925336
-0.0129474
-0.0129182
-0.00837861
-0.0115533
-0.0125343
-0.0118574
-0.0109529
-0.0104641
-0.00197655
-0.00848072
-0.00251381
-0.00532972
-0.00448496
-0.00478563
-0.00457251
-0.00472337
-0.0163199
-0.0252987
-0.0196297
-0.0165916
-0.0191898
-0.0221687
-0.0177881
-0.0206225
-0.00295675
-0.0106776
-0.00298639
-0.0075244
-0.00582178
-0.00685785
-0.00521671
-0.00573842
-0.00748038
-0.01172
-0.00920558
-0.00978816
-0.00919695
-0.0105055
-0.00872127
-0.0100238
-0.0107609
-0.00541383
-0.00724598
-0.0120552
-0.010387
-0.00658075
-0.0103284
-0.00797906
-0.011447
-0.0139139
-0.0138494
-0.00549474
-0.0110634
-0.0136912
-0.00890786
-0.0120431
-0.00491981
-0.00701554
-0.0113969
-0.00757994
-0.00631721
-0.00771311
-0.00806638
-0.00915028
-0.00528129
-0.00896789
-0.012857
-0.0124404
-0.00732602
-0.00952132
-0.0115836
-0.0114573
-0.00661157
-0.0191618
-0.0141957
-0.0151017
-0.0116639
-0.0146807
-0.0127611
-0.0156726
-0.0237238
-0.0229674
-0.0245763
-0.0250545
-0.0232535
-0.0231807
-0.0242911
-0.0238289
-0.0232047
-0.0275639
-0.0326996
-0.0310879
-0.0278581
-0.0295069
-0.0297997
-0.0315932
-0.0255948
-0.0288216
-0.0310259
-0.0334726
-0.0286392
-0.0301281
-0.0314613
-0.0321787
-0.0210943
-0.0203118
-0.0200314
-0.0260014
-0.0225221
-0.0209736
-0.0242373
-0.0231029
-0.0226767
-0.0262366
-0.0257356
-0.0218925
-0.0236222
-0.024734
-0.0241036
-0.0249019
-0.0211778
-0.0215923
-0.0272464
-0.0302258
-0.0241842
-0.0251592
-0.0283818
-0.0283625
-0.0234268
-0.0312369