/*--------------------------------*- C++ -*----------------------------------*\
| =========                 |                                                 |
| \\      /  F ield         | OpenFOAM: The Open Source CFD Toolbox           |
|  \\    /   O peration     | Version:  2506                                  |
|   \\  /    A nd           | Website:  www.openfoam.com                      |
|    \\/     M anipulation  |                                                 |
\*---------------------------------------------------------------------------*/
FoamFile
{
    version     2.0;
    format      ascii;
    arch        "LSB;label=32;scalar=64";
    class       surfaceScalarField;
    location    "2000";
    object      phi;
}
// * * * * * * * * * * * * * * * * * * * * * * * * * * * * * * * * * * * * * //

dimensions      [0 3 -1 0 0 0 0];

oriented        oriented;

internalField   nonuniform List<scalar> 
94240
(
-0.00107613
0.000533664
0.000543446
0.000306377
-0.00132097
0.00101549
0.00103788
-0.0013466
0.000309696
-0.000201574
-0.0010216
0.000479275
0.000743966
-0.0012667
-0.000701606
0.000892156
-0.000959333
-0.00159579
0.000692639
-0.00151724
-0.00144403
0.000201726
0.00124326
9.26245e-05
0.00154909
-0.00164072
0.00154771
0.000162978
-0.00170967
-0.000113389
0.000205357
0.00112236
-0.00121432
-0.00154395
-0.00140058
0.00150051
-0.00145033
-0.00191058
0.000396664
-0.0018132
-0.00154104
0.00129717
0.000244848
0.000253245
0.00153666
-0.00178893
0.00134523
0.000484701
-0.00182894
-5.06241e-05
0.000779111
0.000231004
-0.000959475
-0.00162663
-0.00125644
0.00134202
-0.0013724
-0.00179345
0.000486402
-0.00182062
-0.00028168
1.62277e-05
5.56099e-05
0.00020994
0.000277033
-7.34695e-05
0.000326584
-0.000530119
0.000359513
-8.56742e-05
0.000230314
-0.000504117
-0.000205573
0.000660724
2.20623e-06
-0.000457352
-0.000474406
-2.54174e-05
0.000218182
-0.00021356
1.62133e-05
-0.000642496
0.000411538
-0.000496543
-0.00106326
-0.00144489
0.00118716
0.00115363
-0.00149403
-0.00100618
-0.00128793
-0.000473291
0.000739677
0.0011186
-0.0013049
-0.000781743
0.000968077
0.00055041
0.000149559
-0.00176318
0.000186816
0.000371573
0.000896621
-0.000729528
-0.00124217
-0.000132815
-0.000966711
0.00165387
-0.00148989
-0.000241118
-0.00125191
-0.00170753
-0.00129779
-0.00144368
-0.00153792
-0.00132772
0.000178143
-0.00180122
0.000616891
-0.000632008
0.000174986
2.51343e-05
-0.000880278
0.000477663
-0.000697311
0.000134004
0.000766574
-0.00104439
0.000455975
-0.000594939
0.000553591
-0.00112028
-0.00175596
0.000856186
-0.000774376
-0.000835282
-0.0010117
0.00188391
-0.00183713
9.57254e-05
-0.000509654
-0.000168355
4.65407e-05
-0.000957088
-0.00119321
0.00145708
0.000269792
0.00197491
-0.00204731
0.000382062
-0.000882477
-0.000342147
0.00100294
0.000221572
4.66708e-05
-0.000967172
0.00139977
-0.00114418
0.000643563
0.000437289
0.000393402
-0.000706468
0.00139655
-0.00115168
-0.00264585
0.00239483
0.000495876
0.00277959
-0.00291443
0.000619535
-0.000281846
0.00122099
-0.00120033
0.000261206
0.000153137
0.00196098
-0.00188308
-0.00225671
9.72832e-05
-1.56713e-05
0.000538552
-0.001792
0.00204243
-0.00208951
0.000635928
-0.00100568
0.000301257
6.84032e-05
-4.25203e-06
-0.000267882
8.12379e-05
0.000190839
-0.000618835
0.000692193
3.68165e-05
-0.000110308
0.000145122
-0.000762876
0.000751235
-0.000133476
0.000654361
0.000723719
-0.000742231
0.000698495
-4.84276e-05
0.000700974
0.00016782
0.000780631
-0.000133897
0.000131409
5.81853e-05
0.000630018
3.11945e-05
-0.000430855
-0.000659701
0.00017322
0.000640729
-0.000154225
0.000176776
0.000540713
-5.6734e-05
-0.000195517
0.000473212
0.000433118
1.38548e-06
0.000669057
-1.90338e-05
0.000442478
0.00028861
-0.00171904
-0.000800014
-0.000374258
0.000832092
-0.00126808
0.000475901
0.0014579
-0.00157016
0.00024632
0.00182776
-0.000114072
-0.0014251
-0.000123931
0.00179981
0.00040779
0.000168914
0.000506871
0.000164036
0.000226786
0.000770341
0.000252807
0.000197882
-0.00116503
0.000648769
0.000141984
-0.00179704
0.000540877
0.00040943
-0.000877077
0.000252941
0.000302696
-0.00016741
0.000267022
0.000732385
8.54448e-05
0.000521792
0.000812782
-0.00053526
-0.000725687
0.000831209
6.76432e-05
-0.000685042
-5.24675e-06
0.000522792
-0.000191809
-0.000622358
-0.000108579
-8.9919e-05
-0.000499467
0.000567819
0.000290968
-0.000599381
0.000497725
-0.000512787
5.43846e-06
-0.000837586
-0.000602628
-3.71713e-05
-0.000348824
-0.000256868
0.000568188
0.000380791
0.000605615
-0.000398026
0.00054366
-0.000131745
-4.13847e-05
0.000254337
-0.000318038
-4.46149e-06
0.000161897
0.000160535
-0.00116474
0.000306128
0.000601689
0.000221478
-8.89714e-05
7.69705e-05
7.74493e-07
-0.000408197
0.000483707
0.000565228
0.000411477
0.000594632
-0.000465375
0.00018362
-0.000235138
-0.000379289
-0.000196786
0.000383232
-2.3722e-05
-0.000162753
-0.000934692
5.35715e-06
0.000521132
-8.07326e-05
-0.000345736
0.000154334
-0.000242861
-0.000707097
-2.38654e-05
-0.000469358
-0.000700331
9.44137e-05
-0.00127715
7.24371e-07
-0.00069784
-0.00221731
0.00140043
-5.5443e-05
-0.000446148
-0.000898837
0.000554702
-0.00124485
-1.69594e-05
-0.00223514
0.000545304
-0.000389721
-0.00168912
8.53143e-05
-0.000267587
6.0953e-05
0.00012126
-0.000206698
-0.000142349
0.00021713
0.00013194
7.31852e-05
0.000262024
-0.00039564
6.04656e-05
-2.44471e-06
0.000255886
-0.000246713
-6.67061e-06
-8.91962e-05
-1.10019e-05
0.000185591
-0.000176818
-0.000119075
0.000152852
-0.000166229
4.92519e-05
0.000150648
-0.00108022
0.000531601
9.70442e-05
-5.25429e-05
-8.58622e-05
-0.00039021
0.000268182
0.000117533
0.000152631
-0.00031368
0.000308575
-0.000147558
0.000196216
0.000323449
-0.000368973
0.000294018
0.000344835
0.000131259
0.000248605
-2.86904e-05
-0.000160892
0.0002305
1.08824e-05
-0.000845311
0.000270927
-0.000836239
-0.000181844
-0.000215804
-0.000188358
-0.000293687
-0.000471099
-6.37105e-05
0.000309373
-0.000331552
-0.000236769
0.000237299
-0.000232852
0.000399099
0.000391902
0.000148873
-0.0002788
3.0154e-05
-4.22082e-05
-5.17855e-05
4.19818e-05
0.000309945
3.97172e-05
-0.000550737
0.000920831
-0.000827405
0.000691368
-6.17433e-05
-0.000183811
-0.000567033
-0.000957881
0.000390209
2.67734e-06
-0.000264678
0.000429373
-0.000188023
0.00365034
-0.000211727
-0.00325055
0.00207024
-0.00028289
-8.49764e-05
-0.00170238
-5.54379e-05
9.99545e-07
0.00174519
-0.00169071
-0.00168636
7.58277e-05
0.00169328
-8.27568e-05
-0.00237499
0.00216453
2.24372e-05
0.00240648
-0.00271122
-0.00223428
0.00271245
0.00011677
-0.0002089
0.000447074
0.00014197
-0.000380143
1.42185e-05
-0.00040387
0.000297278
9.23652e-05
6.8463e-05
-0.000382484
-0.000288517
0.00060248
0.000429471
-0.000304147
-5.55526e-05
-6.97828e-05
4.43717e-05
-0.000327623
7.4342e-05
-0.000360679
0.000419233
0.000123249
-2.1425e-05
-0.000168982
-0.000296751
0.00024218
-2.9405e-05
8.33455e-05
0.000184253
-6.05578e-05
0.000147041
-0.000270666
-0.000402427
0.000531039
0.000413489
-0.000542039
0.000248616
0.000131613
-0.000321494
-5.85407e-05
-6.52403e-05
-0.000336082
0.000104653
0.00110164
-0.000982607
-0.000132403
4.51586e-05
0.000566825
0.000124131
-0.000113341
5.89156e-05
-6.9834e-05
6.78455e-06
0.000143689
-0.000189268
3.88355e-05
6.09746e-05
0.000667767
-0.000253807
-0.000474914
0.000183642
-9.98442e-06
-0.000333955
0.000160322
0.000106676
-0.000198355
0.000215832
-0.000320584
0.000434099
0.00022669
-0.00024133
-3.29036e-05
0.000105012
-0.000506705
0.000118838
0.000314235
-0.000351257
3.79157e-05
-0.000892382
0.000685388
0.000282781
0.000132953
0.000211534
-0.000538737
0.000194236
0.000606888
0.000200021
-0.000701885
0.00103789
0.000242174
9.07824e-05
0.000387689
0.0008146
-0.000874222
-0.000170791
7.82005e-05
-0.000380246
-0.000785412
0.000783189
0.000136385
-0.000681736
0.000194092
0.00028875
-0.00017601
9.65462e-05
-0.000375464
0.000335929
-0.000659142
-0.000624302
6.77823e-05
0.000594357
-0.000357804
0.000929853
-0.000383651
-1.13496e-05
0.000656616
0.000249695
-0.000238451
-0.000194834
-0.000237687
-0.000191746
-0.000164926
0.000114478
0.000304505
-0.000371753
0.000657596
-0.000276249
8.41694e-05
-1.73466e-05
-0.000404228
-0.000441715
-0.000629945
0.000362897
0.000332157
-0.00070047
-0.000284154
-0.000972148
0.000163612
-1.32959e-05
0.000821845
5.29813e-05
-0.00115168
0.000129543
0.000969183
2.17568e-05
-0.00108768
0.00034732
0.000718605
0.000840533
-0.000880122
0.000193212
-0.000153607
-0.000135135
-0.000819106
-1.79042e-05
-0.000962739
0.000880579
-0.000147869
0.00016929
-0.00108885
-0.001031
-0.000239268
0.000328084
0.000942197
-0.000481977
0.000542964
-0.00104327
0.000982332
0.000524459
-0.000273209
-0.00115054
0.000899298
0.000960984
-7.85603e-05
0.000149184
-0.00103157
-4.71332e-05
-0.00122316
0.000239297
-0.00140078
0.000871675
-9.94593e-05
-0.000162718
-0.000975779
-0.00106444
0.000251258
0.000155318
0.000657908
-0.000200781
0.000558391
-0.00110619
0.000748586
0.000608318
-0.000175374
-0.00114241
0.000709405
0.000668195
0.000109355
0.000133528
-0.000911073
-0.000390091
-0.000909415
0.000235071
-0.00132381
0.000732934
-0.000302829
6.16001e-05
-0.00101831
-0.000797664
0.000863886
0.000109235
-0.000175412
3.23603e-05
0.00107707
-7.72526e-05
-0.00103213
-0.000106832
0.000819157
0.000147553
-0.000859883
0.000913593
-8.36515e-05
-0.000101388
-0.000728512
5.95204e-05
-0.000793616
-6.35453e-05
-0.000926293
0.00101817
9.09641e-05
2.90121e-05
-0.000942164
-0.00108227
-0.000125272
5.58651e-05
-5.00269e-06
-0.00030362
-0.000779052
-3.31841e-05
-0.000776929
-6.99933e-05
0.0011094
-4.49758e-05
-0.00103855
-2.58527e-05
0.000124207
-0.00101596
-0.000190522
-0.000969646
0.000112623
-1.91726e-05
-0.000890205
-0.00110688
0.000742336
0.000949039
-0.00107258
0.000271475
-0.00129027
0.000745583
-3.21027e-05
-0.000910484
0.000638977
-0.00101526
-0.000282139
-0.00022894
-0.000975268
0.000661027
-0.000932734
-0.0008376
-0.000353998
0.000412557
-2.7369e-07
8.72466e-05
9.70131e-05
-5.84829e-05
0.000734886
-0.000197241
0.000281525
-0.00011924
-0.00111713
0.000398779
-0.00100971
-0.000105473
-0.000276772
-0.00101322
0.000855204
-0.00094311
-0.000109014
-0.00102204
0.000300717
-0.00103259
-0.00072879
-4.93649e-05
-0.00015035
-0.000681378
-0.000940762
-0.000134133
0.000130161
3.20804e-05
-2.81162e-05
-0.000169666
-0.000272517
0.000315535
0.000126678
0.000324903
-0.000317033
0.000154342
-0.000162195
2.1931e-05
-2.67544e-05
7.07849e-05
-6.63578e-05
-0.000159499
-0.00018722
0.000212512
-0.000455209
0.000126052
-0.000107985
-5.73124e-05
-0.000238284
-0.0003191
-0.0002334
0.000392596
0.000159937
-0.000133499
0.000101843
8.61983e-05
-5.45577e-05
0.00020403
-0.000185308
-0.000180992
0.000162235
0.000205016
-0.000364076
-0.000390111
0.000549149
-4.42965e-05
-0.000596079
0.000321217
-0.000282856
0.000105026
-9.4262e-05
-0.00029681
-0.000173104
-0.000409094
0.000321858
0.00022398
-0.00013673
-0.000137961
0.000267795
-0.000253377
0.000123541
0.000268075
-0.000287432
0.000155392
-0.000136036
0.000291932
0.000416235
-0.000453491
-0.000254684
-0.000132131
-0.000648943
0.000371985
-0.000453128
0.000183032
-0.000172295
-0.000184717
-0.000357347
-0.000203182
3.8157e-05
0.000213246
-4.83653e-05
-0.000163358
0.000119616
-0.000153876
0.000197822
0.000250126
6.98458e-05
-0.000194149
-0.000125744
0.000144054
-0.000349622
8.64099e-05
0.000119125
-0.000144637
-0.000281456
0.000222981
-0.000418038
0.000110134
-0.000120894
-1.64887e-05
-0.000288782
-0.000418545
-0.000181061
0.00032706
0.000298815
-0.000170638
-0.000445169
-3.90715e-05
-0.000133675
0.000145867
0.000217657
-0.000165292
-0.000417059
0.000364807
-0.000180316
-0.000107058
-0.000131176
-0.000119772
-0.000217655
0.000328281
-0.000376416
-0.000569646
0.000155168
0.000204784
-0.000734169
0.000120517
-0.000467443
0.000161596
0.000178093
-0.000533935
0.000185214
-0.000347227
-0.000353635
-0.000439269
-0.000359161
0.000183595
-0.000677917
-0.000122505
-0.000145592
-0.000177034
-3.76843e-05
-5.78203e-05
-0.000214278
-8.31458e-05
0.000336071
-7.77294e-05
-0.000188416
0.00022773
-0.000180205
-0.000169884
-0.000186295
0.000290439
-0.000134498
-0.000357663
0.000703887
-0.000365362
-0.000509136
-0.000308172
0.0001502
-0.000349852
-0.000259102
0.00027343
0.000310285
-0.000254291
-0.000453145
-2.9742e-05
-4.87256e-05
-0.000208972
4.65826e-06
4.57941e-06
-0.000462746
-0.000242428
4.77082e-05
-5.86444e-05
0.000303198
6.35533e-05
-5.48598e-05
-0.000311896
0.000309247
-6.38226e-05
-0.000275167
-4.34413e-05
0.000322226
-8.28436e-05
3.63527e-05
-4.10535e-05
1.31009e-05
-0.000166176
-0.00011469
0.000296129
-2.1434e-05
1.46513e-05
-0.000141306
3.62882e-05
-0.000216348
1.43259e-05
8.55307e-05
-0.000140765
-0.000389122
-0.000156269
0.000100541
8.1217e-05
-0.000264978
2.78771e-06
-5.8957e-05
-0.000619679
-0.000303762
1.73274e-06
0.000210847
-0.000228871
-3.75514e-05
0.000389773
2.08065e-05
-0.000329413
0.000157697
0.000315046
-8.34095e-05
0.000108175
0.000229407
-1.95549e-05
-0.000318017
-5.44542e-05
0.000533279
-0.000732637
-0.000332945
0.000166223
-2.25347e-05
0.000247633
3.53653e-05
-0.000292953
0.000566889
6.41643e-05
-0.000522865
0.000114534
0.000397916
0.000251314
6.05196e-05
3.13634e-05
0.000441989
-0.000468786
-0.000411448
0.000450693
8.45553e-06
0.000503757
-1.40353e-07
-0.000440058
-0.000120482
0.000530178
0.000186168
-0.000595885
-3.8287e-05
-0.000528916
0.000598538
-0.000413379
-3.81937e-05
-0.000611208
5.21849e-05
8.9725e-05
0.000336549
0.000229936
-0.000524059
0.000230514
4.01205e-05
6.07167e-05
0.000111489
0.000576782
0.000548571
0.000163745
0.000188234
-0.000154623
0.000219859
-5.67787e-05
0.000303912
-7.46329e-05
-5.88393e-05
0.00077829
-0.000138091
0.000293329
1.0946e-05
-0.000211364
0.000116026
-5.93074e-05
0.000144731
-0.000483808
0.000461723
1.55367e-05
4.70747e-05
0.000731973
-0.000830899
-0.000432588
0.000118655
7.62027e-05
-0.000524022
-0.000569636
0.000673404
5.98536e-05
0.000716835
-0.000485313
-3.82957e-05
0.000211925
-0.000701609
0.000836993
-0.000322981
-0.000160762
0.000489398
-5.62586e-06
-0.000744323
0.000163245
1.14494e-05
0.000141794
-0.00089005
0.000730314
-0.000536332
-0.000429588
0.000607382
-6.85251e-05
0.000505097
5.89927e-06
-1.05353e-05
0.000723327
-8.92789e-05
0.000240994
-0.000175446
-0.000524289
0.000108998
-1.42907e-05
9.82011e-06
-0.000520416
0.000540135
-0.000512621
0.000155498
0.000512501
0.000638971
3.82211e-05
0.000143843
0.000248936
-0.00035757
0.00018117
0.000338287
-0.00075191
0.000133848
0.000105444
-5.13529e-05
-0.000694179
0.000470437
-5.92883e-05
-0.000193002
0.000170224
8.21109e-05
-4.66994e-05
0.000111743
0.000152121
0.00015899
-0.0004544
0.000356363
0.000101472
5.76243e-06
0.000148681
2.51164e-05
-0.000224514
0.00014019
-4.7564e-05
2.60478e-05
-0.000297017
0.000173976
8.89304e-05
-0.000558703
-1.55132e-05
8.67901e-05
-0.00107342
0.000285047
-0.000233457
0.0001112
-3.84624e-05
0.000147236
-4.5514e-05
-0.000112788
1.10735e-05
0.000627393
0.000105374
-0.000643817
0.000177859
0.000319907
-6.72773e-05
0.00026431
0.000135925
-9.32325e-05
0.000288696
0.000873298
0.000131579
-0.00095777
0.000296948
-0.000476608
-3.12803e-05
-2.97015e-05
-0.000590264
0.000253355
0.000500569
-0.000906925
0.00069143
-0.000516349
0.000434552
2.71785e-05
-2.82274e-05
-0.000319792
-0.000543543
0.000408944
0.000176611
-0.000263207
0.000587167
-7.54186e-05
2.21923e-05
-0.000605174
-0.000454466
-0.000244818
0.000112921
0.000701416
0.000464209
-0.000813204
-0.000385769
0.00014159
-0.000129083
-9.30902e-05
0.000180231
4.18092e-05
2.23167e-05
-0.000244652
-5.18289e-05
0.000274231
8.9653e-05
-0.000139274
2.51758e-05
2.44558e-05
-0.000149637
-0.00026266
0.000337032
7.55998e-05
2.95371e-05
5.41148e-06
-0.000164059
-9.87657e-05
0.000150614
-0.00018468
4.04874e-05
-0.000193783
-0.000336384
7.06068e-05
8.6279e-05
0.000179434
7.12841e-05
0.000155645
-0.000140687
6.10343e-05
0.000158576
0.000173
0.000111676
0.000145446
0.000291999
-0.000211329
-0.000196808
7.17274e-05
-0.000171761
3.17064e-05
-0.00021049
0.000125356
-0.000186977
0.000120999
1.84603e-05
4.76051e-05
0.000137517
9.57502e-05
8.22926e-05
6.89137e-05
2.95126e-05
3.17554e-05
-2.87174e-05
0.000122955
-2.3504e-05
-0.000205211
-0.000100307
0.000118612
-0.000105235
3.7563e-05
-0.00017619
4.71981e-05
-0.000148073
-0.000110498
0.000335974
-7.72849e-05
1.5037e-05
-1.66793e-05
0.000199608
0.000254104
-4.92087e-05
8.29117e-06
3.84951e-06
-0.000120793
0.0002036
-0.000336966
-0.00024752
0.000436569
-0.000216255
-0.000105635
-0.00026083
1.72856e-05
-0.00016281
-0.000179583
9.77983e-05
0.000101307
-0.00015565
-8.48306e-05
-0.000289124
-9.98821e-05
0.000126574
0.000318138
-0.000306987
-0.000214881
0.000203728
0.000111578
-6.98245e-05
-0.000204524
1.91661e-05
9.27112e-05
0.000155618
-0.000177235
-0.000211269
0.000102282
9.24247e-05
-0.000253953
0.000202186
-0.000168775
0.000125151
-9.7014e-05
-0.000105004
4.65371e-05
-0.000324223
-9.15801e-05
-0.000106445
-0.000248664
6.0056e-05
-0.000152923
3.12411e-05
-0.000257293
0.000141276
-0.000239933
2.96218e-05
0.000100866
-0.000332327
0.000133445
-0.000117777
-6.48846e-05
0.000191836
-0.000139869
-2.0645e-05
-0.000225287
0.000230056
-0.000236398
-0.000241275
0.000151054
-0.000221455
0.000254036
6.19158e-06
-0.000128826
-7.91339e-05
-2.76927e-05
0.00257645
-0.00260751
-0.00129289
0.00132394
-0.00122543
0.00199567
-0.00167807
0.000907824
-0.00217953
0.00216621
-0.00111944
0.00113276
0.000676554
0.000990126
-0.00124206
-0.000424652
0.00357802
0.00117201
-0.00217361
0.0012491
0.00110348
0.00290221
-0.00105365
0.00197177
0.00136693
-0.00105207
-0.000750423
0.000435553
-0.000560795
-0.000248752
0.000945697
-0.00013618
-0.000712711
-0.000652018
0.00118885
0.000175794
2.34667e-05
0.000107698
-0.000226175
9.50415e-05
0.00147619
0.000565272
-0.000674535
0.000734931
0.00018045
0.000830994
-0.000242251
0.000853241
0.00206274
-0.00206833
-0.000965999
0.000971584
-0.000653354
-0.000892549
0.00114809
0.000397734
-0.00173744
0.0018852
-0.000843122
0.000695334
0.000472906
-0.00079341
0.000730604
-0.000410099
0.00245149
0.00102882
-0.00141759
0.00108585
0.000712292
0.00231314
-0.000811407
0.00166155
-0.000148489
0.000150631
0.000119589
-0.000121836
0.000153663
3.69515e-05
0.000272971
-0.000463554
0.000144917
0.000109773
-0.000104773
-0.000149953
-0.000125358
0.000223097
-0.000228312
0.000130609
-0.000294078
-9.46042e-05
0.000240209
-0.000154937
1.45458e-05
-0.000274398
5.4457e-05
-0.000284373
0.00051141
0.00241671
-0.000932435
-0.00182226
0.00289115
0.00109732
0.00121042
0.000438923
-0.000659258
0.000238154
-7.58019e-05
-0.000164874
2.47253e-06
-0.00057186
-0.000355634
0.0014389
-0.000422356
-0.000172453
5.49473e-05
0.000615605
0.000704468
0.000660185
0.000130215
-9.81681e-05
-0.00182539
0.000732105
0.00044121
0.000877289
0.00111241
0.000901466
0.000785807
0.00135759
0.000673763
0.00158868
0.000646194
0.000437054
-0.000537348
0.00251248
-0.000877811
0.000919175
-0.000329626
-3.62722e-05
-9.16024e-05
-0.000617731
0.00104569
-0.000318157
-0.000924163
0.000705465
-0.000318651
0.000610619
-0.000588892
0.00067665
0.00155655
-0.000348477
0.000600766
7.82553e-05
-0.00026791
-0.00104161
0.000881162
-0.000257747
0.00039672
7.04514e-05
-0.000207816
-5.89918e-05
-0.000412282
3.0529e-05
4.25337e-05
-0.000220638
-6.26259e-06
2.06801e-05
-0.000448202
0.000330185
-0.000446901
-3.68872e-05
-5.6558e-05
-0.000348581
-7.13867e-06
-0.000458336
-3.63007e-05
-0.000473958
-4.64302e-05
-2.64016e-05
-2.77166e-05
-7.66215e-05
-0.000269638
-5.53428e-05
0.000116032
-0.000237965
-0.000519429
-7.42773e-05
0.000104503
-7.83777e-05
4.81546e-05
-5.6783e-05
0.000145719
-0.000135357
-0.00062092
9.20351e-05
-2.06005e-05
-0.000412853
-0.000459678
0.000125656
-0.000396817
0.000178875
-0.000545045
0.00027424
-0.000529426
0.000611703
3.02959e-05
-0.000492803
0.000160154
-0.000704739
8.49149e-05
-0.000932009
0.000146261
-0.000511513
-0.000425211
0.000317343
-6.75319e-05
0.000182413
0.000292714
-0.000344292
-0.000130821
-0.000108953
0.00054866
-0.000516944
0.000275278
-0.000307931
-6.87107e-05
-9.89233e-05
-0.000244736
-8.14996e-05
-0.000414473
0.000497986
-3.29924e-05
-0.000556424
-0.000179437
1.50562e-07
-4.13798e-05
-2.55562e-05
7.95122e-05
-0.000502141
-0.000104069
-0.00030361
-3.91944e-05
0.000347248
-8.86538e-05
-0.000189434
-6.91467e-05
4.74508e-05
-0.000250064
2.31721e-05
-0.000452059
0.000141546
-4.43531e-05
-0.000414567
-0.000578597
0.000478978
-0.000463134
-0.000100688
-0.000803975
0.000192733
-0.000742666
-0.000490641
-6.47876e-05
-3.22627e-05
-0.000500295
-0.000633244
-0.000532224
8.59517e-05
-5.62556e-05
9.54189e-05
7.86693e-06
0.000465726
5.70954e-05
-6.07725e-05
-0.000490617
-0.000531593
-6.18124e-05
3.69271e-05
-0.000531056
0.000611417
-0.000524024
4.28653e-05
-0.000498133
-0.000110711
-0.00051439
-0.000608042
0.000161902
4.03061e-05
-0.000582053
-0.000498885
-0.000109881
-0.000856233
0.000733725
0.000232437
0.000663079
-9.37042e-05
-0.000474328
-9.50437e-05
-0.000615176
-7.08847e-06
0.000653257
-3.10048e-05
-1.37653e-05
0.000373912
-0.000736606
0.000376471
-0.000145937
0.000643215
-0.000607143
0.000584215
-6.70649e-05
1.75333e-05
0.000611934
-1.34345e-05
-0.000356037
0.000604061
-2.35507e-05
-0.000224474
0.000547815
-0.000557703
0.000141027
-0.000131152
0.000178354
0.000291612
-0.000300094
-0.000169941
-0.000308245
7.28595e-05
0.000121204
0.000114224
-0.000679388
0.000251788
7.15236e-05
8.09258e-05
-0.000212524
-0.00035814
0.000301636
-9.88545e-05
-0.000192767
-0.000158148
0.000397947
-4.70747e-05
-5.71036e-05
0.000110749
-6.42197e-05
1.03623e-05
0.0005327
1.1241e-05
-0.00018335
-0.000360615
-0.000510089
9.12284e-05
0.000226628
0.000192211
-0.000322028
9.88378e-05
3.02596e-05
-0.000314194
-6.49549e-05
-0.000545829
0.000134538
-0.000327344
0.000487576
-2.53569e-05
-0.000512642
5.04706e-05
4.35172e-05
-0.000153063
0.000716047
-0.00060647
-0.000418456
-0.000302838
0.000648029
7.32999e-05
-0.000101552
0.000374741
-0.000259073
-1.40471e-05
0.000398599
0.000521062
-0.000432071
0.000614658
-0.000172533
0.000403097
1.64361e-05
0.000599305
0.00043337
-0.000489547
-3.75165e-05
-0.00022573
-0.000259723
0.000478345
0.000276543
0.000795886
-0.000698501
-0.000409327
0.000112866
0.00063908
-0.000342567
0.000452288
0.000263441
-0.000282341
0.000213125
0.000216011
-0.000361876
0.000705684
0.00028992
-0.0001754
-0.000265064
0.000450805
0.000387253
6.73421e-05
-0.000163015
-0.000399177
0.000260496
-0.000121035
-9.6153e-05
0.000103782
-5.95728e-05
-0.000168234
-0.000127146
0.000159429
0.000160427
-0.000135682
0.000453596
0.000467785
0.000302757
0.000152969
0.000333066
-0.000717993
8.62601e-05
0.000328903
-0.000608613
0.000431468
0.000337585
0.000564862
-0.000545297
0.000258787
-3.34297e-05
-0.000341667
0.00051916
0.000280757
0.000503114
8.07358e-05
9.72243e-05
2.43975e-05
-2.75973e-05
-5.84863e-05
0.000212565
0.000434832
-0.000287583
0.000102008
-0.00526527
0.00545096
0.000193826
-0.000382975
-0.00191399
0.00210301
0.00107041
-0.00100911
0.00138574
-0.00144729
7.61274e-05
-0.00142077
0.00021337
0.00113152
-0.00371367
-0.000270505
0.00369636
0.000518296
-0.00403828
-0.00107144
0.000877578
0.000517238
-0.000212493
0.000707451
-0.000972317
0.000477364
0.000312992
-4.21083e-05
-0.00011523
-0.000337037
0.000292184
0.000131029
0.000431873
0.000393987
-0.000533928
-0.000194801
-0.000126938
0.000109099
0.000505732
-0.000387558
-0.000240423
0.000545331
0.000106921
0.000464742
-0.000118624
-0.000453034
-2.53009e-05
-0.000197821
0.000171429
-0.000247273
-4.74721e-05
0.000201567
6.51238e-05
-0.000138627
0.000410867
4.07107e-05
0.000173605
-0.000107305
0.000264814
-0.000249442
0.000146518
9.22865e-05
3.88235e-06
-0.000283025
0.000217035
6.25564e-05
0.00029663
-0.000100319
3.28898e-06
7.0759e-05
-0.000136979
0.000402262
-0.000317078
0.000275635
-7.94331e-05
-0.000190593
0.000390957
-0.000196142
-0.000220462
0.00032656
-0.000286866
0.000360751
-0.000149128
-0.000924893
0.000691238
-3.25765e-05
-0.00171852
0.000741843
-0.00118269
5.08825e-05
-0.000288704
0.000938954
-0.000449732
-0.000145357
-0.000343928
0.000869175
-0.000888522
-0.000129838
0.00135384
0.000970172
-0.000919716
0.00114132
0.000645054
-0.000862543
-0.000392067
0.000336287
-3.8916e-05
0.00023639
9.47367e-05
-0.000322008
-0.000289218
-0.00110739
0.000232084
0.000283083
0.000385359
0.000209041
-0.000247982
0.000555483
0.000472343
-0.00063252
0.000902073
-0.0011052
0.000872946
0.000105772
-0.000351579
-0.000283808
-0.000110494
0.000257373
-0.000602298
6.87177e-05
0.00100585
-0.000566198
0.000133866
-0.000349013
-0.000457006
-0.000122545
0.000188421
0.000136366
-5.97657e-05
-0.000504545
-0.000531339
0.0001873
0.000168999
0.00114872
-0.00392524
0.00168099
1.67777e-05
0.000530402
-0.0022282
-0.00238904
0.000199742
0.000511222
0.000448844
0.000151643
-0.00184256
0.00101737
0.00245092
-0.0032993
0.00191048
0.000787872
0.000726148
0.000247585
-0.000511938
0.000341322
0.000114881
5.58022e-05
0.000306078
8.25051e-05
0.000180677
-0.000569158
-0.000131511
0.000101121
-0.000120454
0.000150894
5.99093e-05
4.43635e-06
-0.000368509
0.000304358
-0.000133708
-0.000324334
-5.37894e-05
9.4966e-05
7.74336e-05
-0.000269999
5.55685e-06
-0.000306521
9.46355e-05
-0.00106606
0.000220972
0.000295101
-0.000299295
5.39183e-05
-4.97232e-05
-0.00020954
0.000319263
-0.000358516
-0.000349875
0.000354138
-0.000230436
0.000233078
0.000593551
-0.000732034
0.000612618
-8.44526e-05
-0.000430871
-2.7794e-05
-0.000154319
0.000143327
0.000130524
-0.000391867
6.49068e-06
-0.000113829
0.000499252
0.000555348
-6.6003e-05
-0.000216357
-1.83972e-05
-0.000171423
0.000412938
-6.72773e-05
-0.000495299
0.000408243
-0.000462553
3.40096e-06
-0.000273486
-0.000180676
0.000976155
0.000566668
-0.00152605
-0.00161346
0.000770371
0.00104282
0.000595772
0.000785151
-0.00122929
0.000478284
-0.000350672
-0.000436802
0.00030924
0.000856532
-0.000425986
0.000545594
-0.000509346
-0.000247093
0.000299416
-0.000160701
0.000619648
0.000288319
0.000158359
-0.000504619
-0.000236889
0.000300491
3.75528e-05
-0.000756204
0.00103176
0.000494817
-8.63279e-06
0.00117385
0.000155274
8.85113e-05
0.000329143
6.88127e-06
-0.000194374
0.000304759
0.00026919
-0.000388876
-4.14599e-05
0.000301784
-0.000365317
-4.60308e-05
-9.34396e-05
6.24382e-05
0.000323037
-0.000114717
0.000270441
0.00032819
-0.000339365
-0.000288544
-0.000257502
0.000199479
-0.000198252
-0.000108421
-0.000353187
0.000105072
-0.000146816
-0.00033026
0.000310459
-0.000285727
-1.35263e-05
0.000117684
5.5095e-05
-0.000237072
6.59574e-05
0.000296508
-0.000223414
-0.000139115
-0.000408558
0.000247832
0.000387345
-0.000164636
0.000147677
0.000114511
-0.00016149
-0.000251363
-9.57351e-06
-7.09271e-05
-0.000107126
9.76423e-05
-0.000290631
4.6114e-05
-0.000284564
0.000230347
-0.000120416
-5.60409e-05
-0.000262089
0.000152866
-0.000341992
0.000136023
-9.07131e-05
-0.000205178
-0.00011184
-1.42155e-05
0.000193687
9.57656e-05
-0.000138683
-0.00015083
-0.000175061
2.91403e-05
2.55666e-05
0.000211294
3.51913e-05
-0.000163926
-0.000164517
-0.000269987
6.61024e-05
1.56671e-05
6.74592e-05
0.000110603
-1.61653e-05
-0.000143212
0.000111393
-0.000208416
0.000156386
-0.000146177
0.000637843
0.000598417
-9.87072e-05
-0.000616766
-0.000137541
0.000640495
-8.50053e-05
0.000288335
5.90469e-05
0.000696695
0.000739943
-8.24331e-05
5.74989e-05
0.000554209
0.000300888
-0.00014862
0.000170238
-4.80593e-05
0.000174269
5.44731e-05
0.000712529
-0.000338429
0.000110579
0.000730967
1.51986e-05
0.00014764
0.000138042
0.000114508
0.000244042
0.000413052
9.70789e-05
-0.000148077
-0.000137609
0.000401088
-0.000140829
3.01584e-05
-9.66747e-06
0.000107174
-4.0647e-06
-0.000151185
0.000235014
1.49094e-07
8.32234e-05
0.000118695
-1.13431e-05
6.1131e-05
0.000204147
0.000165408
-0.000195321
7.85699e-05
0.000487804
0.000446359
0.000185925
-0.000636494
0.000168138
0.000330896
-0.000299415
0.00023212
0.000271537
0.000192236
-0.000556162
0.000151859
0.000257141
-0.00035931
0.000247667
-0.000138895
0.000166826
0.000200955
-4.06137e-05
0.000123206
0.000192148
8.20153e-05
0.00161099
1.67201e-05
0.000289243
0.000842109
-0.00109246
0.0004264
-4.50121e-05
0.000711005
0.000711386
-1.47585e-05
3.38666e-05
0.00160942
0.000244282
0.000328747
0.0012974
0.000913977
4.16877e-05
0.000150279
0.000394342
6.52374e-05
0.000729293
9.47279e-05
0.000555854
0.000295108
-0.000452361
-2.69024e-05
0.000342752
0.000136372
-3.10411e-05
0.00024114
-0.000114953
0.000799452
0.00044813
0.000446953
0.000447219
0.000406537
1.05502e-05
0.00040113
0.000584575
-0.000317355
-0.000246909
-2.04139e-05
-0.000324456
-0.000278583
0.000855968
-0.00025294
-5.74432e-06
0.00107322
-0.000827431
-0.000240122
-0.000215851
0.000160692
8.07136e-05
-2.55512e-05
0.000466283
0.00027163
-0.000153295
0.000362261
-0.000220435
0.00028338
-0.000227623
0.000639894
-1.88831e-06
-3.82336e-06
-9.90385e-05
-8.37646e-05
-0.000185986
-0.000193745
0.000363995
-0.000146883
-7.50134e-05
-0.000142099
-0.000192863
-0.000127592
9.21645e-05
-0.000195053
-9.11446e-05
-0.000128177
-0.000150608
-0.000331623
4.76481e-05
-9.57868e-05
0.000292312
0.000878168
-0.000540326
0.000615344
0.0003514
0.000481328
0.000104811
0.000118368
-0.000210036
-0.000176128
-4.61409e-05
-0.000180942
0.00051946
-0.000436183
-0.000121532
-7.63765e-05
0.000356572
0.000586821
2.16222e-05
9.5274e-06
-0.000422649
0.000554404
-0.000158655
2.08596e-06
0.000277939
0.000335311
0.000352224
0.000523811
0.000384409
0.000447948
7.79469e-05
0.000409736
-5.60231e-05
0.000325204
8.22134e-05
0.000122357
-2.129e-05
3.71023e-05
-0.00039915
0.000211188
-0.000286521
-7.14696e-05
-0.000198803
-6.23879e-05
0.000205188
-0.000152808
0.000266314
-0.000117435
0.000285838
-8.93759e-05
-3.63557e-05
-0.000191561
-0.00019799
-0.000196036
0.00047188
0.000134465
-1.86653e-06
-7.22791e-05
0.000211852
-5.1952e-05
-0.0009877
0.000225232
-9.37651e-05
0.000861604
-0.000816842
3.20881e-05
-7.6913e-05
0.000388754
-0.000652689
-0.000210392
-0.000244859
-0.0003751
-0.000116677
-0.00102571
-4.43049e-05
8.2293e-05
-7.06647e-05
-9.34321e-05
-0.000896304
-0.000578217
-0.000802126
0.000792627
-1.89318e-05
2.83421e-05
0.000695581
0.00014274
0.000234863
0.00037821
0.000533509
-5.5752e-05
-0.000248958
0.000532499
-0.00020283
-0.000793982
6.57461e-05
-7.38858e-05
-0.000228669
0.000130257
-0.000789435
0.000606237
-0.000344212
0.000423101
-0.000102425