/*--------------------------------*- C++ -*----------------------------------*\
| =========                 |                                                 |
| \\      /  F ield         | OpenFOAM: The Open Source CFD Toolbox           |
|  \\    /   O peration     | Version:  2506                                  |
|   \\  /    A nd           | Website:  www.openfoam.com                      |
|    \\/     M anipulation  |                                                 |
\*---------------------------------------------------------------------------*/
FoamFile
{
    version     2.0;
    format      ascii;
    arch        "LSB;label=32;scalar=64";
    class       volVectorField;
    location    "1100";
    object      U;
}
// * * * * * * * * * * * * * * * * * * * * * * * * * * * * * * * * * * * * * //

dimensions      [0 1 -1 0 0 0 0];

internalField   nonuniform List<vector> 
54912
(
(0.0383472 -0.815002 2.07396)
(2.42158 -4.35537 6.15429)
(0.0138971 -0.531401 1.09335)
(0.949737 -3.13482 5.96879)
(0.494465 -2.28381 3.31495)
(0.720927 -2.89943 2.65862)
(1.02801 -2.51334 4.683)
(0.907341 -2.89999 3.04485)
(4.88916 -6.45147 10.6657)
(9.55605 -2.12416 14.565)
(9.834 -2.21476 13.6911)
(5.104 -7.95585 10.3136)
(5.82376 -6.4869 12.4104)
(9.87274 -2.57245 14.0263)
(4.96049 -7.14857 11.2628)
(9.48665 -2.38446 13.3183)
(-0.0624312 -2.97254 5.40419)
(8.39567 -4.55324 13.8839)
(8.78525 -5.54777 12.8321)
(4.68009 -9.36164 6.17374)
(0.983063 -4.9197 1.65136)
(5.61303 -7.75379 12.2707)
(5.07411 -7.01962 4.39155)
(10.5162 -4.48833 10.7027)
(2.25823 -5.67844 10.2261)
(5.39343 -8.04362 13.3884)
(5.11445 -9.10859 12.4007)
(6.9967 -9.83404 17.5808)
(3.73697 -5.43311 8.98114)
(3.20006 -7.57068 10.0503)
(6.92494 -8.64316 13.4694)
(3.22853 -8.46192 12.1991)
(3.44326 -7.35427 8.69501)
(-0.650007 -0.606104 2.05771)
(1.40165 -3.95495 6.11369)
(4.97803 -7.38227 11.2562)
(2.95764 -6.89383 8.17169)
(0.658055 -3.76726 3.83156)
(3.33483 -7.61065 10.3704)
(1.10933 -4.99216 4.85374)
(4.31325 -6.24323 7.96537)
(4.68926 -7.06195 10.4113)
(9.55681 -4.28217 13.2466)
(1.45779 -5.24404 1.56447)
(3.33434 -6.87086 9.29591)
(5.42692 -7.77509 10.2996)
(2.57652 -7.29572 8.24265)
(4.71133 -8.37343 9.95024)
(0.47891 -1.92451 4.61474)
(1.99823 -4.85503 7.44651)
(4.49018 -8.3938 11.2496)
(6.97219 -7.73579 10.7554)
(0.180007 -2.89184 6.32629)
(1.84859 -6.05449 7.16)
(1.89826 -5.13562 4.39953)
(3.05462 -8.34875 7.62277)
(1.67378 -8.24384 4.26084)
(3.65794 -10.6251 10.895)
(5.1904 -6.76075 11.4797)
(9.31242 -3.75356 12.6528)
(3.80122 -10.8697 4.41577)
(3.70973 -8.35638 5.35396)
(4.26414 -8.70358 9.17718)
(5.70473 -8.90531 10.1077)
(6.30268 -2.6314 8.27792)
(3.96576 0.0871327 9.38924)
(1.19519 0.349587 10.8953)
(6.06854 -2.81966 6.55307)
(5.11734 -3.73416 6.80661)
(3.6322 0.035214 8.25803)
(5.20017 0.536566 8.52257)
(3.16659 3.14226 11.2757)
(2.87174 0.288512 9.62367)
(2.85973 -0.222124 9.55481)
(2.05395 2.42586 12.1227)
(3.44237 0.510128 2.97176)
(2.45797 -0.387463 8.64515)
(2.93337 0.825663 9.79081)
(3.22176 1.13931 9.17668)
(3.21982 1.77317 10.0957)
(0.840171 5.03462 11.2825)
(1.57957 4.19491 12.4408)
(1.65469 5.62933 11.4929)
(4.37733 3.9033 11.126)
(2.22568 4.51469 10.8132)
(2.27615 4.85565 11.3613)
(3.1623 6.33368 11.2559)
(2.27413 6.07182 12.1945)
(5.239 -2.83688 6.76489)
(3.1543 -0.0785803 1.7542)
(3.54753 0.100058 9.9774)
(4.29909 -0.835993 4.53668)
(3.18499 -3.05741 2.36027)
(2.18139 -1.09932 7.05562)
(4.01184 -0.0557044 8.1671)
(3.74741 0.893078 9.93244)
(3.3354 -0.674455 8.51317)
(1.29681 0.813396 9.49284)
(2.85899 -3.70513 2.63544)
(2.43303 -0.91997 1.66114)
(3.33468 0.999835 7.97307)
(2.70939 2.37039 10.071)
(3.76204 -0.897391 3.70132)
(2.94836 -0.387193 6.20847)
(2.80247 0.515561 9.06076)
(3.51416 1.02137 8.03775)
(2.51295 3.20873 11.5688)
(1.71986 3.11461 11.014)
(2.71187 2.15282 9.52591)
(2.66585 1.89496 11.0338)
(1.68977 3.22475 11.8566)
(2.12086 2.70827 11.5822)
(3.94446 3.5597 10.6708)
(4.62669 0.0795172 7.54897)
(3.99507 1.33782 8.76471)
(5.54875 2.31009 10.6177)
(6.09501 1.42432 11.5658)
(4.76632 1.64176 10.7443)
(5.52795 0.549362 10.6273)
(4.62429 1.07083 10.6267)
(2.74439 5.52716 12.0228)
(4.55657 3.97046 12.2502)
(4.25157 2.43119 11.4173)
(3.56943 3.57568 12.4753)
(2.92114 4.267 12.0316)
(4.60149 2.27012 11.8447)
(3.89941 3.0871 11.5595)
(4.25866 2.22604 11.8404)
(1.04247 6.32955 12.253)
(1.99583 3.80209 13.4745)
(-0.15561 3.05948 13.1479)
(2.41545 3.38266 12.819)
(1.93191 5.43509 13.0628)
(0.86998 4.52965 12.5543)
(2.22018 4.78079 13.3307)
(1.09893 3.94168 14.0069)
(2.44526 1.75829 12.5203)
(1.78867 -0.148567 10.0783)
(0.740816 -0.0611434 10.264)
(1.83091 0.127837 11.1938)
(2.35315 1.28233 11.7518)
(1.67402 0.548871 10.5537)
(1.73911 0.533546 11.7835)
(0.849759 0.430056 10.7024)
(-0.114802 1.83669 13.0467)
(-0.287449 0.671068 10.2734)
(-1.08983 -0.419008 8.31931)
(-0.0912382 0.589243 12.3284)
(0.0296295 1.55691 13.2444)
(-0.506965 0.625202 9.69333)
(0.16311 0.837183 11.7662)
(-1.35058 -0.0995083 9.24644)
(1.40414 1.62126 13.1058)
(0.940202 0.323092 12.9425)
(0.772376 0.848847 13.9278)
(0.0796179 0.719384 14.0008)
(0.765956 1.1434 12.4971)
(1.0864 0.35507 12.6818)
(0.578508 0.619557 13.3341)
(0.325639 0.413751 13.8162)
(2.14098 3.35823 12.867)
(0.980335 2.93674 13.6657)
(1.63682 2.29304 12.5674)
(1.47349 1.01927 13.1223)
(1.96959 2.72914 12.9885)
(1.66321 3.17795 13.7439)
(2.10542 1.69153 12.8624)
(1.57872 2.54276 13.2925)
(1.47417 2.64587 12.5064)
(1.20233 0.48118 11.7939)
(0.27575 0.836937 10.8729)
(0.626669 2.55909 13.1989)
(1.73266 1.99364 13.0423)
(1.50302 1.19546 11.7231)
(0.805846 2.41603 13.6033)
(1.04935 1.59754 12.9877)
(0.994926 2.5656 13.6421)
(1.57 2.09504 12.8264)
(1.29959 0.477313 12.489)
(0.775718 1.07909 13.4638)
(1.02987 2.32154 14.1555)
(1.54118 2.27092 13.7268)
(0.905271 1.93395 13.6253)
(1.34079 1.24472 12.8271)
(0.18547 1.90805 13.847)
(-0.418442 0.446674 13.0821)
(1.12668 0.430348 11.0599)
(0.187965 0.700791 10.4073)
(0.827946 1.6022 12.7157)
(0.960449 0.754936 11.9842)
(0.932539 0.551253 12.1216)
(0.67636 0.468179 12.1835)
(0.185903 -1.10803 4.08608)
(0.958776 -1.62077 3.70466)
(-0.857127 -0.100722 6.95749)
(0.179259 -0.476268 6.03391)
(0.700808 -0.593505 4.28157)
(0.521878 -0.578834 4.66672)
(-0.342506 -0.499411 6.17844)
(-0.305773 -0.935561 6.23961)
(1.22624 -1.24277 2.22538)
(1.47937 -0.55452 1.91306)
(-0.412553 -0.589058 4.8489)
(1.36188 -0.354841 2.53015)
(1.38616 -0.902504 2.37615)
(1.43783 -0.569944 1.76453)
(1.05178 -0.706242 3.1751)
(0.875595 -0.549564 2.70079)
(-1.48992 -0.331832 7.217)
(-1.57443 -0.488554 7.6377)
(-1.32621 -0.453345 7.44913)
(-1.47885 0.0145087 7.0044)
(-1.441 -0.0649553 8.02284)
(-1.31165 -0.286677 7.95858)
(-1.2763 -0.291678 7.39167)
(-1.53373 0.0481369 7.04621)
(-1.20125 -0.290024 6.20003)
(1.0381 0.11816 3.5749)
(-1.5588 0.14515 6.97305)
(-1.2886 -0.045684 6.79776)
(-0.9392 -0.381973 6.54712)
(-1.25625 -0.21294 6.89447)
(-1.36151 0.0701094 7.17955)
(-1.44194 0.142479 7.10513)
(1.05196 -1.53506 2.94025)
(-0.786365 0.319142 6.00671)
(-0.242213 -0.376682 4.6292)
(1.1738 -0.558176 3.65407)
(0.456292 -1.17271 3.52563)
(-0.313506 -0.103915 5.68156)
(0.161481 -1.09945 2.51613)
(-0.384984 -0.151191 5.14446)
(1.3043 -1.11537 2.39545)
(0.760111 -0.158656 4.4081)
(-0.595509 -0.192282 5.12944)
(-0.825848 0.336611 6.02829)
(0.0423053 -1.27351 3.07922)
(0.724127 0.251073 4.02399)
(-0.219291 -0.603322 4.75275)
(-0.280565 -0.261882 5.96175)
(-1.20477 0.119808 6.92601)
(-1.12015 -0.208188 6.39371)
(0.127984 -0.074988 5.40795)
(-1.39603 0.00988246 7.08001)
(-1.4645 -0.157187 6.57798)
(-1.33329 -0.0426343 6.7646)
(-1.5271 0.0276469 7.04685)
(-1.47355 -0.0792815 7.5034)
(-1.39314 -0.329142 6.74704)
(-1.55031 -0.0666211 7.14778)
(-0.239784 0.14087 4.71241)
(-1.33579 -0.087739 4.28562)
(-1.36957 0.0301065 8.1331)
(-1.49149 0.137416 7.39491)
(-0.960744 -0.498512 6.81817)
(-1.06323 -0.235406 3.76459)
(8.31526 -0.881109 13.4611)
(3.51443 -0.705525 14.0284)
(8.13453 -1.33237 13.5691)
(5.59002 -5.91425 11.6941)
(5.77627 -1.19164 14.7438)
(4.35874 0.102362 14.4939)
(8.67345 -3.44001 13.6272)
(7.22021 -1.65647 15.0739)
(-0.240152 0.658572 9.65298)
(-1.76108 1.13244 3.10876)
(2.21512 0.228477 11.3366)
(-0.772867 0.552555 2.59718)
(-1.07479 0.766207 8.34226)
(-2.46057 1.61802 5.57435)
(1.44403 -0.206559 10.3204)
(0.640931 0.430446 8.375)
(8.37955 -0.860009 13.9543)
(5.74797 -0.588706 14.4498)
(8.77543 -0.731182 14.2151)
(6.78899 -2.40096 11.3948)
(7.89754 -0.818552 14.028)
(6.61795 -0.622764 14.2693)
(9.13516 -1.33993 13.8945)
(7.93832 -0.699635 13.8226)
(2.70133 -3.22546 5.25839)
(1.06219 -0.751072 0.265275)
(3.07526 -2.0075 6.68858)
(0.788769 0.405546 2.70533)
(-0.132586 1.40698 0.264654)
(0.928378 -0.770081 0.0289893)
(3.07911 -1.51387 6.28049)
(3.02998 -1.55129 4.84284)
(2.32182 -0.278886 13.4683)
(7.14486 -1.18694 14.4681)
(2.89921 -3.84125 8.40649)
(0.601553 -0.437363 4.53967)
(4.91874 -0.692034 14.2242)
(6.92361 -1.46246 14.9002)
(0.741248 -1.2036 6.58106)
(3.74032 -0.708839 7.75074)
(0.674012 0.560778 10.3834)
(-1.40002 0.585482 4.86402)
(2.79261 0.568365 13.2844)
(6.31292 -0.248932 14.5837)
(4.00147 -0.0296968 13.4214)
(3.2631 0.102967 11.7646)
(4.98867 -0.0995352 14.0602)
(4.66561 -0.163918 13.2519)
(8.80993 -2.23687 13.3595)
(5.44604 -4.15215 9.50176)
(3.03905 -1.03059 5.28922)
(5.72798 -2.4921 10.3542)
(6.42763 -3.33571 10.6896)
(4.64835 -2.76979 8.6351)
(4.4658 -1.78795 8.97012)
(4.4763 -0.0869732 7.74535)
(7.92825 -0.913893 14.3371)
(5.16803 -1.89405 9.84365)
(1.43727 0.329864 4.66675)
(4.98189 -0.56886 13.2745)
(7.72415 -0.984675 14.1991)
(4.78209 -1.06786 8.97989)
(5.95098 -0.815308 13.6559)
(1.97728 -0.993107 6.84885)
(-0.735299 -0.316165 -1.44054)
(-0.185726 0.395906 -0.957587)
(-2.79966 1.92207 6.00902)
(-3.85072 0.948453 5.05281)
(0.631531 0.734655 -2.45747)
(-0.00222617 -0.00475477 -0.588494)
(-2.82878 1.11406 5.76151)
(-2.09882 1.4651 4.52645)
(-0.371735 -0.0827284 1.1988)
(-0.284049 -0.701671 2.6326)
(-0.576558 0.000487484 3.30537)
(0.283064 0.128699 6.50953)
(0.277278 -0.213033 2.53398)
(-0.226316 -0.143632 3.86295)
(-0.112266 0.13174 4.62413)
(-0.330579 -0.211715 3.71625)
(-2.5487 0.958359 2.68132)
(-0.260262 -0.753058 1.91031)
(-2.08729 0.68952 5.50905)
(-1.67392 0.363343 7.10226)
(-0.0972615 -0.373632 1.96975)
(-0.331431 0.342188 3.60624)
(-1.72672 0.186034 6.66427)
(-1.41277 0.785263 5.32942)
(-3.08018 -0.258244 6.71383)
(-1.79814 -0.0174742 7.4628)
(-1.73338 1.16628 7.69968)
(-1.92834 0.0138452 7.24604)
(-2.67038 -0.434174 6.97055)
(-2.11659 0.0178552 7.21218)
(-1.79159 -0.386614 7.12526)
(-1.38103 0.395329 7.84457)
(-0.186964 0.0528422 0.221212)
(-2.00477 1.37244 4.08442)
(-3.2433 0.591672 6.05965)
(-1.3883 1.11762 5.70508)
(-1.3811 1.09542 4.27211)
(-1.80589 1.01814 4.33767)
(-1.70497 0.72873 5.15261)
(-2.33695 0.940672 5.93009)
(-0.159996 0.0962434 1.77237)
(-0.705925 0.202611 6.38997)
(0.0473951 0.74403 3.93673)
(-1.45386 1.85974 4.83368)
(-1.13512 0.934119 4.33196)
(-0.557976 0.4349 3.76018)
(-1.05142 0.853325 3.86101)
(-0.0364926 0.145847 3.97942)
(-2.65816 1.48713 7.5481)
(-2.77372 -0.000846149 6.81082)
(-2.14086 0.433756 7.64042)
(-1.84033 1.21302 7.14375)
(-2.71039 1.45448 7.91255)
(-2.71931 0.365351 7.1089)
(-2.1296 1.2143 8.08845)
(-2.0786 0.849137 7.5594)
(-1.16069 1.66617 7.11002)
(-0.646126 0.180812 7.31205)
(-0.667482 -0.0347055 8.41794)
(-0.424022 0.253288 3.08949)
(-1.18909 1.09007 4.92712)
(-1.72224 0.684172 7.70032)
(-0.709325 0.901922 5.08224)
(-0.00704969 0.416699 7.75933)
(1.23815 -4.2547 -59.088)
(-7.17908 -5.73597 -59.8756)
(-1.49152 1.4283 -54.7539)
(-8.86684 -5.90426 -43.9942)
(-8.44037 -4.50936 -47.3848)
(-3.35245 -2.64913 -58.2111)
(-6.32514 -5.6217 -50.7077)
(-2.38815 -2.32535 -56.8762)
(-7.96074 -1.06751 -45.8991)
(-7.92264 2.76883 -21.9755)
(-13.7922 -2.35502 -32.5348)
(-10.1522 0.464698 -21.4227)
(-11.741 1.46421 -25.0165)
(-12.4187 -0.2364 -31.4875)
(-9.78787 -1.102 -27.4622)
(-8.64582 -0.988315 -31.2787)
(-2.76178 2.03135 -40.4687)
(-10.4161 0.647556 -46.057)
(-3.6649 1.05004 -44.876)
(-11.3249 -0.559502 -38.8706)
(-10.429 -2.00921 -40.0329)
(-6.83464 1.79572 -46.6047)
(-10.3417 -1.51585 -39.8289)
(-9.11772 0.963597 -42.7411)
(-6.62775 -2.49264 -28.6819)
(-10.2578 2.3355 -20.4459)
(-11.3778 0.0185552 -25.9429)
(-10.5848 -1.19428 -14.4129)
(-12.1338 -0.845393 -18.3292)
(-10.0211 0.154546 -23.6207)
(-10.472 -1.13585 -18.643)
(-9.60828 -0.153387 -20.2407)
(-5.85922 -2.94921 -37.396)
(-5.29058 -2.87013 -40.3159)
(-5.46376 -3.40351 -33.2159)
(-10.604 0.0893609 -22.5545)
(-5.44153 -2.5222 -38.1076)
(-6.59723 -5.37508 -41.0997)
(-4.09608 2.67213 -33.121)
(-5.68263 -2.26938 -38.5723)
(-6.36167 -1.9162 -43.9913)
(-10.0737 0.59265 -26.075)
(-12.7392 0.222308 -41.0024)
(-3.44642 -0.266343 -43.8047)
(-6.62837 -0.119625 -46.4143)
(-10.084 -0.649839 -30.5477)
(-5.40461 -1.62429 -44.659)
(-11.8634 -1.24509 -34.1536)
(-5.41001 -2.82801 -40.3945)
(-5.96488 -2.99771 -32.2185)
(-9.17564 -0.113186 -23.3795)
(-10.9899 -0.27979 -27.9882)
(-6.18587 -1.77593 -40.441)
(-6.39337 -0.0461745 -33.4287)
(-11.1114 0.147257 -26.5176)
(-10.3348 -1.58709 -24.78)
(-4.47781 0.190668 -41.5803)
(-10.9166 -0.478726 -30.7931)
(-9.45397 -0.559735 -25.258)
(-12.2053 0.442505 -39.0905)
(-12.173 -3.17868 -39.0639)
(-11.6463 -0.3284 -34.1319)
(-10.9018 0.0609968 -35.5454)
(-11.0109 3.8187 -26.0447)
(6.03756 -2.94685 -61.8952)
(-1.02457 -1.37855 -61.8337)
(-5.35063 -4.4231 -65.4074)
(-22.6452 0.166781 -64.4176)
(-3.52531 -5.40002 -75.1597)
(0.173851 -5.09672 -68.2806)
(-11.1288 -2.66502 -71.5342)
(-6.36413 -6.5754 -67.8276)
(-3.45718 -1.09922 -53.464)
(-25.6734 9.76821 -65.2189)
(-21.7565 4.35228 -47.4032)
(-5.45589 -4.94497 -34.6684)
(-6.07703 9.31001 -60.3907)
(-15.9204 15.3886 -68.5085)
(-8.55855 -13.4499 -31.713)
(-20.398 10.5535 -61.8698)
(-6.34277 -1.48084 -51.5048)
(-15.959 -0.764061 -26.5142)
(-10.4459 -1.01981 -26.9842)
(-13.3266 -2.48511 -33.7673)
(6.32366 -1.01141 -23.1002)
(-12.6317 -0.472991 -28.0551)
(-1.937 -2.73231 -26.7413)
(-12.6374 -1.70483 -27.1176)
(-0.312905 6.10142 -13.9981)
(12.5772 20.8974 20.0766)
(-2.23203 6.6738 3.79291)
(-4.86572 -1.28894 -16.8993)
(-6.1345 9.76089 -9.31879)
(7.04445 6.55346 -18.8659)
(-6.92228 2.5644 -4.63818)
(29.0027 -3.05024 -4.47834)
(1.13454 -2.0174 -66.9178)
(-7.09003 -2.89896 -48.1561)
(-14.0214 -0.99235 -45.9219)
(-20.727 -7.60953 -54.7843)
(-5.61283 -8.57443 -55.6355)
(-6.42369 -2.20725 -51.4129)
(-12.718 -9.66639 -43.8002)
(-13.566 -0.784042 -45.9749)
(0.674571 4.83652 -58.3931)
(-6.70731 -5.21436 -32.7996)
(-17.1694 3.49903 -47.4519)
(-4.06565 -5.25547 -50.4334)
(-6.25591 -5.84661 -55.8335)
(-11.5089 -6.50337 -33.5966)
(-4.79119 -3.87418 -54.6424)
(6.88232 -0.183186 -29.6422)
(-10.4558 3.02275 -50.8305)
(-11.5425 6.90582 -41.9161)
(-16.8102 -3.39378 -43.9292)
(-17.4324 0.0256409 -34.0612)
(-12.1819 8.28454 -48.9517)
(-10.2796 2.19364 -38.3487)
(-15.4536 -0.224912 -40.9435)
(-13.7965 -2.48784 -34.9286)
(-5.11577 -2.84092 -49.4833)
(-13.6277 -0.797539 -35.3975)
(-12.406 -3.19302 -36.2919)
(-16.5165 3.68506 -43.2694)
(-1.77903 -2.0536 -25.9657)
(-8.84982 -1.6944 -37.7839)
(6.32699 -15.0628 -13.2995)
(-4.65472 -5.68706 -31.7589)
(-0.549833 -0.466519 5.37159)
(-1.03582 -0.234328 7.34464)
(-1.10512 0.229356 7.17301)
(-0.715611 0.0667505 6.69695)
(-0.994743 0.0495099 6.08673)
(-1.34607 -0.115369 6.64465)
(-0.900453 0.170471 6.50234)
(-1.1749 0.221064 7.29501)
(-1.64433 0.102662 7.17785)
(-1.55603 0.0813297 7.26466)
(-1.20516 -0.0872127 6.85363)
(-0.834037 -0.0019833 6.38812)
(-1.41745 0.314271 7.17182)
(-1.54411 0.0920444 7.5344)
(-1.36523 0.164245 7.19413)
(-1.41556 -0.0260183 7.28153)
(-1.04024 -0.218155 7.22832)
(-0.954133 -0.502659 6.71602)
(-0.734393 -0.850776 6.97756)
(-0.671397 -1.86549 6.17169)
(-0.8791 -0.393673 6.83429)
(-0.819866 -0.458202 7.20939)
(-0.69522 -1.09263 7.04488)
(-0.646303 -1.1232 6.99328)
(-0.129604 -0.501948 5.10524)
(0.256984 -0.84119 4.90026)
(0.391551 -1.34927 4.73405)
(0.738232 -0.875547 4.33183)
(0.376573 -0.788776 5.23597)
(0.4457 -0.904284 5.01221)
(0.454314 -0.839291 5.03947)
(0.584729 -1.16726 4.86643)
(-1.81053 0.164267 7.34897)
(-1.07899 0.244566 7.2204)
(-0.725143 0.0357722 6.85245)
(-0.816058 0.19127 6.42279)
(-1.56844 0.227602 7.293)
(-1.14222 0.244231 7.25657)
(-0.900171 0.118241 6.53406)
(-0.734722 0.0417532 6.62466)
(-1.45101 0.33226 7.25266)
(-0.905792 0.0329924 6.34037)
(-1.31762 -0.081133 6.88287)
(-1.26803 0.160912 7.31829)
(-1.30583 0.236452 7.3191)
(-1.22919 0.123254 7.03461)
(-1.28176 0.136948 7.16364)
(-1.21864 0.0623368 6.90827)
(-1.04063 -0.0348889 7.2949)
(-0.410186 -0.158801 6.73504)
(-0.643638 -0.148065 6.47619)
(-0.0947921 -0.835668 6.27381)
(-0.543455 -0.417716 6.44473)
(-0.447706 -0.293035 6.48716)
(-0.368244 -0.374014 6.32268)
(-0.354514 -0.22143 6.19532)
(-1.03642 -0.227871 7.40155)
(-0.549632 -1.09883 6.33877)
(-0.749469 -0.359531 6.27789)
(-1.03184 -0.489178 6.8651)
(-0.925448 -0.311094 6.93386)
(-0.580573 -0.811893 6.49519)
(-1.07594 -0.222825 7.02195)
(-0.638479 -0.775456 6.44399)
(-1.3007 -2.12894 6.41503)
(-1.31093 0.139746 6.17085)
(0.240705 -0.681902 4.6375)
(-1.5693 -0.730981 5.71314)
(-1.52674 -1.13232 6.04287)
(-0.798275 0.082183 5.4312)
(-1.4332 -1.56068 6.20046)
(-1.03717 0.218839 6.31696)
(-1.55802 0.569153 7.17751)
(-1.60619 -0.0631286 7.26935)
(-1.60753 0.132947 7.12725)
(-1.1107 0.152106 6.35541)
(-1.48222 0.595544 6.96115)
(-1.60018 0.012971 7.4217)
(-1.59335 0.617054 6.71779)
(-1.53144 0.366974 7.0618)
(0.683054 -0.726188 4.06308)
(-0.710077 0.0030029 6.58531)
(0.37656 -0.589303 4.36347)
(-0.779112 0.111622 6.26115)
(-0.557194 -0.186699 5.71271)
(-0.134225 -0.0460209 5.12136)
(-0.418918 -0.220956 5.69458)
(-0.445251 -0.199718 5.52396)
(-0.233393 -0.222826 4.72465)
(0.187908 -0.914343 5.01454)
(-0.514286 -0.302861 5.18686)
(0.45065 -0.810665 4.15752)
(0.255794 -0.515063 4.49993)
(-0.220171 -0.698068 5.36428)
(0.366692 -0.487537 4.38345)
(0.0460674 -0.54984 5.05392)
(-1.18695 0.180692 5.93467)
(-0.664768 -0.0947587 5.79835)
(-0.758666 -0.365907 5.23482)
(-0.162166 -0.394107 5.25293)
(-1.50891 0.23547 5.83853)
(-1.56065 0.196681 6.69425)
(-0.503526 -0.0641322 5.5457)
(-1.25115 -0.0214306 6.11431)
(-0.96567 0.340716 7.12435)
(-1.22959 0.334241 6.85013)
(-1.14006 0.105876 7.21156)
(-0.244668 0.0641383 5.41749)
(-1.515 0.585078 6.67923)
(-1.43474 0.774455 7.21996)
(-1.13313 -0.0371063 6.31472)
(-1.49748 0.224853 6.98761)
(-0.533343 -0.26946 5.74111)
(-0.725139 -0.355611 4.98381)
(-0.122031 -0.569142 5.1784)
(-0.562867 -0.282781 5.56866)
(-0.886944 -0.0531114 5.94692)
(-0.964773 -0.0606077 5.99051)
(-0.752245 -0.164794 5.80312)
(-0.602253 -0.363784 5.69519)
(-0.253013 -0.0741406 5.33251)
(-0.890686 0.120515 6.56277)
(-0.854696 0.2326 6.41174)
(-1.55201 0.0416175 7.25164)
(-1.20366 0.336572 6.90539)
(-0.97909 0.177952 6.8101)
(-1.38027 0.352747 6.83664)
(-0.976039 0.182588 6.7082)
(2.1689 0.940286 10.8969)
(2.15419 0.290155 11.6678)
(2.99767 2.56185 11.9669)
(3.20566 2.32138 10.706)
(2.61681 0.663535 11.3992)
(2.32817 0.66895 11.5306)
(3.40153 2.57842 11.3228)
(2.76045 2.09623 11.7706)
(1.12068 -0.0625763 11.6736)
(-0.280192 0.209713 11.1675)
(0.979178 1.231 11.5888)
(1.34049 0.114554 10.9498)
(0.607965 0.174843 11.3953)
(0.80594 0.323033 11.6666)
(1.36216 0.500855 11.2202)
(1.03714 0.833479 11.2544)
(2.72956 4.99872 13.1376)
(2.75373 2.59982 12.3597)
(1.90065 8.47199 14.1106)
(0.392346 5.5524 10.0742)
(2.76546 4.19389 11.9889)
(2.70663 4.3822 13.2111)
(1.12114 8.06971 12.1196)
(1.12338 7.51159 12.607)
(0.731677 2.50019 9.94834)
(-0.247588 0.344253 9.68869)
(-3.23472 5.27435 4.68957)
(-2.63656 -2.21199 0.529868)
(0.451048 1.42314 9.00704)
(0.185662 2.58097 9.75571)
(-3.96601 1.80303 3.67816)
(-2.49263 3.6232 6.52405)
(1.79296 0.216654 11.7008)
(2.77839 2.38764 11.9878)
(2.99001 1.39474 11.0302)
(2.21882 0.570808 10.822)
(2.45542 1.36453 11.2808)
(2.76499 2.04449 11.5322)
(2.40391 1.12796 11.2116)
(2.95846 1.38037 11.3404)
(1.87976 0.40998 11.9247)
(1.88138 0.282552 11.1695)
(1.89198 1.53494 12.1357)
(2.33416 2.40791 12.2959)
(2.08065 1.56807 11.8065)
(2.14561 1.04895 11.2464)
(2.10338 2.097 12.1892)
(1.78236 1.64082 11.6406)
(3.21659 4.37832 11.3178)
(2.04949 3.49156 10.0455)
(0.937724 2.21125 10.8534)
(-1.29577 5.52718 8.25333)
(2.18268 3.59506 10.6713)
(1.8523 3.05919 10.9295)
(2.19939 2.89424 10.3765)
(1.58382 3.05 10.5522)
(3.22538 3.81967 12.1637)
(-1.47065 6.04057 9.80636)
(1.21819 1.82745 10.7763)
(2.64714 2.60205 11.657)
(3.24001 3.72066 11.1815)
(1.49477 3.29191 11.2031)
(2.76057 2.46698 11.6017)
(2.0199 1.16318 11.4826)
(1.90017 0.189744 7.02395)
(2.8728 0.385909 7.9357)
(3.61262 0.767745 8.88386)
(4.28925 -0.290487 8.89878)
(2.78224 -1.0555 6.95845)
(3.7072 -0.240337 10.5891)
(4.27506 -0.617155 9.70584)
(3.36091 -0.0796411 9.27823)
(3.44564 1.32597 9.30065)
(3.34979 1.29773 10.5414)
(3.4814 3.03599 12.0008)
(3.71046 2.50603 10.2482)
(3.88471 0.827268 9.735)
(3.43773 1.94298 11.136)
(4.47671 1.70665 10.9451)
(3.42657 2.72092 11.7711)
(4.27265 3.7876 10.4909)
(2.73095 5.84245 12.4704)
(0.890906 10.3023 13.5937)
(0.326066 6.49653 10.0655)
(4.29217 3.9904 11.5812)
(3.75877 6.58712 12.45)
(4.43987 5.62224 11.3395)
(2.01646 9.4846 13.2213)
(1.22285 0.842457 8.93884)
(1.68917 2.03318 9.19798)
(-3.13362 4.50915 4.81524)
(-1.51272 -4.04837 6.20935)
(1.31908 -1.16764 9.86184)
(1.56475 1.5861 9.315)
(-1.5338 -1.70636 8.48048)
(-0.958038 3.9717 8.32508)
(2.6109 -0.371336 7.49088)
(4.87578 1.72755 9.16049)
(3.88611 -0.077661 9.02681)
(4.49788 1.22238 9.82188)
(3.82137 0.946045 9.41281)
(4.37246 0.991212 8.90153)
(4.41041 1.5232 9.5013)
(5.07689 1.38502 9.66021)
(3.89154 1.15434 11.4717)
(3.6908 2.22072 10.4458)
(4.07497 3.30692 11.6022)
(4.56441 2.6251 10.518)
(4.4367 1.85622 10.4327)
(4.10909 1.9562 10.3714)
(4.33584 1.90614 10.4234)
(4.40813 1.94895 10.9714)
(6.1046 2.5676 10.1119)
(3.2402 -0.658604 8.59258)
(2.86705 2.07817 10.2189)
(-0.771354 3.05239 6.44773)
(5.33249 2.39873 10.872)
(5.15337 1.55184 10.7923)
(1.97468 2.51682 9.00078)
(3.14217 2.38638 9.83809)
(5.15872 2.70469 10.0889)
(1.01138 5.82612 10.4247)
(2.79292 3.88018 10.6205)
(3.84722 4.87107 12.0095)
(4.39076 3.50148 10.1311)
(1.90486 4.39057 9.6495)
(5.16367 3.29514 11.4415)
(2.85419 4.17347 10.153)
(-7.52414 -3.31426 -11.2513)
(-2.85915 4.2691 -7.3841)
(1.60952 2.78096 -14.0353)
(3.35869 1.85613 -4.43044)
(-3.14377 -0.58063 -10.1441)
(-2.29207 1.09658 -8.30104)
(5.21451 2.77156 -4.43815)
(3.00225 3.15691 -9.13533)
(-11.1143 -1.46072 -24.9724)
(-7.50765 -1.53956 -26.4892)
(-9.16383 -4.48028 -45.0808)
(-3.57514 -0.27714 -20.9036)
(-11.2004 -0.9927 -23.4047)
(-6.98704 -0.833721 -27.3402)
(-6.69828 3.01711 -25.5851)
(-8.52905 -2.96279 -42.1901)
(-12.4721 -11.7382 -41.7492)
(-9.36123 -9.66408 -58.5694)
(-1.91556 -4.99791 -78.2316)
(-9.03256 -3.31314 -51.9026)
(-14.3213 -14.6356 -48.2613)
(-13.0033 -9.19812 -55.3856)
(-14.4483 -4.88256 -50.73)
(-6.05881 -4.78646 -70.2616)
(-0.233435 -0.0698003 -7.46147)
(-1.84832 -1.02654 -12.3592)
(-8.38289 -3.82031 -19.836)
(-1.09617 -2.75776 -4.2456)
(0.1347 4.43754 -3.1008)
(-2.93715 -0.46927 -14.7256)
(-0.911218 0.82662 -4.79549)
(-6.86742 -2.63571 -17.9859)
(7.63521 7.21363 -0.342582)
(7.71595 1.66138 -14.1039)
(2.96371 2.41396 -4.1509)
(5.02935 5.73935 -3.46048)
(9.08345 2.28239 -10.76)
(3.18833 3.61318 -11.6503)
(3.16917 1.03 -9.05307)
(2.33289 3.39417 -6.41285)
(-5.30634 4.00963 -17.6531)
(-3.13905 -0.648042 -21.2711)
(-13.389 -1.28695 -41.179)
(-2.30291 1.36194 -27.0918)
(-4.09152 6.23783 -17.5833)
(-4.52271 -1.333 -30.5467)
(-9.14932 -1.07572 -31.8924)
(-8.1577 -4.78976 -39.1892)
(9.22996 4.82208 -19.3212)
(2.17401 4.69121 -8.10024)
(-0.634805 1.98895 -10.3308)
(-10.906 -3.39677 -21.0826)
(2.46361 -1.08735 -17.9963)
(1.88454 3.97591 -12.6311)
(-0.330357 -2.33013 -16.2643)
(0.461262 -0.492953 -17.5304)
(-4.75642 4.2702 -29.8604)
(-9.80041 -3.70266 -46.5435)
(-6.93742 -3.68243 -28.5908)
(-12.2042 -6.88283 -49.5459)
(-9.2072 -8.2377 -42.3311)
(-6.61219 -4.95682 -32.3289)
(-11.2264 -4.97736 -38.4686)
(-7.5057 -7.19475 -35.3119)
(-10.8399 2.16058 -27.1334)
(-10.8852 2.44324 -21.0144)
(-7.07005 -4.64599 -45.0747)
(-4.08582 -0.537327 -21.1963)
(-10.5454 1.22755 -25.1449)
(-10.6668 3.28443 -21.4172)
(-8.35524 -2.67472 -38.1582)
(-8.83653 -2.16947 -34.7992)
(-10.8514 0.336916 -19.0947)
(-11.5348 -1.12739 -15.7577)
(-7.76098 -0.93523 -21.844)
(-3.45305 2.56987 -6.94995)
(-11.5292 1.42882 -16.9495)
(-11.194 -1.06193 -17.7522)
(-7.62804 -0.421157 -15.7391)
(-7.70662 -0.433118 -14.1564)
(-10.2705 -9.0111 -58.2167)
(-10.841 -6.66911 -40.8181)
(-3.92667 -4.88575 -72.0415)
(-11.5283 -4.40342 -45.839)
(-9.6314 -5.44001 -48.7796)
(-11.0174 -9.17182 -49.3556)
(-6.57214 -5.19681 -65.6104)
(-7.04668 -5.97045 -59.5835)
(-6.04774 0.661188 -13.2989)
(-2.21726 0.479116 -7.86905)
(-9.2788 -3.85993 -15.951)
(-2.57976 -4.10468 -1.43413)
(-2.56124 -0.487519 -9.89016)
(-5.22578 1.53403 -9.97303)
(-7.46536 -2.29568 -15.2393)
(-7.43324 -2.17554 -13.586)
(-10.8179 1.6267 -21.1384)
(-6.66613 -2.94995 -39.1234)
(-4.12981 -0.70428 -16.5993)
(-4.39272 0.309532 -10.1727)
(-6.24232 -0.610397 -25.3876)
(-7.83681 -1.24784 -26.7988)
(-4.98625 0.238621 -12.8169)
(-3.75716 0.520033 -16.0352)
(-11.2337 1.16557 -19.2104)
(-4.86121 0.18856 -9.33778)
(-7.22742 -2.66696 -29.0864)
(-5.42496 -0.611683 -36.0801)
(-7.10593 -0.361697 -22.3266)
(-7.96263 -0.230745 -15.7823)
(-4.97619 -1.68977 -38.2433)
(-5.64964 0.796517 -27.7389)
(-10.7653 -7.31063 -46.8669)
(-8.25294 -3.76658 -26.2292)
(-8.20449 -0.651802 -17.4546)
(-9.88507 -3.93769 -40.8909)
(-8.51136 -7.59053 -37.0152)
(-7.06881 -1.44791 -23.4155)
(-5.61014 -4.06607 -27.7447)
(-7.3679 -0.218605 -17.3323)
(-9.85754 -4.92306 -43.7979)
(-9.38189 -5.20937 -36.516)
(-5.41863 -0.118795 -14.2956)
(-8.87407 -2.80061 -31.9637)
(-10.0107 -3.39743 -38.0437)
(-10.0103 -5.56926 -28.8644)
(-9.99421 -3.04576 -35.0129)
(-7.02651 -1.22606 -20.3706)
(1.12213 -1.51641 3.85425)
(3.90976 -4.58385 7.68627)
(0.339815 -2.14714 5.29922)
(2.19129 -1.93133 7.56465)
(2.81029 -3.04357 5.67063)
(2.29537 -2.695 5.02815)
(2.48093 -2.50208 6.92235)
(1.87826 -3.09029 6.6991)
(6.13856 -5.40767 11.4055)
(10.5824 -2.46482 12.522)
(6.10782 -7.47965 10.7194)
(6.32196 -4.22719 11.0243)
(8.09767 -4.42479 11.7291)
(7.29425 -5.19021 12.3254)
(7.04572 -6.12543 11.7684)
(6.90478 -6.33782 10.9817)
(-1.72182 -5.19926 7.44285)
(5.11191 -5.65443 12.5331)
(-3.21803 -10.2599 13.0762)
(-5.76427 1.5987 7.8883)
(0.0930318 -2.89665 9.81596)
(3.09161 -5.55528 11.1564)
(-5.08431 -0.04354 10.1852)
(-3.40612 -1.88662 9.38563)
(0.380419 0.352382 11.3179)
(2.69888 1.02798 12.6886)
(-3.9871 -4.02821 3.73316)
(0.579729 -0.372713 1.24101)
(0.290317 0.574598 10.0523)
(1.45237 0.838312 12.8661)
(-4.10276 -0.289182 1.56703)
(-2.28943 -0.0125601 4.78881)
(5.33872 -5.43275 9.29849)
(1.21086 -2.87476 7.64609)
(2.34458 -2.13802 9.81292)
(4.62661 -2.93173 10.6691)
(5.34865 -5.11957 10.3513)
(3.55516 -4.11042 8.19041)
(4.78899 -3.36886 11.02)
(4.0187 -2.9761 7.79893)
(4.57867 -5.4628 8.75626)
(5.84461 -4.74261 10.796)
(5.60243 -7.07479 8.32447)
(1.4883 -2.92068 4.90287)
(5.29697 -5.3472 9.51128)
(5.26799 -5.18853 11.3139)
(5.05833 -5.70162 7.48671)
(4.9188 -4.28944 10.4381)
(1.44239 -3.04702 12.328)
(-0.104534 0.505135 12.1967)
(2.20101 0.626279 12.9533)
(-9.02699 3.09942 3.56852)
(0.708857 -1.3417 11.4775)
(0.853636 -0.310246 11.1008)
(-0.369322 -0.188682 10.7065)
(0.897933 0.861311 11.0567)
(1.15501 -3.45988 10.5163)
(-5.04073 1.23491 6.32473)
(2.90529 -0.182233 12.2009)
(4.34142 -3.21049 12.7542)
(2.89272 -1.94689 13.277)
(3.414 -1.52475 13.6232)
(3.43266 -2.19049 13.9096)
(3.05198 -1.30661 12.8599)
(10.2247 -0.955427 13.5578)
(10.1848 -1.20957 13.3283)
(8.30798 -2.30237 12.4878)
(5.67796 -1.80146 10.2343)
(9.90902 -1.14386 13.0899)
(10.2836 -1.30208 13.3313)
(8.53179 -1.97521 12.7382)
(8.35711 -2.14374 12.4295)
(10.4932 -1.48216 13.3086)
(10.2374 -2.07844 12.8198)
(7.19847 -4.73847 11.3079)
(6.41469 -3.46643 11.0155)
(10.5422 -2.02483 12.9262)
(10.6426 -1.88033 13.2283)
(8.61011 -3.90277 12.6271)
(8.30946 -4.06977 12.6302)
(4.86025 -2.64442 8.71054)
(4.58768 -4.3475 8.4291)
(2.89608 -1.591 4.66382)
(3.36426 -2.00583 9.38718)
(4.64071 -2.58577 8.40025)
(4.50949 -3.36281 8.56106)
(3.89999 -1.87439 6.89155)
(3.62475 -2.22202 6.01761)
(3.54119 0.571081 12.1353)
(2.9788 0.501565 11.9904)
(1.01109 0.471642 10.1422)
(-0.229521 0.233145 2.19369)
(2.88867 0.556495 12.0516)
(3.02373 0.436555 11.7594)
(2.14784 0.527425 9.97876)
(1.5995 0.950219 9.64626)
(10.3745 -1.45468 13.0781)
(7.68777 -2.37699 12.2985)
(5.18261 -2.08489 10.6123)
(5.52248 -2.86135 10.92)
(9.08981 -2.71688 12.5749)
(8.08033 -2.27007 12.5741)
(6.17196 -2.68708 10.6339)
(5.13142 -2.57275 11.2488)
(10.3986 -1.77438 13.018)
(6.34092 -3.20735 11.18)
(6.86923 -4.89327 11.1875)
(7.72918 -3.27851 11.7442)
(8.61594 -3.0119 12.4745)
(7.91295 -3.28416 12.5968)
(7.49879 -3.22759 11.97)
(7.00854 -4.14506 11.4382)
(5.82291 -3.14109 10.5184)
(5.21457 -1.90885 10.0129)
(4.91012 -2.42643 10.0863)
(3.35136 -1.69528 9.43381)
(4.88441 -2.36445 10.5494)
(4.6905 -2.31031 9.72735)
(4.14606 -2.67694 10.7593)
(3.65286 -2.03925 10.2969)
(5.70702 -3.39137 9.772)
(3.35022 -2.0883 9.85394)
(4.77874 -3.49552 10.5845)
(5.8543 -4.92119 9.84262)
(5.51518 -3.56263 10.1225)
(4.82068 -3.24803 11.3665)
(5.93446 -4.16466 9.30813)
(5.42861 -3.691 11.1441)
(7.32317 5.1253 7.69454)
(6.47962 4.54011 8.4031)
(3.86613 -0.183783 3.60132)
(5.89054 1.34681 8.20455)
(5.90279 2.77181 10.6227)
(7.51421 3.46936 7.51561)
(5.11219 0.530192 10.741)
(7.43507 -0.0539343 5.72955)
(5.47 4.98068 7.69802)
(4.23247 3.51708 5.71242)
(4.55292 0.555365 2.98638)
(2.25917 1.33804 7.91989)
(4.39257 3.78375 8.37794)
(3.64133 2.55832 5.21449)
(3.85866 2.31841 6.54152)
(4.48486 0.965069 4.37634)
(4.72454 -1.50828 3.70202)
(2.67866 -0.194864 2.18783)
(1.98771 -1.00506 2.59236)
(4.36463 -0.948582 3.48944)
(4.33202 -1.02549 3.3704)
(3.7305 -0.731631 2.63071)
(4.98331 -1.47576 4.07627)
(2.86524 -0.238366 2.05379)
(6.13784 -0.522081 9.59272)
(3.59489 0.558925 9.10114)
(4.44235 0.7181 4.28062)
(5.44277 -0.946853 10.3692)
(6.85876 -0.498838 12.5031)