/*--------------------------------*- C++ -*----------------------------------*\
| =========                 |                                                 |
| \\      /  F ield         | OpenFOAM: The Open Source CFD Toolbox           |
|  \\    /   O peration     | Version:  2506                                  |
|   \\  /    A nd           | Website:  www.openfoam.com                      |
|    \\/     M anipulation  |                                                 |
\*---------------------------------------------------------------------------*/
FoamFile
{
    version     2.0;
    format      ascii;
    arch        "LSB;label=32;scalar=64";
    class       surfaceScalarField;
    location    "400";
    object      phi;
}
// * * * * * * * * * * * * * * * * * * * * * * * * * * * * * * * * * * * * * //

dimensions      [0 3 -1 0 0 0 0];

oriented        oriented;

internalField   nonuniform List<scalar> 
110688
(
-1.68079e-06
1.07601e-06
-2.92952e-08
6.34077e-07
-7.19981e-08
-1.84919e-06
1.17274e-06
7.48439e-07
1.1037e-06
-1.74695e-06
2.30474e-08
6.20207e-07
6.55393e-07
-1.74111e-06
1.10304e-06
-1.73316e-08
-1.06234e-06
-1.7197e-06
1.10125e-06
-1.77162e-06
6.37291e-07
-1.05203e-06
-1.22844e-08
-1.71995e-06
-2.17581e-06
-2.76423e-08
1.33564e-06
8.6781e-07
8.9246e-08
1.44921e-06
-2.50162e-06
9.63163e-07
1.15703e-06
2.58307e-08
-2.03491e-06
8.52052e-07
8.63304e-07
3.78481e-08
1.31477e-06
-2.21592e-06
-1.43261e-06
-2.13251e-06
1.38931e-06
-2.22858e-06
8.8521e-07
-1.27334e-06
4.13143e-09
-2.34489e-06
-1.79162e-06
1.07797e-06
7.42299e-08
6.39426e-07
8.69315e-08
1.0774e-06
-1.80641e-06
6.42079e-07
1.04528e-06
7.26125e-08
-1.73385e-06
6.15959e-07
6.20177e-07
1.03634e-06
8.5836e-08
-1.74236e-06
-1.16186e-06
-1.70261e-06
1.07284e-06
-1.71085e-06
6.35924e-07
-1.15095e-06
6.85203e-08
-1.81651e-06
-1.79486e-06
6.74227e-07
1.10422e-06
1.64188e-08
4.18442e-08
7.28036e-07
1.15036e-06
-1.92024e-06
1.05945e-06
6.50969e-07
6.95375e-08
-1.77996e-06
6.87838e-07
1.04024e-06
6.88463e-08
-1.79693e-06
-1.13763e-06
-1.75197e-06
1.09474e-06
-1.76079e-06
6.65009e-07
-1.11814e-06
5.40057e-08
-1.81948e-06
-1.92369e-06
-1.13493e-06
1.20943e-06
1.10923e-06
-1.12624e-06
-1.72994e-06
-1.08878e-06
-1.76534e-06
1.11301e-06
1.97126e-06
-1.24705e-06
-1.92534e-06
1.20113e-06
-6.16155e-08
-7.56471e-07
-1.1056e-06
-6.72341e-07
-2.67776e-08
1.24157e-06
-1.7879e-06
-1.93094e-06
7.6837e-07
7.62994e-07
-1.97219e-06
1.17756e-06
-1.90289e-06
7.51166e-07
-4.67645e-08
-1.72538e-06
6.45904e-07
-1.9132e-06
-1.12335e-06
-1.14607e-06
-1.89212e-06
7.22007e-07
-1.86063e-06
-6.37333e-07
-1.10632e-06
1.37079e-08
-1.09783e-06
6.72241e-09
3.40103e-08
-1.23131e-06
1.73208e-06
-1.12647e-06
4.53544e-08
1.09513e-06
-1.76123e-06
2.87731e-08
-1.79061e-06
1.09159e-06
-1.12074e-06
-1.75373e-06
1.71267e-06
-1.8028e-06
-1.12172e-06
-2.08179e-06
1.22033e-06
-2.04583e-06
-6.39213e-07
-4.16747e-08
-4.72778e-08
-6.81975e-07
-1.85097e-06
1.62704e-06
-9.65795e-07
-5.76616e-07
-8.46261e-08
-9.9184e-07
1.65635e-06
-5.88247e-07
-7.62622e-08
-3.75922e-08
1.66175e-06
-1.0199e-06
-6.04254e-07
-5.9317e-07
1.66259e-06
-9.90076e-07
-7.93468e-08
1.05368e-06
6.55846e-07
-8.24936e-08
6.52856e-07
-5.91011e-07
1.0449e-06
-9.82225e-07
1.66016e-06
1.69261e-06
-1.00366e-06
-5.98702e-07
-9.02505e-08
-9.8276e-07
1.731e-06
-6.18958e-07
-1.29286e-07
-1.1008e-07
-1.02697e-06
1.78536e-06
-6.48309e-07
-5.92948e-07
-1.02513e-06
1.73875e-06
-1.20678e-07
1.09538e-06
6.9947e-07
-1.02243e-07
7.44899e-07
-6.32276e-07
1.13598e-06
-1.02945e-06
1.77079e-06
1.79633e-06
3.6402e-08
-1.16635e-06
-6.6638e-07
-1.16249e-06
4.90389e-10
1.91041e-06
-7.48405e-07
1.95208e-07
-1.72727e-06
2.45019e-06
-9.18127e-07
-8.09268e-07
-2.82221e-08
-1.29742e-06
2.13491e-06
1.12219e-06
6.4425e-07
2.98856e-08
6.96727e-07
-7.37029e-07
1.25781e-06
-1.42283e-06
2.14974e-06
1.71113e-06
-6.02829e-07
-1.01284e-06
-9.54624e-08
-1.00942e-06
-6.29803e-07
1.77408e-06
-1.3485e-07
-1.00198e-07
-6.33861e-07
-1.14948e-06
1.88354e-06
-5.85178e-07
-1.09484e-06
1.81358e-06
-1.33567e-07
1.12339e-06
6.91555e-07
-1.03816e-07
7.2719e-07
-6.13225e-07
1.20893e-06
-1.10255e-06
1.83592e-06
6.64647e-07
1.07364e-06
-8.19361e-08
-3.73367e-08
1.07478e-06
6.24306e-07
1.08299e-06
6.62966e-07
-8.33681e-08
-1.71144e-06
1.11218e-06
7.05866e-07
-1.06603e-07
-1.01537e-06
6.05659e-07
1.07435e-06
6.07462e-07
-1.01453e-06
-9.12526e-08
6.75929e-07
6.80794e-07
-6.10813e-07
-6.21861e-07
7.0891e-07
-1.10974e-06
7.40952e-07
-6.58181e-07
1.06463e-06
6.48618e-07
-6.38465e-07
1.71055e-06
4.46024e-08
5.92315e-08
1.73549e-06
-6.26261e-07
6.84982e-07
6.39272e-07
1.08585e-06
-1.10081e-06
1.10014e-06
-1.04e-06
-1.03833e-06
1.11439e-06
-6.94054e-07
1.25972e-06
-1.19953e-06
-5.43011e-08
1.75213e-06
-1.05856e-06
1.72177e-06
-7.02131e-08
1.12829e-06
1.77087e-06
-7.28418e-07
1.95992e-06
5.73481e-08
1.76596e-06
-1.12093e-06
1.86238e-06
6.72152e-07
1.1286e-06
1.07203e-06
6.92651e-07
1.82203e-06
-1.49956e-07
5.59134e-07
6.66827e-07
-1.1142e-06
-1.46698e-07
5.54937e-07
7.05956e-07
5.9127e-07
-1.77943e-07
7.59418e-07
6.86864e-07
-1.68043e-07
5.84223e-07
5.32191e-07
-1.24436e-06
5.62215e-07
-1.29502e-06
7.13016e-07
5.43754e-07
-1.59997e-07
-1.22243e-07
-1.16847e-06
5.46801e-07
7.43911e-07
-1.20613e-06
-6.60658e-08
5.19727e-07
7.52468e-07
5.21148e-07
-1.26813e-06
-7.13852e-08
8.18363e-07
7.7515e-07
-1.17728e-06
-1.34331e-07
5.36457e-07
6.60815e-07
-1.34433e-06
5.6127e-07
-1.30064e-06
7.55322e-07
7.05763e-07
-1.27494e-06
-7.3725e-08
-2.08456e-07
6.83976e-07
8.6012e-07
-1.33943e-06
5.39506e-07
-8.99247e-08
8.8985e-07
6.13176e-07
-8.41066e-08
9.20142e-07
8.87447e-07
6.88287e-07
-2.60963e-07
6.94822e-07
-1.60678e-06
7.035e-07
-1.51286e-06
8.68248e-07
6.69983e-07
-2.29698e-07
-2.0542e-07
7.03035e-07
6.06602e-07
-1.12069e-06
7.54277e-07
-2.11704e-07
5.78117e-07
6.32882e-07
7.62463e-07
-2.44984e-07
7.08739e-07
-2.72937e-07
6.04441e-07
5.02848e-07
-1.31299e-06
6.04717e-07
-1.35644e-06
7.38602e-07
4.9049e-07
-2.33073e-07
-1.29783e-06
5.77753e-07
5.73375e-07
6.09518e-07
5.87634e-07
-1.37509e-06
5.30569e-07
-1.27717e-06
5.78556e-07
1.55889e-07
5.98792e-07
-1.3408e-06
5.86117e-07
-1.18155e-06
-7.25149e-07
6.08869e-07
-7.32025e-07
-1.14603e-06
5.76769e-07
-1.34749e-06
-1.33101e-06
7.40291e-07
7.80796e-07
-1.35928e-06
-7.15731e-07
-1.38844e-06
8.36044e-07
1.25151e-06
-1.45458e-06
7.90712e-07
-1.26724e-07
-5.95414e-07
-6.20869e-07
-1.32145e-07
7.88236e-07
-1.46874e-06
-7.70842e-07
6.0518e-07
5.3888e-07
-1.19607e-06
6.09552e-07
1.4016e-06
5.61988e-07
6.38842e-07
-1.68116e-07
-1.69765e-07
6.27236e-07
6.0625e-07
-1.65428e-07
1.492e-06
-2.41728e-07
-5.92852e-07
-1.56877e-07
-7.3344e-07
-1.15492e-07
-8.32749e-07
1.37082e-06
1.2655e-06
-8.31364e-07
-1.58711e-07
6.09958e-08
1.59529e-06
-2.49103e-06
8.34747e-07
1.31247e-06
8.09673e-08
-2.1305e-06
7.37061e-07
-2.23318e-06
-6.44801e-08
1.44299e-06
8.54676e-07
8.23047e-07
5.04537e-08
1.29594e-06
-2.16944e-06
8.76828e-07
1.54992e-06
-2.36575e-06
1.36866e-06
8.20641e-07
8.36918e-07
1.53604e-06
-2.76048e-08
9.56242e-08
1.09359e-06
-1.84365e-06
6.54436e-07
1.06536e-06
8.31171e-08
-1.74244e-06
5.93968e-07
-1.76948e-06
1.09086e-06
6.87294e-08
6.09888e-07
5.98104e-07
1.03359e-06
6.66521e-08
-1.69835e-06
7.25378e-07
1.17161e-06
-1.80137e-06
1.16355e-06
6.27185e-07
6.85451e-07
1.08427e-06
7.95276e-08
-4.43009e-08
-1.8289e-06
1.18092e-06
6.9228e-07
1.08949e-06
-1.72469e-06
2.38963e-08
6.11307e-07
-1.65724e-06
1.06468e-06
-1.70317e-08
6.09591e-07
6.17495e-07
-1.72446e-06
1.1219e-06
-1.49373e-08
6.04133e-07
1.0773e-06
-1.72573e-06
1.0676e-06
6.26019e-07
5.78872e-07
1.11592e-06
-1.07642e-08
3.55308e-08
6.96054e-07
1.14671e-06
-1.8783e-06
1.09887e-06
5.97943e-07
5.83665e-08
-1.75518e-06
-1.80953e-06
6.39274e-07
1.15054e-06
1.97216e-08
6.64349e-07
1.06688e-06
7.79386e-08
-1.80916e-06
6.91342e-07
1.17254e-06
-1.82835e-06
1.14497e-06
6.45242e-07
6.90832e-07
1.14606e-06
2.62692e-08
1.32066e-06
8.71458e-07
-2.11115e-06
-1.93083e-06
7.05588e-07
1.16076e-06
8.2484e-07
1.31009e-06
-2.08448e-06
-7.42489e-08
7.08149e-07
1.19948e-06
-1.83338e-06
1.2058e-06
-6.51512e-07
7.66375e-07
-7.5264e-07
1.16222e-06
-1.88798e-06
1.23442e-06
1.24077e-06
7.24281e-07
6.11779e-07
1.12996e-06
-6.57865e-07
1.12316e-06
6.25562e-07
-1.19818e-06
1.17173e-06
7.32032e-07
6.05168e-08
1.94663e-06
1.75656e-06
4.38749e-08
7.04574e-07
1.14257e-06
-7.28938e-07
6.31282e-07
1.25842e-06
7.38853e-07
1.2673e-06
1.12536e-06
6.72065e-07
-1.13159e-06
6.10711e-07
1.16015e-06
-1.96526e-06
-1.06117e-08
1.24694e-06
8.01267e-09
-1.77861e-06
6.36414e-07
-2.58837e-08
-1.10698e-06
-6.76934e-09
1.75773e-06
4.42915e-08
-6.30916e-07
2.93848e-08
-6.30225e-07
-1.12139e-06
-1.10079e-06
-6.09737e-07
4.72057e-08
-1.1028e-06
4.01084e-07
6.72418e-07
6.82529e-07
-1.08455e-06
4.25069e-07
7.59293e-09
-1.08034e-06
3.99445e-07
6.73302e-07
4.09348e-07
-1.12926e-06
7.02576e-07
-6.89527e-07
-4.25555e-07
-4.13612e-07
4.06614e-07
-7.03963e-07
6.87756e-07
-1.10998e-06
-1.06222e-06
6.9296e-07
4.43493e-07
6.76291e-07
-1.0509e-06
4.47223e-07
-4.77279e-08
6.77916e-07
-1.06264e-06
4.32452e-07
4.42873e-07
6.8832e-07
-1.04536e-06
-6.17119e-07
-3.76583e-07
-3.80382e-07
4.39554e-07
-6.23738e-07
6.90028e-07
-1.05185e-06
-1.06364e-06
-1.5346e-08
4.13583e-07
6.65404e-07
6.73077e-07
-3.06956e-08
-1.06304e-06
4.20663e-07
-2.89585e-08
-1.05968e-06
4.23237e-07
6.65404e-07
4.25556e-07
-2.58569e-08
-1.08104e-06
6.81341e-07
-6.46865e-07
-3.96832e-07
-1.99439e-08
-3.9017e-07
4.16382e-07
-6.39358e-07
6.68082e-07
-1.05849e-06
-1.12429e-06
4.35942e-07
7.04771e-07
6.88217e-07
4.54594e-07
-1.07327e-06
-3.60171e-08
4.40097e-07
-1.10028e-06
6.96203e-07
4.69045e-07
-1.09314e-06
6.92946e-07
-6.51771e-07
-4.18518e-07
-4.08816e-07
4.45262e-07
-6.39327e-07
6.89854e-07
-1.08416e-06
-4.12063e-07
-6.58781e-07
-2.88549e-09
-6.73474e-07
-4.03981e-07
-6.99434e-07
-4.231e-07
1.10148e-06
-6.47623e-07
-4.08506e-07
6.9358e-07
-4.28695e-07
-6.76948e-07
-4.19288e-07
7.01561e-07
-4.17161e-07
-3.86569e-07
4.20747e-07
4.28015e-07
-3.87317e-07
6.45e-07
-3.91301e-07
4.24217e-07
-6.79701e-07
-4.00326e-07
4.06553e-07
-1.08111e-06
1.7597e-08
3.6929e-08
-1.0769e-06
4.14791e-07
-3.94967e-07
-4.15575e-07
-6.6503e-07
6.76624e-07
-6.80782e-07
6.93625e-07
6.87435e-07
-6.41347e-07
4.0735e-07
-6.54094e-07
6.86841e-07
-5.53307e-09
-1.10161e-06
6.91567e-07
-1.10348e-06
-2.92223e-08
-6.65035e-07
-1.0807e-06
4.01185e-07
-1.08114e-06
3.83705e-08
-1.06703e-06
6.4053e-07
-1.06253e-06
-4.2359e-07
-6.77057e-07
-6.8744e-07
-4.31494e-07
-1.08056e-06
-6.29143e-08
-1.09347e-06
8.14338e-07
3.4205e-07
7.82743e-07
-1.02411e-08
-1.08408e-06
3.11575e-07
-1.04138e-06
-3.20784e-08
7.7401e-07
2.99448e-07
2.88831e-07
-2.96834e-08
-1.02824e-06
7.69094e-07
2.77965e-07
7.66203e-07
-1.10708e-06
7.47008e-07
3.137e-07
2.61054e-07
7.93979e-07
-3.3318e-08
2.8146e-08
7.42115e-07
-1.02855e-06
2.58294e-07
7.54305e-07
-9.97504e-07
3.89544e-08
2.04245e-07
-9.85329e-07
7.4189e-07
1.67843e-08
2.26655e-07
2.09769e-07
7.73126e-07
-1.02007e-06
3.71714e-08
2.44099e-07
8.22611e-07
-1.03856e-06
7.76193e-07
2.22211e-07
2.35027e-07
7.97354e-07
2.58912e-08
-4.2139e-08
-9.3056e-07
7.0632e-07
2.66379e-07
7.25384e-07
-9.41294e-07
-9.944e-09
2.25854e-07
-8.9827e-07
7.02882e-07
-2.8505e-08
2.23893e-07
2.09845e-07
-9.37346e-07
7.51485e-07
-2.39832e-08
1.89917e-07
7.18183e-07
-9.50239e-07
6.88906e-07
2.26395e-07
1.90243e-07
7.37785e-07
-1.91208e-08
-2.3688e-09
2.17344e-07
-1.03136e-06
8.16386e-07
7.72655e-07
1.92664e-07
-9.79362e-07
1.40424e-08
-9.79281e-07
1.99024e-07
7.86806e-07
-6.54817e-09
2.08837e-07
-1.00601e-06
7.81832e-07
1.53415e-08
2.1187e-07
8.40438e-07
-1.05468e-06
7.87021e-07
1.97503e-07
2.10431e-07
8.38843e-07
1.81714e-08
8.1162e-07
2.72382e-07
-1.09424e-06
-1.00531e-06
2.21065e-07
7.52162e-07
2.26978e-07
8.04518e-07
-1.06118e-06
-9.01092e-09
2.28457e-07
7.99026e-07
-1.01847e-06
8.05113e-07
-2.30785e-07
2.37291e-07
-2.3351e-07
7.62857e-07
-1.00265e-06
7.56325e-07
7.43121e-07
2.71376e-07
2.10075e-07
7.91508e-07
-2.16969e-07
7.29125e-07
2.29733e-07
-7.24594e-07
6.67882e-07
2.77777e-07
7.40536e-09
9.73007e-07
1.01483e-06
-2.3183e-08
2.71596e-07
7.74683e-07
-2.32996e-07
2.3128e-07
7.53878e-07
1.93662e-07
8.28199e-07
7.84964e-07
2.06727e-07
-7.52513e-07
1.78622e-07
7.72915e-07
-9.66372e-07
-2.49939e-08
7.58369e-07
-1.63853e-08
-9.66082e-07
1.88576e-07
-3.13986e-08
-7.48804e-07
-9.92095e-09
9.82193e-07
1.60416e-08
-2.10759e-07
-1.41022e-09
-2.08437e-07
-7.73201e-07
-7.68665e-07
-2.09277e-07
4.25037e-09
-2.10493e-07
1.93253e-07
-1.03366e-06
-1.02859e-06
-2.18267e-07
1.84216e-07
2.00585e-07
-2.08219e-07
-1.03772e-06
1.03236e-06
-2.08086e-07
1.99071e-07
-1.02334e-06
8.3576e-07
-1.23645e-06
1.90197e-07
-1.24468e-06
8.29762e-07
-1.03385e-06
-2.1433e-07
-2.24481e-07
-1.01385e-06
1.7529e-07
-1.0062e-06
1.7585e-07
-2.29337e-07
1.73561e-07
-1.02357e-06
-2.31029e-07
1.05487e-06
-1.01591e-06
1.83949e-07
-2.22912e-07
8.33766e-07
-1.23372e-06
1.75469e-07
-1.23092e-06
8.35192e-07
-1.01403e-06
-2.22164e-07
-2.29877e-07
2.02575e-07
-1.04597e-06
-1.05437e-06
1.94548e-07
-2.40462e-07
2.22142e-07
-1.06935e-06
-2.45936e-07
1.05608e-06
2.1319e-07
-1.04124e-06
-2.28034e-07
8.41653e-07
-1.27021e-06
1.98681e-07
-1.29687e-06
8.34524e-07
-1.04866e-06
-2.40208e-07
-2.09205e-07
1.02036e-06
2.04875e-07
-1.01603e-06
-1.01975e-06
1.03875e-06
2.00753e-07
-2.19753e-07
2.11137e-07
1.02897e-06
-1.0223e-06
-2.178e-07
1.01425e-06
2.1019e-07
-1.0114e-06
-2.13045e-07
8.14829e-07
-1.22245e-06
1.98414e-07
-1.23563e-06
1.03071e-06
8.0715e-07
-1.01535e-06
-2.17342e-07
-1.23243e-06
8.38922e-07
1.75246e-07
1.92787e-07
8.45189e-07
-1.24619e-06
8.22972e-07
-1.22475e-06
1.93697e-07
2.16641e-07
8.27516e-07
-1.23101e-06
1.86859e-07
-1.01727e-06
-1.04484e-06
8.29674e-07
-1.03881e-06
-1.0176e-06
1.89398e-07
-1.23343e-06
-1.23746e-06
1.05219e-06
-1.24058e-06
-8.43423e-07
-1.26128e-06
1.03845e-06
-1.2603e-06
-2.2089e-07
-1.86894e-07
-1.82735e-07
-2.29004e-07
-1.25516e-06
-1.03921e-06
8.32917e-07
-1.0399e-06
8.17864e-07
-1.02226e-06
-1.01452e-06
8.22263e-07
1.23865e-06
8.19019e-07
-1.0287e-06
2.01372e-07
-2.13013e-07
-1.02757e-06
-2.14198e-07
1.98016e-07
8.27617e-07
-2.24806e-07
1.25855e-06
-2.26337e-07
-1.95349e-07
-2.22971e-07
-8.39759e-07
-2.26978e-07
-1.05404e-06
1.02792e-06
1.03212e-06
-1.067e-06
-2.30229e-07
2.34779e-07
-1.72127e-06
2.5379e-06
-1.05141e-06
1.85257e-06
5.38729e-08
-1.15695e-06
-7.49492e-07
-1.23383e-06
4.94853e-08
1.99108e-06
-8.0674e-07
-6.5152e-07
-3.11474e-08
-1.29099e-06
1.97366e-06
-6.30711e-07
2.15021e-06
-1.28472e-06
2.05149e-06
-8.29628e-07
-7.81267e-07
2.27995e-06
3.63958e-08
-2.79845e-08
1.66982e-06
-1.02092e-06
-6.20922e-07
1.61161e-06
-9.62605e-07
-5.73159e-07
-7.58464e-08
-9.89601e-07
1.6476e-06
-5.89941e-07
-6.80619e-08
-5.85749e-07
1.64941e-06
-1.00051e-06
-6.31503e-08
-6.3167e-07
1.589e-06
-9.85318e-07
1.55758e-06
-5.77639e-07
-6.34651e-07
1.6379e-06
-6.6672e-08
-6.14255e-08
-1.02508e-06
1.75124e-06
-6.64743e-07
1.69244e-06
-9.94466e-07
-6.18586e-07
-7.93859e-08
-9.73067e-07
1.72558e-06
-6.39809e-07
-1.12701e-07
-6.13586e-07
-9.93837e-07
1.71699e-06
-1.09569e-07
-6.97818e-07
1.64578e-06
-1.00939e-06
1.62166e-06
-6.27037e-07
-7.35914e-07
1.76811e-06
-8.73246e-08
-8.85821e-08
-6.45182e-07
-1.12804e-06
1.86181e-06
1.72824e-06
-6.01884e-07
-1.04905e-06
-7.72989e-08
-1.01166e-06
-6.35525e-07
1.76679e-06
-1.19605e-07
-6.18824e-07
-1.06614e-06
1.79997e-06
-1.15e-07
-6.9472e-07
1.70061e-06
-1.09448e-06
1.65092e-06
-6.17401e-07
-7.37276e-07
1.81907e-06
-9.8015e-08
1.77076e-06
-6.23469e-07
-1.09342e-06
-1.12378e-06
-6.57895e-07
1.83116e-06
-6.71733e-07
1.8017e-06
-1.16112e-06
3.50091e-08
-6.45652e-07
1.65953e-06
-1.04889e-06
1.77265e-06
6.44604e-07
-6.46487e-07
6.85267e-07
1.75909e-06
-1.07948e-06
1.77262e-06
1.69665e-06
-6.50298e-07
-6.02306e-07
1.60606e-06
6.51642e-07
1.59749e-06
-6.0153e-07
-1.73611e-06
1.73599e-06
-6.57771e-07
-1.6919e-08
1.06709e-06
1.01868e-06
-3.09264e-08
-6.38098e-07
1.6394e-06
6.54509e-07
-7.72444e-07
1.94909e-06
-7.76082e-07
1.9326e-06
1.71907e-06
-6.61422e-07
-1.65551e-06
-7.35653e-07
1.75564e-06
-1.05653e-06
-8.62487e-08
1.79728e-06
-5.99833e-08
-1.04169e-06
-7.0007e-07
-6.15341e-08
-1.63208e-06
-9.74137e-08
1.00524e-06
-6.06026e-08
6.75539e-07
-7.25143e-08
6.30588e-07
-1.70151e-06
-1.70156e-06
6.13423e-07
-8.28904e-08
3.467e-07
1.87957e-07
-1.42628e-06
8.91623e-07
8.71729e-07
3.46595e-07
1.76577e-07
-1.3949e-06
-1.40098e-06
3.39563e-07
1.79785e-07
8.81635e-07
1.85434e-07
3.4874e-07
-1.40838e-06
8.74204e-07
5.27824e-07
1.22858e-06
-1.40971e-06
1.21938e-06
1.80173e-07
5.23468e-07
8.90549e-07
3.41865e-07
3.44625e-07
8.70701e-07
1.64707e-07
-1.38003e-06
8.77093e-07
1.52868e-07
-1.37385e-06
3.43894e-07
-1.37316e-06
8.7371e-07
1.54552e-07
3.44902e-07
1.52171e-07
8.75303e-07
-1.37584e-06
3.48365e-07
4.9945e-07
1.22061e-06
-1.37544e-06
1.22088e-06
1.5566e-07
4.96628e-07
8.76156e-07
3.44348e-07
3.36474e-07
-1.38041e-06
1.70513e-07
8.73424e-07
8.6936e-07
-1.36883e-06
1.57789e-07
3.41677e-07
-1.36174e-06
1.58508e-07
8.67401e-07
3.35832e-07
1.55464e-07
-1.37178e-06
8.71112e-07
3.452e-07
4.96903e-07
1.21163e-06
-1.37206e-06
1.2061e-06
1.60166e-07
4.93178e-07
8.73917e-07
3.37535e-07
3.52081e-07
1.70997e-07
-1.39594e-06
8.72864e-07
8.73614e-07
1.52949e-07
-1.38012e-06
3.53561e-07
-1.38035e-06
1.5417e-07
8.73401e-07
3.52775e-07
1.5456e-07
-1.38717e-06
8.72704e-07
3.59906e-07
5.10499e-07
1.22994e-06
-1.38836e-06
1.22673e-06
1.5738e-07
5.07003e-07
8.77498e-07
3.53391e-07
1.22013e-06
5.13153e-07
-1.38669e-06
-1.3895e-06
5.10323e-07
1.21874e-06
5.20079e-07
1.22558e-06
-1.39692e-06
-3.48858e-07
5.04347e-07
1.22449e-06
-1.37998e-06
8.76646e-07
-1.65306e-07
5.08792e-07
-1.70994e-07
8.70935e-07
-1.3851e-06
1.22002e-06
1.21634e-06
1.67512e-07
1.55854e-07
1.2238e-06
-5.00237e-07
1.21496e-06
1.58986e-07
-8.72711e-07
1.21317e-06
1.69868e-07
3.43499e-07
1.38164e-06
1.37551e-06
3.42253e-07
1.66671e-07
1.21753e-06
-1.69544e-07
5.07597e-07
8.80691e-07
5.16076e-07
8.80501e-07
8.75389e-07
5.0205e-07
-1.22161e-06
4.99354e-07
8.76422e-07
-1.38891e-06
3.44086e-07
8.7528e-07
3.47186e-07
-1.37995e-06
5.02434e-07
3.40352e-07
-1.21846e-06
3.46035e-07
1.3762e-06
3.49646e-07
-4.95651e-07
3.41785e-07
-1.56822e-07
-8.74887e-07
-8.72845e-07
-1.53013e-07
3.50343e-07
1.74526e-06
1.09781e-06
-2.3838e-06
-4.59269e-07
-2.67909e-06
1.79816e-06
1.09194e-06
-2.11017e-07
1.16175e-06
1.84537e-06
-2.54255e-06
-4.64573e-07
-3.04672e-07
1.32155e-06
8.42473e-07
-1.85935e-06
1.44901e-06
-6.45723e-07
9.41979e-07
-7.75474e-07
-4.54606e-07
1.31176e-06
-2.26215e-06
1.69803e-06
1.84061e-06
-2.70564e-06
1.1105e-06
-2.45469e-07
-2.73462e-06
1.88881e-06
1.15706e-06
-3.11259e-07
1.28174e-06
-2.92432e-06
2.04857e-06
-4.05981e-07
-3.35423e-07
-2.13969e-06
1.53176e-06
9.4336e-07
1.52854e-06
-8.68531e-07
1.1806e-06
-8.78935e-07
-3.27146e-07
1.54495e-06
-2.7489e-06
1.94776e-06
1.93409e-06
1.23204e-06
-2.72567e-06
-4.40457e-07
-2.87549e-06
1.3076e-06
1.98551e-06
-4.17617e-07
1.29937e-06
1.85528e-06
-2.75452e-06
-4.00128e-07
-3.40621e-07
9.61508e-07
1.63433e-06
-2.25521e-06
1.55483e-06
-8.99371e-07
1.27862e-06
-9.11079e-07
-4.09579e-07
1.51754e-06
-2.75754e-06
1.90584e-06
1.26152e-06
-2.26881e-07
7.62664e-07
-1.7973e-06
-1.83084e-06
-2.48597e-07
1.29744e-06
7.81999e-07
7.87e-07
-2.52096e-07
1.31822e-06
-1.85313e-06
-2.06263e-07
1.13342e-06
6.95317e-07
-1.62248e-06
1.04599e-06
-5.62427e-07
7.77954e-07
-5.4493e-07
-2.39923e-07
1.02269e-06
-1.79138e-06
1.26476e-06
-7.8618e-07
1.48362e-06
1.10072e-06
1.15278e-06
1.48219e-06
-7.89606e-07
1.06782e-06
-5.73489e-07
8.27214e-07
-1.42582e-06
1.17052e-06
-6.30033e-07
8.8534e-07
-2.53885e-06
3.18887e-07
1.43378e-06
3.11969e-07
-1.96858e-06
8.61644e-07
-5.88791e-07
-8.27083e-07
-3.94934e-07
-3.16462e-07
-6.52715e-07
-1.60057e-06
-8.86104e-07
-4.3765e-07
2.72428e-06
-8.09649e-07
-4.3244e-07
1.81113e-06
-1.20443e-06
-1.25423e-06
1.96073e-06
-4.40877e-07
-8.94075e-07
3.23583e-07
1.40427e-06
-2.51745e-06
1.08605e-06
-1.88642e-06
-2.06684e-06
1.18821e-06
6.28183e-07
1.1559e-06
-2.03618e-06
8.97542e-07
1.49862e-06
-2.07258e-06
1.3948e-06
9.11966e-07
1.21484e-06
1.82666e-06
6.31378e-07
1.48603e-06
-9.75577e-07
1.51107e-06
-1.51697e-06
1.93846e-06
3.29775e-07
2.77551e-06
2.17599e-06
3.64469e-07
1.56488e-06
1.79194e-06
1.11237e-06
-2.48295e-06
-4.21363e-07
-2.58369e-06
1.74242e-06
1.05221e-06
-2.10935e-07
1.08235e-06
1.76182e-06
-2.42835e-06
-4.15813e-07
-3.15897e-07
1.37849e-06
8.45524e-07
-1.90811e-06
1.43405e-06
-6.42932e-07
1.00082e-06
-7.21769e-07
-4.27874e-07
1.27964e-06
-2.23847e-06
1.64021e-06
1.74508e-06
-2.58226e-06
1.04688e-06
-2.09703e-07
-2.53996e-06
1.75202e-06
1.09079e-06
-3.02848e-07
1.18364e-06
-2.68515e-06
1.89075e-06
-3.89247e-07
-3.32277e-07
-2.12408e-06
1.52639e-06
9.29968e-07
1.42849e-06
-7.89788e-07
1.10638e-06
-7.92072e-07
-3.19406e-07
1.47383e-06
-2.59589e-06
1.8654e-06
1.83945e-06
1.14917e-06
-2.56365e-06
-4.24961e-07
-2.67368e-06
1.16886e-06
1.90012e-06
-3.95304e-07
1.18413e-06
2.01892e-06
-2.79652e-06
-4.06536e-07
-3.08242e-07
9.63318e-07
1.60775e-06
-2.26282e-06
1.48074e-06
-8.07567e-07
1.16628e-06
-7.95411e-07
-3.97536e-07
1.47698e-06
-2.59279e-06
1.86571e-06
1.21411e-06
-2.34983e-07
7.24323e-07
-1.70345e-06
-1.76215e-06
-2.5288e-07
1.26868e-06
7.46346e-07
7.5665e-07
-2.48752e-07
1.2938e-06
-1.8017e-06
-2.05534e-07
1.15017e-06
6.82435e-07
-1.62707e-06
9.99745e-07
-5.0646e-07
7.20828e-07
-5.1595e-07
-2.46453e-07
1.00735e-06
-1.71934e-06
1.24805e-06
-7.26338e-07
1.43362e-06
1.03514e-06
1.09733e-06
1.41087e-06
-7.46389e-07
1.09471e-06
-5.71878e-07
8.5565e-07
-1.43919e-06
1.16879e-06
-6.21595e-07
8.91996e-07
-2.42784e-06
3.22187e-07
1.37931e-06
3.09709e-07
-1.98163e-06
8.64627e-07
-5.77206e-07
-7.65643e-07
-3.82989e-07
-3.14366e-07
-6.40922e-07
-1.49242e-06
-8.02206e-07
-3.90523e-07
2.57141e-06
-7.55785e-07
-4.04751e-07
1.74959e-06
-1.13592e-06
-1.16067e-06
1.85031e-06
-4.14827e-07
-8.02775e-07
3.12732e-07
1.34105e-06
-2.40017e-06
1.08751e-06
-1.89437e-06
-2.04967e-06
1.17519e-06
6.28405e-07
1.18598e-06
-2.06314e-06
8.82763e-07
1.47714e-06
-2.04717e-06
1.39306e-06
9.03059e-07
1.20248e-06
1.73444e-06
6.51006e-07
1.4983e-06
-9.59216e-07
1.49349e-06
-1.4282e-06
1.79486e-06
3.30715e-07
2.57e-06
2.1842e-06
3.39021e-07
1.56401e-06
-8.69147e-07
7.47653e-07
3.63376e-07
-2.41882e-07
7.50442e-07
-8.73357e-07
3.66218e-07
-2.43303e-07
3.75396e-07
-8.82588e-07
7.65139e-07
-2.57947e-07
-2.55004e-07
-8.80798e-07
7.62614e-07
3.73189e-07
-1.11386e-06
-1.20428e-07
3.65144e-07
-1.20444e-07
-2.42976e-07
-1.13662e-06
7.61193e-07
-8.81673e-07
-8.75443e-07
7.52248e-07
3.66309e-07
-2.43115e-07
7.50993e-07
-8.75551e-07
3.63416e-07
-2.38857e-07
3.72366e-07
7.59967e-07
-8.82249e-07
-2.50084e-07
-2.45021e-07
7.56021e-07
-8.78126e-07
3.67126e-07
-1.11594e-06
-1.24231e-07
3.64731e-07
-1.2416e-07
-2.40789e-07
-1.12651e-06
7.57255e-07
-8.78301e-07
-8.96935e-07
3.87041e-07
7.78531e-07
-2.68637e-07
7.74089e-07
3.84127e-07
-8.93681e-07
-2.64535e-07
3.9924e-07
7.89844e-07
-9.14886e-07
-2.74198e-07
-2.70478e-07
3.90478e-07
7.82112e-07
-9.02112e-07
-1.16298e-06
-1.20299e-07
3.86344e-07
-1.2211e-07
-2.6678e-07
-1.1799e-06
7.89126e-07
-9.02773e-07
-8.85039e-07
-2.6003e-07
7.68436e-07
3.76633e-07
7.61013e-07
-2.50164e-07
-8.81228e-07
3.70378e-07
3.82115e-07
-2.63291e-07
7.73556e-07
-8.9238e-07
-2.56071e-07
7.66456e-07
-8.85481e-07
3.75096e-07
-1.13806e-06
-1.20268e-07
3.73287e-07
-1.21517e-07
-2.55527e-07
-1.14643e-06
7.70095e-07
-8.85837e-07
-1.22105e-07
-1.11756e-06
3.66307e-07
3.75448e-07
-1.13962e-06
-1.18416e-07
-1.1348e-06
-1.18586e-07
3.72593e-07
8.80105e-07
-1.12775e-06
-1.21972e-07
3.69615e-07
7.61807e-07
2.50346e-07
-1.13426e-06
2.55581e-07
7.59643e-07
3.70808e-07
-1.1958e-07
-1.22252e-07
-2.43059e-07
-2.49335e-07
-1.22392e-07
1.1348e-06
-1.22498e-07
-2.52338e-07
-7.63752e-07
-1.18797e-07
-2.5707e-07
-8.8139e-07
-3.7512e-07
-3.7347e-07
-8.83356e-07
-2.55516e-07
-1.22023e-07
2.66815e-07
-1.1622e-06
7.76969e-07
-1.14941e-06
7.70796e-07
7.63358e-07
-1.13549e-06
1.20646e-07
-1.16138e-06
7.77446e-07
3.81996e-07
-8.92482e-07
7.77301e-07
-8.86995e-07
3.79165e-07
-1.151e-06
-8.93957e-07
1.218e-07
-8.92705e-07
-3.76014e-07
-8.81871e-07
1.14837e-06
-8.86744e-07
2.62951e-07
-7.70563e-07
-7.6625e-07
2.55787e-07
-8.86477e-07
1.01035e-06
1.74953e-07
-6.09243e-07
-5.76061e-07
2.0405e-07
9.84057e-07
-6.05191e-07
-5.82916e-07
-5.62932e-07
1.16149e-06
8.99221e-08
-6.88478e-07
-6.62548e-07
1.10521e-06
1.70302e-07
-6.12961e-07
3.79377e-07
1.22093e-06
-5.89959e-07
1.20824e-06
-6.24812e-07
4.13512e-07
1.44871e-07
1.05882e-06
9.71704e-07
2.1473e-07
-6.01444e-07
-5.8499e-07
2.2287e-07
-6.01383e-07
-5.87282e-07
-5.79515e-07
1.86325e-07
-6.26713e-07
-6.18751e-07
2.19361e-07
-5.90686e-07
3.63851e-07
1.19498e-06
-5.87131e-07
1.19421e-06
-6.07487e-07
3.67531e-07
2.08702e-07
1.34722e-06
-5.40613e-07
3.47224e-08
-8.41334e-07
1.4833e-07
-5.90093e-07
-7.24584e-07
-7.37943e-07
1.11075e-07
-1.1004e-06
-7.96941e-07
-7.3127e-07
2.30788e-07
5.29206e-07
1.47912e-06
-6.61103e-07
1.54412e-06
-8.66587e-07
6.16647e-07
6.5534e-08
1.12362e-06
-6.75186e-07
2.16058e-07
-6.64492e-07
2.282e-07
-6.35271e-07
-6.05765e-07
-6.86235e-07
-6.9657e-07
2.33324e-07
-6.5121e-07
2.37262e-07
-6.80891e-07
4.51378e-07
1.33931e-06
-6.67071e-07
1.33106e-06
-6.51478e-07
4.57734e-07
2.3037e-07
1.19529e-06
3.69037e-07
-5.8027e-07
-5.85615e-07
4.40145e-07
1.30696e-06
4.28921e-07
1.30311e-06
-6.26825e-07
-1.01437e-06
3.83533e-07
1.23506e-06
-6.04229e-07
1.7902e-07
6.30529e-07
3.85742e-07
6.52224e-07
1.96136e-07
-5.79975e-07
1.27728e-06
1.19932e-06
-6.15547e-07
-6.36303e-07
1.2392e-06
-4.03909e-07
1.25025e-06
-6.60013e-07
-1.55294e-07
1.29951e-06
-7.04075e-07
1.01025e-06
5.74803e-07
5.82652e-07
1.06703e-06
-6.47517e-07
1.24577e-06
7.4695e-07
4.69498e-07
9.05097e-08
4.55468e-07
1.7246e-07
1.94687e-07
4.05107e-07
-1.3697e-06
5.14449e-07
1.5868e-07
-6.06982e-07
1.19892e-06
1.55011e-07
1.12577e-06
-6.68976e-07
4.982e-07
1.2284e-06
-1.41635e-06
6.04302e-07
-4.40659e-07
7.07696e-07
-1.404e-07
-2.10451e-07
6.6471e-07
-1.15538e-07
-1.00693e-06
8.07668e-07
3.14804e-07
7.69381e-07
-4.16838e-08
-1.03842e-06
3.10722e-07
-9.60747e-07
-8.46408e-08
7.57944e-07
2.87443e-07
2.85967e-07
-8.32598e-08
-9.6003e-07
7.57323e-07
2.25875e-07
6.87558e-07
-1.02897e-06
6.83868e-07
3.11388e-07
2.04145e-07
7.69379e-07
-7.27332e-08
3.84749e-10
7.25529e-07
-9.8397e-07
2.58056e-07
7.11093e-07
-9.67674e-07
3.99574e-08
2.16624e-07
-9.57431e-07
7.08284e-07
7.78798e-09
2.41359e-07
2.43351e-07
7.20681e-07
-9.86001e-07
2.19695e-08
2.41494e-07
7.65122e-07
-1.00623e-06
7.17357e-07
2.3523e-07
2.3961e-07
7.68863e-07
-4.63442e-10
-7.09874e-08
-8.84671e-07
6.88876e-07
2.66783e-07
6.87887e-07
-9.10922e-07
-2.14201e-08
2.44456e-07
-8.6375e-07
6.69228e-07
-4.60175e-08
2.40539e-07
2.37167e-07
-8.95232e-07
7.04017e-07
-4.59519e-08
1.86579e-07
6.44126e-07
-9.01692e-07
6.29282e-07
2.45184e-07
1.86586e-07
6.94706e-07
-4.78827e-08
-3.1676e-08
2.41386e-07
-9.87449e-07
7.7774e-07
7.2545e-07
2.10989e-07
-9.40168e-07
3.72973e-09
-9.47666e-07
2.2646e-07
7.38905e-07
-1.76979e-08
2.35272e-07
-9.73156e-07
7.33547e-07
4.33648e-09
2.12431e-07
7.62581e-07
-1.00669e-06
7.19272e-07
2.18609e-07
2.15014e-07
7.82839e-07
-1.33797e-08
7.75717e-07
2.44114e-07
-1.06151e-06
-9.63964e-07
1.85718e-07
6.93606e-07
1.87837e-07
7.17061e-07
-9.88158e-07
1.86104e-08
2.21673e-07
7.40911e-07
-9.81195e-07
7.99475e-07
-2.38576e-07
2.14818e-07
-2.37223e-07
7.46246e-07
-9.66211e-07
6.9686e-07
6.97126e-07
2.72517e-07
2.26121e-07
7.16233e-07
-2.08318e-07
6.74127e-07
2.42475e-07
-7.09595e-07
6.17118e-07
2.78195e-07
-2.21874e-08
9.34132e-07
9.72797e-07
-4.98485e-08
2.74385e-07
7.14631e-07
-2.45996e-07
2.04239e-07
7.35362e-07
1.66172e-07
7.92275e-07
7.46077e-07
2.05823e-07
-6.71243e-07
1.74415e-07
7.23287e-07
-9.14589e-07
-6.06262e-08
7.29219e-07
-5.15569e-08
-9.13129e-07
1.8126e-07
-6.33135e-08
-6.77699e-07
-4.31183e-08
9.39854e-07
-1.77973e-08
-2.07069e-07
-2.9725e-08
-2.2986e-07
-7.35145e-07
-7.263e-07
-2.27583e-07
-1.40294e-08
-7.88749e-07
6.98492e-07
1.92836e-07
-1.02579e-07
-1.13682e-07
-7.74799e-07
7.00376e-07
1.88105e-07
1.94642e-07
-7.91954e-07
7.11045e-07
-1.13732e-07
7.06761e-07
-7.87794e-07
1.96149e-07
-1.15115e-07
-8.26777e-08
-8.98192e-07
1.9212e-07
-8.9863e-07
7.02271e-07
-8.14885e-08
-1.09942e-07
-7.85477e-07
-7.61579e-07
-1.23784e-07
7.01734e-07
1.83629e-07
-1.33632e-07
7.02145e-07
1.79141e-07
1.86947e-07
-1.28248e-07
7.06441e-07
7.06929e-07
-1.29837e-07
1.85522e-07
-5.44207e-08
-8.91114e-07
1.83955e-07
-8.91519e-07
7.03466e-07
-5.662e-08
-1.27565e-07
-7.93338e-07
1.98745e-07
7.24331e-07
-1.29738e-07
-1.32739e-07
1.96611e-07
7.14659e-07
2.10474e-07
7.21874e-07
-1.42504e-07
7.15303e-07
2.05296e-07
-1.38488e-07
-7.17276e-08
-9.23051e-07
2.0144e-07
-9.2488e-07
7.20413e-07
-7.47201e-08
-1.33028e-07
-7.78484e-07
7.11854e-07
1.94662e-07
-1.28032e-07
-1.31209e-07
7.1033e-07
1.89314e-07
1.97742e-07
7.11461e-07
-1.35648e-07
7.13036e-07
1.89789e-07
-1.36369e-07
-6.46229e-08
-9.06185e-07
1.92323e-07
-9.06631e-07
7.10799e-07
-6.12072e-08
-1.31942e-07
-8.94753e-07
-6.8445e-08
1.884e-07
1.96184e-07
-7.75656e-08
-9.10572e-07
-7.62184e-08
-9.06137e-07
1.94561e-07
7.7498e-07
-6.45194e-08
-9.00288e-07
1.89828e-07
-1.18843e-07
-7.07159e-07
-6.87498e-08
-7.08136e-07
-1.21344e-07
1.89164e-07
-9.05698e-07
-8.96173e-07
7.03944e-07
7.0814e-07
-9.02496e-07
6.76535e-08
-9.06743e-07
7.10841e-07
1.20363e-07
-9.12357e-07
7.14429e-07
-7.73519e-07
-1.91403e-07
-1.92945e-07
-7.81945e-07
7.10905e-07
-9.07236e-07
-7.14858e-07
-7.40438e-08
-1.2167e-07
-7.03261e-08
-1.23956e-07
-1.28168e-07
-6.17904e-08
9.13066e-07
-6.87279e-08
-1.32877e-07
1.95919e-07
-7.86801e-07
-1.23976e-07
-7.80105e-07
1.97474e-07
-7.1208e-08
-7.87656e-07
9.14014e-07
-1.93491e-07
6.68368e-08
-7.12585e-07
1.26369e-07
1.30221e-07
-7.14031e-07
1.99895e-06
-4.01327e-07
2.5766e-07
-5.88355e-07
2.26561e-06
3.08253e-07
-1.76567e-06
2.02165e-06
-5.20089e-07
2.64113e-07
2.79265e-07
1.84008e-06
-4.85018e-07
2.3709e-06
1.53388e-06
1.51177e-06
2.70776e-07
2.32617e-06
-5.13027e-07
2.07228e-06
2.34512e-06
-6.40523e-07
3.43973e-07
-6.52855e-07
2.25576e-06
2.8591e-07
-1.93162e-06
-6.28306e-07
2.24519e-06
3.14735e-07
2.51591e-07
-5.01385e-07