# Region type : patch pressure_outlet
# Faces       : 354
# Area        : 3.066803e-04
# Scale factor: 1.000000e+00
# Time        	sum(phi)
1             	-1.163100e-06
2             	-4.158053e-06
3             	-1.090696e-05
4             	6.657523e-06
5             	-7.636175e-06
6             	2.071657e-06
7             	4.117388e-06
8             	7.089964e-06
9             	9.587569e-06
10            	8.570379e-06
11            	4.379275e-06
12            	5.543065e-07
13            	-4.870747e-06
14            	-5.176255e-06
15            	-4.480189e-06
16            	1.383094e-06
17            	5.788443e-07
18            	6.655696e-07
19            	2.819223e-06
20            	3.410736e-06
21            	2.403344e-06
22            	2.186857e-07
23            	-1.627238e-06
24            	-8.985354e-07
25            	-1.426149e-06
26            	-1.396513e-06
27            	3.029701e-07
28            	-2.717598e-07
29            	1.304950e-06
30            	2.533626e-07
31            	8.414458e-07
32            	-3.139994e-08
33            	-4.464753e-07
34            	4.316189e-07
35            	3.075475e-07
36            	1.774125e-07
37            	1.276270e-07
38            	3.572169e-07
39            	-7.047912e-08
40            	2.900668e-07
41            	2.017294e-07
42            	-7.982156e-08
43            	-2.332825e-07
44            	-2.369147e-07
45            	-2.060251e-07
46            	-1.523066e-07
47            	4.227110e-08
48            	3.351710e-09
49            	1.757480e-07
50            	-2.376077e-08
51            	9.226642e-08
52            	2.850557e-08
53            	-7.886334e-08
54            	-6.698925e-08
55            	-1.143581e-07
56            	-6.949072e-08
57            	-2.672600e-08
58            	-2.750783e-10
59            	1.027541e-07
60            	1.135768e-07
61            	1.060299e-07
62            	1.061944e-07
63            	-6.963549e-08
64            	-4.215264e-08
65            	-3.198954e-08
66            	-2.041928e-08
67            	-2.978296e-08
68            	4.401290e-08
69            	3.656796e-08
70            	3.409231e-08
71            	3.867583e-08
72            	4.697104e-08
73            	5.257925e-08
74            	-3.018699e-08
75            	-4.201274e-08
76            	-4.043702e-08
77            	-3.045295e-08
78            	3.115772e-08
79            	4.118640e-08
80            	4.174316e-08
81            	4.460760e-08
82            	4.599021e-08
83            	3.414572e-08
84            	1.055885e-08
85            	-1.129750e-09
86            	-6.639607e-09
87            	4.127581e-09
88            	2.299465e-08
89            	1.839804e-08
90            	1.666087e-08
91            	1.594565e-08
92            	1.550605e-08
93            	1.476637e-08
94            	3.248423e-08
95            	4.692802e-08
96            	4.887777e-08
97            	2.698931e-08
98            	2.812551e-08
99            	1.181858e-08
100           	5.345858e-08
101           	5.359039e-08
102           	5.081715e-08
103           	4.268930e-08
104           	3.923857e-08
105           	4.988884e-08
106           	1.888489e-08
107           	1.006093e-08
108           	1.256759e-08
109           	6.500822e-09
110           	8.559567e-09
111           	1.746863e-08
112           	1.224220e-08
113           	3.588450e-09
114           	5.292980e-10
115           	1.167187e-08
116           	1.072115e-08
117           	7.037015e-09
118           	7.408350e-09
119           	5.812728e-09
120           	-8.188488e-09
121           	-1.309443e-08
122           	-1.535078e-08
123           	-1.266323e-08
124           	-3.089373e-08
125           	-2.245226e-08
126           	-1.579822e-08
127           	-2.947887e-09
128           	6.010818e-09
129           	1.574840e-08
130           	1.505542e-08
131           	1.385743e-08
132           	6.171062e-09
133           	2.845125e-09
134           	-2.210222e-09
135           	-5.903344e-09
136           	-3.446118e-09
137           	-3.671534e-09
138           	-2.664634e-09
139           	2.480522e-09
140           	5.145195e-09
141           	5.047152e-09
142           	5.555323e-09
143           	6.438953e-09
144           	7.651777e-09
145           	8.499315e-09
146           	6.502248e-09
147           	7.102911e-09
148           	6.780350e-09
149           	6.464604e-09
150           	5.922579e-09
151           	5.005745e-09
152           	4.316216e-09
153           	5.262953e-09
154           	6.010596e-09
155           	6.175122e-09
156           	6.720019e-09
157           	-1.240463e-09
158           	-5.787710e-09
159           	-5.402703e-09
160           	-4.473577e-09
161           	-2.746026e-09
162           	-1.548276e-09
163           	-1.168855e-09
164           	-3.016492e-10
165           	1.433705e-09
166           	2.097094e-09
167           	2.882338e-09
168           	1.932891e-09
169           	3.448869e-09
170           	-8.556826e-10
171           	-8.758144e-09
172           	-4.580855e-09
173           	-1.555550e-09
174           	-1.730768e-09
175           	-2.296021e-09
176           	-2.935275e-09
177           	-3.258761e-09
178           	-4.983556e-09
179           	-7.341650e-09
180           	-6.305674e-09
181           	-4.766817e-09
182           	-1.540239e-09
183           	-3.229727e-10
184           	1.090884e-09
185           	1.488695e-09
186           	7.438808e-10
187           	3.858176e-11
188           	-1.713393e-09
189           	-3.891825e-09
190           	-2.828902e-09
191           	-2.079193e-09
192           	-7.500732e-10
193           	-5.448760e-10
194           	-4.305572e-10
195           	-5.308708e-10
196           	6.285025e-11
197           	9.786894e-11
198           	2.012848e-10
199           	5.838863e-10
200           	1.747211e-09
201           	1.235927e-09
202           	3.087530e-10
203           	-9.529428e-10
204           	-6.272674e-10
205           	-6.503440e-10
206           	-1.839657e-09
207           	-4.070612e-09
208           	-5.480404e-09
209           	-5.561960e-09
210           	-5.458944e-09
211           	-3.339200e-09
212           	-4.415607e-09
213           	-3.563635e-09
214           	-4.469626e-09
215           	-3.152248e-09
216           	-2.468308e-09
217           	-2.665633e-09
218           	-2.384426e-09
219           	-4.785567e-09
220           	-6.397404e-09
221           	4.959754e-09
222           	4.788185e-09
223           	4.106522e-09
224           	3.513568e-09
225           	1.730465e-09
226           	-3.875472e-09
227           	-4.650817e-09
228           	-4.144572e-09
229           	-5.259663e-09
230           	-4.918128e-09
231           	-4.027510e-09
232           	-4.295618e-09
233           	-3.910382e-09
234           	-4.303758e-09
235           	-4.392844e-09
236           	-3.667235e-09
237           	-3.998906e-09
238           	-3.521661e-09
239           	-1.826464e-09
240           	-2.705473e-09
241           	-3.376825e-09
242           	-4.364353e-09
243           	-5.116875e-09
244           	-6.072457e-09
245           	-5.542106e-09
246           	-5.081570e-09
247           	-4.664056e-09
248           	-3.702518e-09
249           	1.463596e-09
250           	-1.890051e-09
251           	4.528496e-10
252           	-3.083968e-09
253           	-3.322950e-09
254           	-1.840080e-09
255           	-2.884259e-09
256           	-2.085682e-09
257           	-3.743271e-09
258           	-2.939195e-09
259           	-5.949963e-10
260           	-3.915099e-09
261           	4.422846e-09
262           	-2.542969e-09
263           	4.587664e-09
264           	1.251753e-09
265           	3.845300e-09
266           	1.597163e-09
267           	3.566814e-09
268           	4.519484e-10
269           	1.114309e-09
270           	3.499534e-09
271           	1.141095e-09
272           	1.848232e-09
273           	-2.127776e-09
274           	-1.634364e-09
275           	3.974699e-09
276           	-9.280351e-10
277           	3.091980e-09
278           	-4.332078e-10
279           	2.677594e-09
280           	1.051723e-11
281           	2.600755e-09
282           	-1.049226e-09
283           	2.536610e-09
284           	-4.081393e-09
285           	2.961155e-09
286           	-1.678746e-09
287           	2.886693e-09
288           	-5.614519e-10
289           	1.218544e-09
290           	-1.104843e-09
291           	5.357616e-10
292           	-2.441618e-09
293           	-1.349674e-09
294           	-1.134591e-09
295           	2.591174e-09
296           	-2.762875e-09
297           	7.952346e-10
298           	-7.380327e-10
299           	1.747270e-09
300           	-9.250167e-10
301           	9.637048e-10
302           	-1.218151e-09
303           	-1.273662e-09
304           	-1.378449e-09
305           	4.635835e-10
306           	-9.258932e-10
307           	2.156925e-09
308           	-4.210335e-10
309           	3.056655e-09
310           	-1.242989e-09
311           	-1.137248e-09
312           	4.189379e-10
313           	-1.695031e-09
314           	-7.973958e-10
315           	-1.447663e-09
316           	-5.348314e-10
317           	3.248395e-09
318           	-3.035937e-10
319           	2.542878e-09
320           	-8.895526e-10
321           	-6.616793e-10
322           	-5.598287e-10
323           	-1.181449e-09
324           	-8.303807e-10
325           	-2.087290e-09
326           	-1.340677e-09
327           	-5.763304e-09
328           	-2.321028e-10
329           	-3.667155e-09
330           	-7.265476e-10
331           	-3.100901e-09
332           	-1.261398e-09
333           	-1.835036e-09
334           	-4.392502e-10
335           	-7.231608e-10
336           	3.475053e-10
337           	-1.245024e-09
338           	8.801173e-10
339           	-3.543357e-09
340           	2.492719e-09
341           	-4.767347e-10
342           	3.620259e-09
343           	1.171395e-09
344           	3.144186e-09
345           	7.457394e-10
346           	2.840417e-09
347           	-4.725406e-10
348           	2.886330e-09
349           	-1.399111e-09
350           	5.349658e-10
351           	4.054028e-10
352           	-3.264128e-09
353           	-2.086911e-09
354           	-3.714200e-09
355           	-1.646673e-09
356           	-4.918623e-09
357           	-1.684482e-09
358           	-7.359755e-09
359           	1.056398e-09
360           	-2.903445e-09
361           	-1.103764e-09
362           	-1.107641e-09
363           	-1.340290e-09
364           	-1.372217e-09
365           	1.693492e-09
366           	-9.339725e-11
367           	2.339741e-09
368           	1.450961e-10
369           	-1.431755e-09
370           	1.431708e-11
371           	-1.532063e-09
372           	1.569561e-09
373           	-1.333610e-09
374           	2.599279e-09
375           	-1.559441e-09
376           	-3.367957e-10
377           	-7.257643e-10
378           	-1.280014e-09
379           	9.852461e-10
380           	1.349706e-09
381           	-3.430593e-10
382           	-7.599754e-10
383           	-5.735170e-10
384           	-1.272174e-09
385           	6.409787e-11
386           	-1.201347e-09
387           	2.815172e-09
388           	-4.093473e-10
389           	1.040662e-09
390           	-1.724215e-09
391           	1.797116e-10
392           	-7.106679e-10
393           	2.308328e-09
394           	2.551240e-09
395           	4.484844e-09
396           	6.345449e-09
397           	2.322391e-09
398           	-6.742507e-09
399           	2.111823e-09
400           	-7.011699e-09
401           	2.229047e-09
402           	-7.744699e-09
403           	4.224630e-10
404           	-9.997593e-09
405           	1.539220e-10
406           	-8.871792e-09
407           	3.988328e-09
408           	3.165715e-09
409           	3.006556e-09
410           	1.704251e-09
411           	-2.662776e-09
412           	-8.144510e-09
413           	-3.631489e-09
414           	-1.844488e-08
415           	2.640708e-09
416           	-2.085579e-08
417           	-2.093242e-09
418           	-2.410967e-08
419           	-1.112970e-10
420           	4.263241e-09
421           	1.418779e-09
422           	3.317437e-09
423           	-7.887446e-10
424           	-1.752523e-08
425           	-5.584093e-09
426           	-1.605236e-08
427           	-5.667569e-09
428           	-2.205567e-08
429           	-2.319904e-09
430           	-2.621244e-08
431           	-3.472820e-09
432           	-2.710486e-08
433           	-5.781287e-09
434           	-2.456598e-08
435           	-7.874065e-09
436           	-1.590013e-08
437           	-4.822535e-09
438           	-1.365799e-08
439           	-3.701368e-09
440           	-1.773047e-08
441           	-5.610299e-09
442           	-1.846267e-08
443           	-6.549417e-09
444           	-1.307116e-08
445           	-7.568641e-09
446           	-9.765332e-09
447           	-1.925545e-09
448           	2.422188e-10
449           	9.362611e-09
450           	8.295130e-09
451           	8.746459e-09
452           	9.539534e-09
453           	5.305311e-10
454           	-1.508499e-08
455           	-4.247269e-09
456           	-2.519986e-08
457           	-5.572263e-09
458           	-2.704758e-08
459           	-6.719824e-09
460           	2.992568e-09
461           	1.004304e-08
462           	4.412507e-09
463           	1.019182e-08
464           	4.949905e-09
465           	9.407931e-09
466           	2.860555e-09
467           	1.064152e-08
468           	-8.004766e-10
469           	9.427220e-09
470           	-2.586480e-08
471           	-1.111490e-08
472           	-2.425167e-08
473           	-9.912374e-09
474           	-1.806267e-08
475           	-3.975948e-09
476           	-1.445914e-08
477           	-4.043673e-09
478           	-1.398363e-08
479           	7.883359e-09
480           	9.659409e-09
481           	-5.989630e-09
482           	-2.153622e-08
483           	-1.127780e-08
484           	-2.550193e-08
485           	1.120678e-08
486           	-1.736273e-08
487           	1.030437e-08
488           	-1.520348e-08
489           	1.269413e-08
490           	-1.883092e-08
491           	1.311531e-08
492           	-1.623772e-08
493           	-1.311333e-08
494           	-1.583511e-08
495           	-1.309003e-08
496           	-1.481219e-08
497           	1.097524e-08
498           	-1.432670e-08
499           	1.139382e-08
500           	-1.683702e-08
501           	-1.403699e-08
502           	-1.579477e-08
503           	-7.947456e-09
504           	-1.351294e-08
505           	-8.715856e-09
506           	-2.321811e-08
507           	-1.527349e-08
508           	-2.879231e-08
509           	1.390611e-08
510           	-3.164748e-08
511           	1.286246e-08
512           	-3.501198e-08
513           	1.070171e-08
514           	-3.677512e-08
515           	1.047565e-08
516           	1.506202e-08
517           	-1.429818e-08
518           	1.163480e-08
519           	-1.231268e-08
520           	7.721634e-09
521           	1.426082e-08
522           	6.237285e-09
523           	1.671522e-08
524           	5.256931e-09
525           	-5.017955e-09
526           	7.151745e-09
527           	1.574089e-08
528           	5.415566e-09
529           	1.460849e-08
530           	4.907381e-09
531           	1.374395e-08
532           	7.833016e-09
533           	1.315603e-08
534           	1.062101e-08
535           	1.255629e-08
536           	1.610067e-08
537           	1.213208e-08
538           	-1.874942e-08
539           	1.175904e-08
540           	-1.866424e-08
541           	1.182716e-08
542           	2.006659e-08
543           	1.180271e-08
544           	2.004343e-08
545           	1.164601e-08
546           	-1.013324e-08
547           	-5.803901e-09
548           	1.997453e-08
549           	4.017165e-09
550           	1.822673e-08
551           	4.319433e-09
552           	-1.896453e-10
553           	1.276981e-08
554           	1.455487e-08
555           	-1.282103e-09
556           	1.596604e-08
557           	8.362834e-09
558           	1.280158e-09
559           	1.534524e-08
560           	-1.335413e-08
561           	-2.031641e-09
562           	5.288653e-09
563           	-3.890316e-09
564           	1.668147e-08
565           	-8.695820e-09
566           	8.707293e-09
567           	1.006317e-08
568           	1.476805e-08
569           	9.806145e-09
570           	-4.081532e-09
571           	1.328145e-09
572           	1.537361e-08
573           	-5.208449e-09
574           	8.271275e-09
575           	-2.545594e-09
576           	1.696850e-08
577           	6.928795e-09
578           	7.261631e-09
579           	1.253186e-09
580           	-1.697771e-08
581           	1.688130e-09
582           	6.351251e-09
583           	1.206431e-09
584           	9.570863e-09
585           	8.106486e-09
586           	2.095587e-08
587           	7.322972e-09
588           	6.891872e-09
589           	1.094004e-08
590           	7.254639e-09
591           	-1.035918e-09
592           	-1.515522e-08
593           	-1.352639e-08
594           	-1.562740e-08
595           	-1.362399e-08
596           	1.799677e-08
597           	-1.199925e-08
598           	-1.436452e-08
599           	-2.145499e-09
600           	8.121468e-09
601           	1.063762e-08
602           	1.160367e-08
603           	-1.506075e-08
604           	-1.241713e-08
605           	9.923095e-09
606           	-1.462239e-08
607           	1.094502e-08
608           	-1.423126e-08
609           	-2.197205e-08
610           	1.484450e-08
611           	-1.466985e-08
612           	-1.132124e-08
613           	-1.896121e-08
614           	-1.177905e-08
615           	-2.438699e-08
616           	-1.236893e-08
617           	8.501621e-09
618           	-1.315898e-08
619           	9.238164e-09
620           	-1.393063e-08
621           	9.491415e-09
622           	-1.399310e-08
623           	8.959078e-09
624           	-1.347279e-08
625           	8.339539e-09
626           	-1.303697e-08
627           	8.314652e-09
628           	-1.327445e-08
629           	8.319914e-09
630           	-1.316197e-08
631           	-1.980641e-08
632           	-1.338923e-08
633           	-1.037650e-08
634           	9.301046e-09
635           	-5.442596e-09
636           	-1.323694e-08
637           	-8.235333e-09
638           	-1.190286e-08
639           	-1.032962e-08
640           	-1.344475e-08
641           	-1.022809e-08
642           	-1.341416e-08
643           	-8.878903e-09
644           	-1.393661e-08
645           	-1.236094e-08
646           	-1.144226e-08
647           	8.658323e-09
648           	-9.291337e-10
649           	9.006793e-09
650           	1.806115e-09
651           	9.437189e-09
652           	-7.120886e-09
653           	-3.908178e-09
654           	2.271560e-09
655           	-2.812692e-09
656           	3.354230e-09
657           	-1.043300e-09
658           	3.389641e-09
659           	-9.324716e-10
660           	3.429241e-09
661           	-1.802826e-09
662           	3.688756e-09
663           	-2.609950e-09
664           	3.671057e-09
665           	8.348333e-09
666           	3.318876e-09
667           	1.052758e-08
668           	1.912725e-09
669           	1.052198e-08
670           	8.512292e-10
671           	1.030703e-08
672           	7.687980e-10
673           	9.956896e-09
674           	7.473738e-10
675           	9.803663e-09
676           	5.632664e-10
677           	9.972956e-09
678           	-2.360923e-09
679           	1.003249e-08
680           	-4.004800e-09
681           	1.116188e-08
682           	-1.308749e-08
683           	1.033397e-08
684           	-3.834795e-09
685           	1.005567e-08
686           	-6.852269e-09
687           	1.018865e-08
688           	-7.954907e-09
689           	1.038315e-08
690           	-5.851668e-09
691           	1.095791e-08
692           	-2.060641e-08
693           	3.397092e-09
694           	-9.528865e-10
695           	1.591049e-08
696           	6.832460e-09
697           	2.581782e-08
698           	3.263316e-10
699           	2.484857e-09
700           	-2.619896e-08
701           	-1.862685e-08
702           	-2.295537e-08
703           	2.049290e-08
704           	1.148010e-08
705           	1.554060e-09
706           	4.354749e-09
707           	-3.059165e-09
708           	-1.425890e-08
709           	-1.933180e-08
710           	1.285095e-08
711           	-3.597320e-08
712           	1.396917e-08
713           	-2.675926e-08
714           	-7.796855e-09
715           	1.364726e-08
716           	-9.488569e-09
717           	5.614408e-10
718           	-1.210680e-08
719           	3.290396e-10
720           	-1.318104e-08
721           	-2.428886e-08
722           	4.224814e-09
723           	-1.814888e-08
724           	1.202707e-08
725           	-7.336626e-09
726           	1.832343e-08
727           	1.158140e-08
728           	1.731843e-08
729           	4.845644e-09
730           	1.188379e-08
731           	1.033457e-08
732           	6.968988e-09
733           	-3.148656e-08
734           	-2.742231e-08
735           	4.008210e-09
736           	-1.003915e-08
737           	2.317172e-08
738           	8.045083e-09
739           	2.189917e-08
740           	-8.755989e-09
741           	3.849873e-09
742           	4.195935e-09
743           	1.375456e-08
744           	4.768971e-09
745           	1.324607e-08
746           	3.380127e-09
747           	5.425230e-09
748           	-1.328880e-08
749           	2.505475e-09
750           	-1.181842e-08
751           	2.240207e-09
752           	-1.199754e-08
753           	1.329938e-08
754           	3.233991e-09
755           	2.062570e-09
756           	5.226653e-09
757           	-1.594383e-09
758           	4.795308e-09
759           	4.937418e-09
760           	5.090701e-09
761           	2.372535e-09
762           	-3.741752e-09
763           	-8.157719e-09
764           	-2.896614e-08
765           	-9.375604e-09
766           	-3.714404e-09
767           	1.396004e-10
768           	4.757416e-09
769           	3.688169e-09
770           	-3.829208e-10
771           	2.717393e-09
772           	4.470491e-09
773           	2.302321e-09
774           	1.206133e-09
775           	1.423490e-09
776           	-3.577812e-09
777           	-7.199760e-09
778           	2.820448e-10
779           	3.442800e-09
780           	-1.831279e-09
781           	-4.982501e-09
782           	-8.627152e-09
783           	-5.558620e-09
784           	-2.300214e-09
785           	-4.834259e-09
786           	-2.670832e-09
787           	3.037305e-09
788           	-8.555277e-09
789           	2.980750e-09
790           	-1.805409e-09
791           	1.941969e-09
792           	-1.996894e-09
793           	2.704560e-09
794           	-8.558457e-09
795           	2.714449e-09
796           	-5.152466e-09
797           	3.688396e-09
798           	-4.597928e-09
799           	2.906412e-09
800           	-7.808017e-09
801           	4.449044e-09
802           	1.954438e-09
803           	5.101025e-09
804           	-5.910855e-09
805           	3.663306e-09
806           	-3.363910e-09
807           	1.687830e-09
808           	-5.801943e-09
809           	2.077475e-09
810           	6.482027e-10
811           	3.835392e-09
812           	-6.933239e-09
813           	4.140408e-09
814           	-5.603847e-09
815           	1.058331e-09
816           	-1.032333e-08
817           	2.932242e-09
818           	-5.237184e-09
819           	8.953444e-09
820           	-8.514640e-11
821           	1.174138e-08
822           	-8.495285e-10
823           	1.452310e-08
824           	-2.156928e-09
825           	7.307994e-09
826           	-4.107713e-09
827           	4.908540e-09
828           	-6.362312e-09
829           	7.809591e-09
830           	-3.964434e-08
831           	6.400635e-09
832           	1.109556e-09
833           	3.819371e-09
834           	5.997050e-10
835           	3.432890e-09
836           	3.906328e-09
837           	1.345902e-09
838           	2.408553e-09
839           	1.484407e-09
840           	-1.183042e-08
841           	4.815414e-09
842           	-1.338358e-09
843           	6.534923e-09
844           	-4.841000e-09
845           	6.678883e-09
846           	3.634532e-10
847           	-8.092316e-11
848           	-5.886541e-09
849           	-7.125165e-09
850           	-2.302518e-09
851           	-2.797291e-09
852           	-9.014911e-09
853           	-5.314163e-10
854           	-5.019515e-09
855           	9.314255e-10
856           	1.805398e-09
857           	2.625910e-09
858           	-8.359472e-09
859           	5.961516e-09
860           	-1.788042e-08
861           	1.381700e-08
862           	-1.485489e-09
863           	1.585129e-08
864           	-1.187856e-08
865           	3.197035e-09
866           	8.597048e-10
867           	4.084137e-09
868           	-1.228073e-08
869           	6.642544e-10
870           	-1.308277e-09
871           	1.253981e-09
872           	-4.030257e-09
873           	9.329283e-09
874           	-5.051564e-08
875           	8.103802e-09
876           	-5.379200e-08
877           	1.188972e-08
878           	-4.255243e-08
879           	8.557578e-09
880           	4.888694e-10
881           	5.364717e-09
882           	-6.357491e-09
883           	1.195758e-08
884           	-2.333245e-08
885           	2.185899e-08
886           	-2.695759e-08
887           	2.084032e-08
888           	-2.660748e-08
889           	1.398321e-08
890           	-1.023532e-08
891           	1.446042e-08
892           	-3.880381e-08
893           	2.848209e-08
894           	-4.488260e-08
895           	2.064009e-08
896           	-5.257439e-08
897           	1.428066e-08
898           	-1.573512e-08
899           	-1.663607e-10
900           	-1.140553e-08
901           	1.075540e-08
902           	7.829849e-09
903           	3.916462e-08
904           	-4.909323e-09
905           	5.253348e-08
906           	2.360322e-09
907           	3.229102e-08
908           	5.554436e-09
909           	1.967886e-08
910           	-1.487007e-08
911           	1.241340e-08
912           	-1.514936e-08
913           	1.459454e-08
914           	-8.629486e-08
915           	8.319412e-09
916           	-1.902957e-08
917           	5.605149e-09
918           	-9.570321e-09
919           	8.769600e-09
920           	-1.364390e-08
921           	1.282168e-08
922           	8.726435e-09
923           	1.796329e-08
924           	5.825849e-09
925           	1.748015e-08
926           	-7.142289e-08
927           	1.021110e-08
928           	4.320499e-09
929           	6.609389e-09
930           	-2.293064e-08
931           	7.619994e-09
932           	3.568284e-09
933           	1.085597e-08
934           	7.291612e-09
935           	1.299788e-08
936           	-1.112680e-08
937           	1.500406e-08
938           	-7.127805e-09
939           	1.520163e-08
940           	-4.556225e-09
941           	8.285720e-09
942           	-1.445452e-08
943           	9.254696e-10
944           	-4.779369e-09
945           	-8.871042e-09
946           	7.837783e-09
947           	-2.852463e-09
948           	5.434022e-09
949           	3.571599e-09
950           	-4.387731e-10
951           	1.346179e-08
952           	-9.384128e-10
953           	1.415466e-08
954           	4.040726e-09
955           	-2.625263e-09
956           	8.028679e-09
957           	-1.231589e-08
958           	1.346095e-08
959           	6.214518e-09
960           	5.982722e-09
961           	2.795812e-09
962           	-1.182231e-07
963           	5.215951e-09
964           	6.669000e-09
965           	4.661560e-11
966           	1.054090e-08
967           	6.219146e-09
968           	5.510719e-09
969           	7.107966e-09
970           	7.650862e-09
971           	3.932719e-09
972           	-3.868928e-09
973           	4.516144e-09
974           	6.066133e-09
975           	9.868844e-09
976           	-3.099840e-10
977           	1.370962e-08
978           	-1.560939e-08
979           	1.083719e-08
980           	-1.701286e-08
981           	8.001215e-09
982           	-3.432613e-09
983           	4.682978e-09
984           	-2.184185e-08
985           	-4.432066e-10
986           	-1.033869e-08
987           	2.544673e-10
988           	-4.696756e-09
989           	3.183083e-09
990           	4.263373e-09
991           	4.159093e-09
992           	6.801676e-09
993           	6.559410e-09
994           	5.917635e-09
995           	2.187204e-09
996           	-7.088603e-09
997           	4.608324e-09
998           	3.971857e-09
999           	3.741753e-10
1000          	4.242573e-09
