/*--------------------------------*- C++ -*----------------------------------*\
| =========                 |                                                 |
| \\      /  F ield         | OpenFOAM: The Open Source CFD Toolbox           |
|  \\    /   O peration     | Version:  2506                                  |
|   \\  /    A nd           | Website:  www.openfoam.com                      |
|    \\/     M anipulation  |                                                 |
\*---------------------------------------------------------------------------*/
FoamFile
{
    version     2.0;
    format      ascii;
    arch        "LSB;label=32;scalar=64";
    class       surfaceScalarField;
    location    "1700";
    object      phi;
}
// * * * * * * * * * * * * * * * * * * * * * * * * * * * * * * * * * * * * * //

dimensions      [0 3 -1 0 0 0 0];

oriented        oriented;

internalField   nonuniform List<scalar> 
138336
(
1.49911e-06
-1.93835e-06
-3.41528e-07
7.80765e-07
-3.99281e-07
1.64509e-06
-2.02965e-06
7.83848e-07
-1.85215e-06
1.41821e-06
-3.15737e-07
7.49679e-07
7.35088e-07
1.47356e-06
-1.83827e-06
-3.70379e-07
2.2762e-06
1.11744e-06
-1.89453e-06
1.12123e-06
7.55682e-07
2.18749e-06
-3.3496e-07
1.45658e-06
1.73982e-06
-4.88899e-07
-2.0757e-06
8.24775e-07
-5.7257e-07
-1.96184e-06
1.65706e-06
8.77341e-07
-1.91843e-06
-4.86077e-07
1.62394e-06
7.80572e-07
7.94376e-07
-5.1195e-07
-1.90821e-06
1.62578e-06
2.58201e-06
1.14586e-06
-1.98805e-06
1.17368e-06
8.35759e-07
2.42052e-06
-4.80285e-07
1.67577e-06
1.35557e-06
-1.76175e-06
-3.12187e-07
7.18373e-07
-3.89591e-07
-1.75529e-06
1.42644e-06
7.18441e-07
-1.65926e-06
-3.20192e-07
1.29646e-06
6.82996e-07
6.87372e-07
-1.62049e-06
-3.58596e-07
1.29171e-06
2.09532e-06
9.83292e-07
-1.72304e-06
9.80938e-07
7.24791e-07
1.9907e-06
-3.20036e-07
1.31238e-06
1.36658e-06
6.86067e-07
-1.67233e-06
-3.80312e-07
-4.32889e-07
7.04424e-07
-1.70865e-06
1.43711e-06
-1.58522e-06
6.70443e-07
-3.82626e-07
1.2974e-06
6.5444e-07
-1.55026e-06
-3.93716e-07
1.28953e-06
2.05774e-06
9.24777e-07
-1.61594e-06
9.2391e-07
7.00941e-07
1.95382e-06
-3.74607e-07
1.29252e-06
1.1485e-06
2.45742e-06
-1.96083e-06
-1.80246e-06
2.17406e-06
1.04661e-06
2.19161e-06
1.03364e-06
-1.75169e-06
-1.54476e-06
2.3041e-06
1.01932e-06
-1.77867e-06
-3.86478e-07
-7.34297e-07
2.26927e-06
-7.32363e-07
-4.25071e-07
-1.85398e-06
1.03418e-06
1.17207e-06
7.9645e-07
7.56288e-07
1.03586e-06
-2.30324e-06
1.06493e-06
7.52235e-07
3.7847e-07
1.04923e-06
7.46362e-07
1.56295e-06
1.8784e-06
1.83895e-06
1.51572e-06
7.41146e-07
1.05144e-06
-7.18805e-07
2.09299e-06
-3.27576e-07
2.07178e-06
-3.52067e-07
-4.04803e-07
2.12855e-06
-9.48693e-07
1.97909e-06
-3.59952e-07
-1.72325e-06
1.37192e-06
-3.67474e-07
1.38271e-06
-1.67885e-06
2.10207e-06
1.38047e-06
-9.52069e-07
1.31067e-06
1.72675e-06
1.43766e-06
-2.15425e-06
1.46389e-06
-7.24857e-07
3.82278e-07
4.25143e-07
-7.20531e-07
1.43137e-06
1.39427e-06
-3.42638e-07
-6.41676e-07
-4.09954e-07
-3.71499e-07
1.45481e-06
-6.43352e-07
-4.39959e-07
-5.88616e-07
1.48324e-06
-4.52125e-07
-4.42499e-07
-4.26359e-07
1.43621e-06
-3.83254e-07
-6.26602e-07
9.81802e-07
1.0461e-06
-6.33635e-07
1.04987e-06
-4.39567e-07
9.88461e-07
-3.68718e-07
1.44971e-06
1.50596e-06
-3.69062e-07
-6.78566e-07
-4.58334e-07
-3.42025e-07
-7.13161e-07
-4.7507e-07
1.53026e-06
-7.20594e-07
-3.83583e-07
-5.03569e-07
1.60775e-06
-4.51076e-07
-3.52153e-07
-7.10165e-07
1.51339e-06
1.04815e-06
1.15895e-06
-7.01141e-07
1.18121e-06
-4.7508e-07
1.06388e-06
-3.56001e-07
1.52449e-06
1.66352e-06
-5.90397e-07
-5.8967e-07
-4.83458e-07
-5.01224e-07
-6.994e-07
-5.48036e-07
1.74866e-06
-5.88112e-07
-7.79169e-07
-5.56807e-07
1.92409e-06
-5.20183e-07
-6.69776e-07
-5.40919e-07
1.73088e-06
1.16288e-06
1.14617e-06
-6.45523e-07
1.18778e-06
-5.2612e-07
1.18976e-06
-5.63777e-07
1.78942e-06
1.48409e-06
-4.41215e-07
-3.94421e-07
-6.48456e-07
-3.64918e-07
-4.39099e-07
-6.92889e-07
1.49691e-06
-6.7699e-07
-4.7757e-07
-4.26976e-07
1.58154e-06
-4.48261e-07
-3.74033e-07
-6.82851e-07
1.50515e-06
1.04154e-06
1.11347e-06
-6.70921e-07
1.13076e-06
-4.54138e-07
1.05683e-06
-3.91615e-07
1.5106e-06
1.09713e-06
1.01664e-06
-6.58958e-07
-6.10543e-07
1.03683e-06
1.05695e-06
1.00506e-06
1.07224e-06
-6.41082e-07
-1.49026e-06
1.04919e-06
1.12487e-06
-6.8381e-07
-3.83946e-07
4.51607e-07
1.02947e-06
4.55226e-07
-3.7016e-07
-6.68491e-07
1.09012e-06
1.11897e-06
-4.71394e-07
-4.6627e-07
1.16331e-06
-1.07165e-06
1.19672e-06
-5.08658e-07
4.35445e-07
1.09297e-06
-4.91584e-07
1.50532e-06
6.43123e-07
6.83045e-07
1.54819e-06
-4.69619e-07
1.15958e-06
4.64574e-07
1.05879e-06
-4.66409e-07
1.02644e-06
-3.95418e-07
-3.70796e-07
1.05657e-06
-1.13034e-06
1.10119e-06
-4.48411e-07
-6.33638e-07
1.55705e-06
-4.58836e-07
1.48293e-06
-6.57994e-07
1.0847e-06
1.56136e-06
-1.17679e-06
1.6082e-06
7.03121e-07
1.51676e-06
-1.09728e-06
1.5946e-06
4.9773e-07
4.18106e-07
4.05636e-07
4.80411e-07
1.58917e-06
-7.86956e-07
4.16752e-07
-5.30449e-09
3.75508e-07
-9.58165e-09
-8.01741e-07
4.22423e-07
3.88899e-07
3.81606e-07
-7.996e-07
4.20186e-07
-2.19224e-09
4.14775e-07
-7.90427e-07
-5.44536e-09
3.81096e-07
-3.70158e-07
-7.94739e-07
3.77942e-07
-8.01465e-07
4.21725e-07
-3.74864e-07
-5.09973e-09
-7.94723e-07
-8.16658e-07
-1.1823e-08
4.26524e-07
4.01957e-07
-6.88916e-09
4.25047e-07
4.13676e-07
-8.31833e-07
4.01866e-07
2.4555e-09
4.14298e-07
-8.1862e-07
4.20333e-07
-5.78496e-09
4.05272e-07
-8.1982e-07
-3.94964e-07
-8.25535e-07
4.03841e-07
-8.2327e-07
4.21417e-07
-3.98803e-07
-6.39858e-09
-8.20207e-07
-8.08749e-07
3.86322e-07
4.18974e-07
3.45291e-09
7.66955e-09
3.94659e-07
4.09162e-07
-8.11491e-07
3.90298e-07
4.08944e-07
1.07351e-08
-8.09977e-07
4.11138e-07
3.89544e-07
6.13165e-09
-8.06814e-07
-3.94514e-07
-8.02135e-07
3.879e-07
-8.01127e-07
4.14282e-07
-3.9764e-07
6.64321e-09
-8.08469e-07
-7.9459e-07
4.13466e-07
-4.75021e-09
3.85875e-07
-4.60738e-09
4.15585e-07
3.9612e-07
-8.07098e-07
3.88115e-07
4.11459e-07
1.87892e-09
-8.01453e-07
4.11468e-07
-2.76228e-09
3.88401e-07
-7.97106e-07
-3.82734e-07
-7.98569e-07
3.86712e-07
-8.02775e-07
4.15434e-07
-3.85138e-07
-1.96312e-09
-7.99798e-07
-8.11906e-07
-3.81166e-07
3.91331e-07
3.83368e-07
-3.82073e-07
-8.00895e-07
-3.77184e-07
-7.96714e-07
3.83471e-07
8.05086e-07
-3.88243e-07
-8.11342e-07
3.945e-07
-6.93631e-09
-4.19163e-07
-3.85807e-07
-4.18291e-07
-8.30818e-09
3.94231e-07
-8.03783e-07
-8.14817e-07
4.21829e-07
4.18924e-07
-8.12952e-07
3.94346e-07
-8.08325e-07
4.16434e-07
2.36736e-09
-8.07199e-07
4.22758e-07
-8.07215e-07
-3.93409e-07
-3.9469e-07
-8.10295e-07
4.19253e-07
-8.10639e-07
-4.15815e-07
-3.84622e-07
-4.57613e-10
-3.79837e-07
-3.41126e-09
-4.75984e-09
-3.90997e-07
7.99858e-07
-3.90528e-07
2.12854e-09
3.85755e-07
-8.00646e-07
-9.24112e-10
-7.97865e-07
3.87191e-07
-3.87979e-07
-8.05498e-07
8.03189e-07
-8.04173e-07
-3.95428e-07
-8.08521e-07
3.9801e-07
-8.11676e-07
-4.16394e-07
-1.20376e-09
-1.18286e-09
-4.13832e-07
-8.10443e-07
-8.06267e-07
4.14103e-07
3.92164e-07
4.1358e-07
-8.09551e-07
3.95971e-07
3.84176e-07
-8.20801e-07
4.36625e-07
5.97764e-09
-8.59093e-07
4.23435e-07
4.2968e-07
-7.92393e-07
-4.20562e-07
4.06688e-07
-3.78813e-07
-8.21245e-07
4.0666e-07
-8.15882e-07
-8.23132e-07
4.20412e-07
4.0272e-07
4.19493e-07
4.14061e-07
-8.33554e-07
4.02251e-07
4.16767e-07
-8.19018e-07
-1.13241e-08
4.41342e-07
4.34419e-07
-8.64437e-07
-8.15878e-07
-4.21914e-07
4.1466e-07
-3.96385e-07
-8.59574e-07
4.26336e-07
-8.53708e-07
-8.03991e-07
3.92728e-07
4.11263e-07
4.09412e-07
4.08686e-07
-8.18098e-07
4.30847e-07
4.39242e-07
-8.70089e-07
-1.76023e-08
4.34804e-07
4.46074e-07
-8.63276e-07
-8.06941e-07
-4.25692e-07
4.28642e-07
-3.97529e-07
-9.0327e-07
4.59976e-07
-8.69952e-07
-8.29791e-07
-1.46054e-08
4.28064e-07
4.16332e-07
4.35838e-07
-2.54543e-08
4.0804e-07
-8.18424e-07
4.08299e-07
-1.98149e-08
4.09859e-07
-7.98343e-07
-2.34066e-08
3.90303e-07
3.76443e-07
-7.43339e-07
-8.43961e-07
-3.82485e-07
3.96654e-07
-3.90718e-07
-1.74043e-08
-8.02862e-07
3.9697e-07
-7.8528e-07
-4.33759e-07
-8.03066e-07
4.27274e-07
4.08143e-07
-8.09064e-07
-4.1988e-07
-8.58484e-07
-4.25095e-07
4.24486e-07
8.66437e-07
-8.70709e-07
-4.23468e-07
4.2774e-07
4.0349e-07
7.61558e-09
-8.44864e-07
-4.24959e-09
4.36559e-07
4.37493e-07
-4.26175e-07
-3.82654e-07
-4.06431e-09
-4.25303e-07
8.0616e-07
-3.89393e-07
-4.1931e-07
-3.89753e-07
-8.30791e-07
-3.96727e-07
-4.08519e-07
-8.16038e-07
-4.18397e-07
7.98777e-09
-8.54382e-07
4.26514e-07
-8.51162e-07
4.11462e-07
4.2874e-07
-8.77662e-07
4.2235e-07
-8.71457e-07
4.29292e-07
4.32898e-07
-8.50019e-07
4.25108e-07
-8.44439e-07
4.33103e-07
-8.60771e-07
-8.51407e-07
4.20413e-07
-8.57066e-07
-4.36579e-07
-8.66386e-07
8.66346e-07
-8.47052e-07
1.10481e-08
-4.33813e-07
-4.2931e-07
1.41358e-08
-8.51753e-07
6.5519e-07
-4.16284e-07
-5.81544e-07
-6.46201e-07
7.12843e-07
-5.18768e-07
4.35836e-07
7.16345e-07
-4.97242e-07
-6.54939e-07
-4.49707e-07
6.78404e-07
-6.11952e-07
2.23656e-07
6.28154e-08
4.89065e-08
-4.71452e-07
2.19276e-07
-6.06167e-07
7.04018e-07
8.29862e-07
-7.57574e-07
-6.61958e-07
-9.89601e-07
-7.9342e-07
1.00385e-06
6.95608e-07
-9.41913e-07
-7.46297e-07
9.92602e-07
-6.14505e-07
-7.83979e-07
8.57565e-07
2.04255e-07
6.18301e-08
-7.55022e-09
-7.77796e-07
2.24902e-07
-7.77577e-07
9.1296e-07
8.23112e-07
5.49197e-07
-6.1143e-07
-7.60879e-07
-9.38332e-07
6.91681e-07
-7.42128e-07
9.88779e-07
6.46877e-07
-7.57075e-07
-8.76211e-07
9.86409e-07
-5.8457e-07
5.02169e-07
-7.5643e-07
8.38831e-07
2.00294e-07
4.55406e-08
5.77277e-07
1.56354e-08
-7.53673e-07
2.39793e-07
-7.78823e-07
9.02306e-07
6.9944e-07
-4.61401e-07
-6.32461e-07
-6.82341e-07
-5.00319e-07
7.55685e-07
4.275e-07
-5.06591e-07
-6.75628e-07
7.54719e-07
-4.51741e-07
-6.33204e-07
7.10912e-07
2.38476e-07
6.93501e-08
6.20194e-08
-5.05885e-07
2.53093e-07
-6.35484e-07
7.42612e-07
5.28499e-08
1.93585e-07
4.71768e-07
1.99626e-07
4.49501e-08
2.2165e-07
6.13361e-08
-7.35701e-07
2.17387e-07
6.99029e-08
-6.70727e-07
5.16457e-07
2.0712e-07
5.0506e-07
-6.7808e-07
4.863e-08
4.19442e-08
-6.05934e-07
-6.03107e-07
3.65142e-08
-1.93625e-07
3.12231e-09
-7.5141e-07
7.46748e-07
4.40969e-08
-5.91219e-07
7.95743e-07
-5.46679e-07
-5.8494e-07
8.22234e-07
-6.22164e-07
4.36683e-08
5.20787e-07
2.02759e-07
-6.78596e-07
2.27417e-07
-6.27482e-07
-6.80256e-07
2.4984e-07
-5.82684e-08
2.47861e-07
-6.96184e-07
4.52278e-07
7.44107e-07
-6.75598e-07
7.28325e-07
4.57816e-07
2.28022e-07
7.96052e-07
-5.52066e-08
8.05236e-07
-5.19152e-07
8.05506e-07
-2.17296e-07
9.121e-07
5.91525e-07
7.81805e-07
7.64341e-07
6.08177e-07
8.53365e-07
1.65009e-06
-1.98483e-06
-9.64153e-07
1.2989e-06
-1.90512e-06
1.61356e-06
-9.51333e-07
1.24289e-06
-8.44454e-07
1.42704e-06
-1.67682e-06
1.09423e-06
1.12902e-06
1.42658e-06
-1.71714e-06
-8.38461e-07
2.87512e-06
-2.72794e-07
-9.52236e-07
-2.7991e-07
1.24991e-06
2.5899e-06
-1.73367e-06
1.46553e-06
1.59973e-06
-1.86183e-06
-9.22171e-07
1.18427e-06
-1.83058e-06
-9.49928e-07
1.19489e-06
1.58562e-06
-8.09962e-07
-1.64757e-06
1.08703e-06
1.3705e-06
1.06123e-06
-1.56184e-06
-8.23532e-07
1.32414e-06
2.80974e-06
-2.64792e-07
-9.45216e-07
-2.66033e-07
1.24519e-06
2.43938e-06
-1.64295e-06
1.36339e-06
1.22518e-06
-7.33744e-07
-1.46683e-06
9.75394e-07
-1.48465e-06
-7.20075e-07
9.81941e-07
1.22278e-06
-7.10188e-07
-1.46147e-06
9.66183e-07
1.20547e-06
9.613e-07
-7.03804e-07
-1.44097e-06
1.18347e-06
2.22077e-06
-2.56479e-07
-7.39111e-07
-2.56861e-07
9.92981e-07
2.17337e-06
-1.46855e-06
1.20632e-06
1.24202e-06
9.92428e-07
-1.4914e-06
-7.43041e-07
-1.45832e-06
9.80845e-07
-7.53012e-07
1.23049e-06
-7.14299e-07
9.46051e-07
-1.41267e-06
1.18091e-06
9.57136e-07
-1.44186e-06
-7.22172e-07
1.2069e-06
2.21566e-06
-2.29357e-07
-7.44286e-07
-2.31262e-07
9.886e-07
2.15999e-06
-1.43221e-06
1.21443e-06
-2.61572e-07
2.80639e-06
-9.31262e-07
-8.76206e-07
2.57824e-06
-2.74989e-07
2.50219e-06
-2.46009e-07
-8.29601e-07
-1.35918e-06
2.39453e-06
-2.30064e-07
-8.05289e-07
-1.7113e-06
-1.09775e-06
2.54748e-06
-1.12198e-06
-1.62289e-06
-8.34039e-07
-2.42679e-07
-2.71735e-07
1.2163e-06
1.07303e-06
-2.40335e-07
-2.52899e-06
-2.69332e-07
1.15075e-06
1.73463e-06
-2.74466e-07
1.11808e-06
1.40314e-06
8.72607e-07
8.33223e-07
1.43701e-06
1.17023e-06
-2.58759e-07
-1.0081e-06
2.26411e-06
-1.531e-06
2.26119e-06
-1.51477e-06
-1.50081e-06
2.25159e-06
2.41325e-07
2.13204e-06
-1.42731e-06
-7.55868e-07
1.23831e-06
-1.49055e-06
1.26265e-06
-7.50439e-07
2.23008e-06
1.2559e-06
2.49489e-07
1.17874e-06
7.36983e-07
1.27427e-06
-2.25112e-06
1.26171e-06
-1.0149e-06
1.53169e-06
1.46467e-06
-9.78189e-07
1.22346e-06
1.12541e-06
-2.65718e-07
-7.03788e-07
-1.55905e-07
-7.09531e-07
1.13048e-06
-2.6675e-07
-1.54199e-07
-1.50634e-07
1.14179e-06
-2.70235e-07
-7.20921e-07
-2.65356e-07
1.13707e-06
-7.18041e-07
-1.53673e-07
8.61878e-07
4.18148e-07
-1.54616e-07
4.18239e-07
-2.65892e-07
8.66297e-07
-7.13505e-07
1.1339e-06
1.13459e-06
-7.12412e-07
-2.68376e-07
-1.53802e-07
-7.13458e-07
-2.71219e-07
-1.5283e-07
1.13751e-06
-1.51057e-07
-7.26603e-07
-2.73969e-07
1.15163e-06
-2.71434e-07
-7.2453e-07
-1.52075e-07
1.14804e-06
8.66107e-07
4.21857e-07
-1.53374e-07
4.22781e-07
-2.70132e-07
8.69823e-07
-7.19399e-07
1.14155e-06
1.16686e-06
-1.49098e-07
-2.73384e-07
-7.44375e-07
-7.43102e-07
-1.52724e-07
-2.74873e-07
1.1707e-06
-1.56852e-07
-2.74736e-07
-7.70488e-07
1.20208e-06
-2.73913e-07
-1.51317e-07
-7.66526e-07
1.19176e-06
8.95064e-07
4.22761e-07
-1.50968e-07
4.25724e-07
-2.73762e-07
9.10591e-07
-7.61743e-07
1.17946e-06
1.15424e-06
-2.63576e-07
-7.35723e-07
-1.54942e-07
-7.41793e-07
-2.69584e-07
-1.51819e-07
1.1632e-06
-1.53415e-07
-2.68028e-07
-7.66777e-07
1.18822e-06
-2.64463e-07
-7.73217e-07
-1.53344e-07
1.19102e-06
8.92906e-07
4.15609e-07
-1.54275e-07
4.16173e-07
-2.65059e-07
9.09742e-07
-7.58595e-07
1.1725e-06
4.19493e-07
8.64926e-07
-1.53938e-07
-1.50105e-07
8.74148e-07
4.17746e-07
8.73695e-07
4.16218e-07
-1.52843e-07
-1.14361e-06
8.75308e-07
4.20413e-07
-1.52107e-07
-7.17628e-07
2.6712e-07
8.70001e-07
2.66168e-07
-7.23011e-07
-1.53483e-07
4.16852e-07
4.2042e-07
-2.67905e-07
-2.69824e-07
4.20603e-07
-8.76538e-07
4.24353e-07
-2.74418e-07
7.26318e-07
4.19748e-07
-2.71918e-07
1.13945e-06
1.50975e-07
1.50222e-07
1.14854e-06
-2.71245e-07
4.22221e-07
2.67499e-07
8.84336e-07
-7.34089e-07
8.84909e-07
-7.32267e-07
-7.35891e-07
8.86719e-07
-4.18088e-07
9.09684e-07
-7.59624e-07
-1.50088e-07
1.16071e-06
-7.43127e-07
1.15167e-06
-1.50724e-07
8.93349e-07
1.15499e-06
-4.19566e-07
1.17793e-06
1.51088e-07
1.15623e-06
-8.85823e-07
1.15745e-06
2.69645e-07
7.34373e-07
7.43428e-07
2.70771e-07
1.16529e-06
-8.22032e-07
2.73744e-07
-1.39006e-06
1.93919e-06
-7.63987e-07
2.4208e-07
-1.41728e-06
2.24625e-07
-7.91684e-07
-1.4626e-06
-1.32752e-06
-7.29939e-07
2.19194e-07
-2.18559e-06
1.11549e-06
2.48063e-07
1.13658e-06
-1.38298e-06
-2.10656e-06
-7.45352e-07
-6.9726e-07
1.76443e-06
2.14294e-07
-1.28146e-06
1.6437e-06
2.03232e-07
-1.19273e-06
-6.54197e-07
2.08549e-07
1.76984e-06
-1.27876e-06
-6.99628e-07
-1.16656e-06
1.62904e-06
1.81019e-07
-6.43499e-07
-1.90221e-06
9.97633e-07
2.0732e-07
9.94519e-07
-1.25304e-06
-1.8597e-06
1.69077e-06
-6.56632e-07
-7.59073e-07
1.81644e-07
-1.49827e-06
1.99211e-06
1.8592e-07
-1.43949e-06
-7.3854e-07
8.62342e-08
-1.29728e-06
-7.50794e-07
-1.32413e-06
1.13915e-07
-6.97998e-07
-2.19338e-06
1.2516e-06
1.82709e-07
1.24622e-06
-1.44749e-06
-2.06058e-06
-7.28126e-07
-6.52581e-07
-1.18961e-06
1.69862e-07
1.58779e-06
-1.12313e-06
1.57266e-07
-6.21919e-07
1.32525e-07
-1.18744e-06
-6.53733e-07
-1.07988e-06
1.23529e-07
-5.93911e-07
-1.76182e-06
9.62155e-07
1.47088e-07
9.73885e-07
-1.14792e-06
-1.73366e-06
-6.2725e-07
1.07782e-06
-2.07612e-06
2.3431e-07
2.10703e-07
-2.19677e-06
1.19438e-06
-1.95988e-06
1.03324e-06
1.967e-07
6.81473e-07
-1.85117e-06
9.83817e-07
1.85876e-07
1.82919e-06
1.23363e-06
-1.985e-06
1.29454e-06
1.71417e-06
2.00931e-07
1.04884e-06
1.07816e-06
-1.38985e-06
-1.2009e-06
9.78777e-07
2.04192e-06
1.10217e-06
-1.37425e-06
-1.92556e-06
1.1943e-06
-1.46551e-06
-7.04236e-07
-2.02606e-07
-2.14366e-07
-7.3059e-07
-1.39757e-06
1.09697e-06
1.33944e-06
-2.10589e-06
-1.90807e-06
1.65545e-06
-1.79476e-06
-1.07582e-06
-1.89028e-06
1.79504e-07
-6.9405e-07
-6.79731e-07
1.72205e-07
-1.94208e-06
-7.29948e-07
-1.09016e-06
-6.86208e-07
-1.74524e-07
-6.41464e-07
1.98663e-06
-6.98539e-07
1.29341e-06
-1.84065e-06
-1.73882e-06
1.24295e-06
-6.70403e-07
-2.89325e-07
-1.09899e-06
6.52266e-07
7.3605e-07
-1.07379e-06
-3.15222e-07
6.67534e-07
7.21477e-07
7.596e-07
-3.05457e-07
-1.12469e-06
6.70547e-07
5.80539e-07
-2.21497e-07
-1.04097e-06
6.81927e-07
3.28338e-07
-1.32696e-06
7.09298e-07
-1.41978e-06
6.7433e-07
3.57636e-07
-1.10406e-06
-3.02544e-07
-2.84836e-07
-9.89991e-07
6.19004e-07
6.55822e-07
-8.97468e-07
-2.7116e-07
5.65369e-07
6.03259e-07
6.88835e-07
-1.00852e-06
-3.22942e-07
6.42629e-07
5.37932e-07
-9.29074e-07
-2.42408e-07
6.33551e-07
2.67291e-07
-1.18538e-06
6.33249e-07
-1.24212e-06
6.11943e-07
2.7829e-07
-9.25733e-07
-2.74996e-07
-3.12295e-07
7.92378e-07
-1.14165e-06
6.61571e-07
-1.08781e-06
7.69769e-07
-3.77537e-07
6.95575e-07
7.88338e-07
-3.72276e-07
-1.08893e-06
6.72869e-07
5.83643e-07
6.83353e-07
-2.34478e-07
-1.03252e-06
3.21807e-07
-1.38554e-06
7.51436e-07
-1.47843e-06
7.12425e-07
3.35652e-07
-1.13755e-06
-3.54435e-07
-1.80018e-07
5.06222e-07
-9.42647e-07
6.16444e-07
-9.28376e-07
5.17809e-07
-2.03839e-07
6.14406e-07
6.42394e-07
5.23287e-07
-2.04537e-07
-9.61144e-07
4.72849e-07
-1.48895e-07
-9.10134e-07
5.86181e-07
3.13594e-07
-1.10564e-06
6.12032e-07
-1.14416e-06
5.29379e-07
3.10153e-07
-9.42949e-07
-1.91614e-07
-1.27927e-06
2.85952e-07
6.78099e-07
7.33373e-07
3.21123e-07
-1.35995e-06
3.30295e-07
-1.21222e-06
6.60424e-07
2.50306e-07
2.9893e-07
-1.17835e-06
6.29111e-07
-1.01247e-06
-5.77155e-07
3.10348e-07
-5.81638e-07
-9.93377e-07
6.66528e-07
-1.24472e-06
-1.36255e-06
6.58509e-07
5.52757e-07
-1.1829e-06
-2.80876e-07
-1.38991e-06
6.62266e-07
1.10331e-06
-1.49087e-06
7.08682e-07
-2.87988e-07
-7.64212e-07
-6.60964e-07
-3.55312e-07
6.94415e-07
-1.29715e-06
-5.78037e-07
3.61449e-07
-1.14337e-06
3.20262e-07
-1.02626e-06
-9.62226e-07
3.01688e-07
1.22267e-06
3.32399e-07
-1.03179e-06
6.90003e-07
-2.26484e-07
-1.04156e-06
-2.34455e-07
6.67302e-07
3.28888e-07
-3.37046e-07
1.25794e-06
-2.42192e-07
-6.49858e-07
-2.31354e-07
-2.96195e-07
-3.23948e-07
-6.0388e-07
1.01827e-06
9.82952e-07
-5.75078e-07
-2.41984e-07
1.53644e-06
-7.54926e-07
-3.34672e-07
-4.46844e-07
-4.40886e-07
1.56448e-06
-7.66312e-07
-3.57277e-07
-3.43157e-07
1.5408e-06
-7.52071e-07
-4.45572e-07
-7.55233e-07
1.55426e-06
-3.5454e-07
-4.4449e-07
7.87724e-07
1.09757e-06
-3.48851e-07
1.10395e-06
-7.57108e-07
7.88176e-07
-4.4584e-07
1.54896e-06
1.60307e-06
-4.42813e-07
-7.91597e-07
-3.6866e-07
-4.51063e-07
1.64339e-06
-8.23487e-07
-3.68842e-07
-3.55047e-07
-4.52852e-07
1.59303e-06
-7.85136e-07
-8.02069e-07
-4.56964e-07
1.62178e-06
-3.6275e-07
8.11667e-07
1.16608e-06
-3.74679e-07
1.16132e-06
-8.00718e-07
8.06144e-07
-4.42131e-07
1.61242e-06
1.54332e-06
-3.40113e-07
-7.57233e-07
-4.45978e-07
-4.49614e-07
-3.44127e-07
1.56023e-06
-7.66493e-07
-3.35483e-07
1.54326e-06
-7.59744e-07
-4.48033e-07
-7.59857e-07
-3.46039e-07
1.55404e-06
-4.48141e-07
7.8691e-07
1.09756e-06
-3.41143e-07
1.09957e-06
-7.62274e-07
7.85654e-07
-4.47953e-07
1.54974e-06
1.58198e-06
-7.58317e-07
-3.76583e-07
-4.47075e-07
-4.52379e-07
-7.821e-07
1.612e-06
-3.77524e-07
-3.67921e-07
-7.61477e-07
1.57806e-06
-4.48662e-07
-7.69826e-07
1.60847e-06
-3.86424e-07
-4.52217e-07
8.28589e-07
1.1435e-06
-3.90115e-07
1.14298e-06
-7.66771e-07
8.23861e-07
-4.50186e-07
1.59892e-06
1.13104e-06
8.0348e-07
-3.70045e-07
-3.46699e-07
7.89645e-07
1.09785e-06
8.06564e-07
1.11856e-06
-3.70862e-07
-1.59324e-06
8.2307e-07
1.15225e-06
-3.82079e-07
-4.42593e-07
7.74003e-07
7.9963e-07
7.59672e-07
-4.45387e-07
-3.73853e-07
1.12085e-06
1.13197e-06
-7.71303e-07
-7.83284e-07
1.14939e-06
-7.99119e-07
1.12068e-06
-7.7441e-07
4.46966e-07
1.1014e-06
-7.58723e-07
1.57879e-06
3.52808e-07
3.53378e-07
1.56526e-06
-7.65481e-07
1.11951e-06
7.54181e-07
7.89772e-07
-4.46098e-07
8.05338e-07
-4.45095e-07
-4.47844e-07
8.17996e-07
-1.11115e-06
7.98895e-07
-4.49226e-07
-3.54858e-07
1.55641e-06
-4.47367e-07
1.57133e-06
-3.56715e-07
8.01974e-07
1.55106e-06
-1.11287e-06
1.56573e-06
3.6159e-07
1.6058e-06
-7.95998e-07
1.57255e-06
7.61321e-07
4.48596e-07
4.50421e-07
7.72112e-07
1.58412e-06
-3.18897e-07
-7.24169e-07
-1.50448e-07
1.19351e-06
-1.2872e-07
-3.34609e-07
-6.14332e-07
1.07766e-06
1.06097e-06
-2.6873e-07
-5.72195e-07
-2.20047e-07
-6.22517e-07
-3.54741e-07
-1.6763e-07
1.14489e-06
-9.43913e-07
-5.27737e-07
1.15275e-06
-4.48971e-07
-6.23662e-07
-9.09482e-07
-2.40772e-07
-2.9748e-07
-3.43434e-07
-5.81489e-08
-5.80378e-07
9.81961e-07
-3.23058e-08
-5.64991e-07
-3.56383e-07
9.5368e-07
9.51461e-07
-8.04183e-08
-5.37781e-07
-3.33261e-07
-5.63232e-07
-5.60571e-08
-3.64244e-07
9.83534e-07
-9.12694e-07
-4.06298e-07
9.75558e-07
-3.92569e-07
-5.5243e-07
-9.04735e-07
-6.47959e-08
-3.45843e-07
-2.67046e-07
9.41133e-07
-5.10691e-07
-1.63397e-07
-1.01859e-07
9.11312e-07
-5.12788e-07
-2.96665e-07
8.71686e-07
-5.08738e-07
-6.01622e-08
-3.02786e-07
-4.99855e-07
9.3744e-07
-1.21344e-07
-3.1624e-07
-7.97602e-07
-3.8752e-07
9.18075e-07
-3.83695e-07
-5.15765e-07
-7.96376e-07
-9.09995e-08
-3.08384e-07
-3.80383e-07
-5.6929e-07
-1.18272e-07
1.06794e-06
-7.28479e-08
-5.64215e-07
-3.66149e-07
1.00321e-06
1.01503e-06
-5.28708e-07
-1.28503e-07
-3.57816e-07
-5.63034e-07
-1.04762e-07
-3.88167e-07
1.05596e-06
-9.46884e-07
-4.72548e-07
1.03905e-06
-4.59766e-07
-5.59965e-07
-9.22654e-07
-1.12928e-07
-3.67393e-07
-4.45615e-07
-9.31617e-07
1.04262e-06
1.0119e-06
-8.23827e-07
-4.56799e-07
-9.39864e-07
-5.05792e-07
1.09091e-06
3.54107e-07
-9.30101e-07
-4.23787e-07
9.99781e-07
-1.36809e-07
5.79731e-07
-8.88537e-07
5.77607e-07
-8.07793e-08
1.01462e-06
-4.43036e-07
-4.18722e-07
-5.71044e-07
-5.70895e-07
-4.15263e-07
8.55397e-07
-3.98956e-07
-5.36859e-07
1.39552e-07
-4.1618e-07
-5.47198e-07
-3.21738e-07
-9.85521e-07
-9.57428e-07
-2.97584e-07
-5.48385e-07
-3.99615e-07
5.44861e-07
-8.00598e-07
-2.01063e-07
-9.23457e-07
-1.51624e-07
-8.68853e-08
-9.01116e-07
4.39715e-07
-8.36816e-07
-1.31607e-07
1.02956e-06
-3.17218e-07
-1.67477e-07
-3.36937e-07
9.83787e-07
-8.61291e-07
-2.75645e-07
4.32574e-07
-3.31949e-07
-9.71744e-07
-3.44636e-07
8.23279e-07
-3.10923e-07
5.33524e-07
1.08906e-07
1.04807e-07
5.3257e-07
-3.34366e-07
-4.57761e-07
2.13726e-07
6.60788e-07
-4.20069e-07
-4.55281e-07
2.1459e-07
6.6076e-07
6.71433e-07
-4.71856e-07
2.20609e-07
2.09662e-07
-4.69415e-07
6.82177e-07
-2.48514e-07
-8.83178e-07
6.73931e-07
-8.84486e-07
2.15903e-07
-2.51791e-07
-4.64844e-07
-4.51224e-07
-4.29625e-07
2.20043e-07
6.60806e-07
-4.40364e-07
-4.5575e-07
2.28526e-07
6.67587e-07
6.77027e-07
-4.38644e-07
-4.71289e-07
2.32906e-07
2.20552e-07
-4.3475e-07
-4.78005e-07
6.92203e-07
-2.32968e-07
-8.97511e-07
6.79255e-07
-9.02078e-07
2.28746e-07
-2.39851e-07
-4.37109e-07
-4.64901e-07
-4.91238e-07
6.79887e-07
2.30325e-07
-4.27017e-07
6.83329e-07
-4.92527e-07
2.36216e-07
6.8557e-07
-5.12855e-07
2.36228e-07
2.30653e-07
6.91218e-07
-5.12709e-07
-2.6009e-07
-9.16938e-07
6.85789e-07
-9.22503e-07
2.35397e-07
-2.72002e-07
-5.08936e-07
-4.86375e-07
2.09184e-07
7.03715e-07
-4.30083e-07
2.11226e-07
-4.95005e-07
7.13862e-07
7.0421e-07
2.22687e-07
-5.12598e-07
2.11557e-07
-5.1241e-07
7.259e-07
-2.81957e-07
-9.22147e-07
7.17729e-07
-9.25459e-07
2.13419e-07
-2.89174e-07
-5.10423e-07
-8.88719e-07
-2.42037e-07
6.75475e-07
6.79203e-07
-2.50626e-07
-9.00433e-07
-2.62172e-07
-8.99153e-07
6.9191e-07
4.68018e-07
-2.60581e-07
-9.08514e-07
7.01076e-07
-4.27805e-07
-2.13387e-07
-2.47527e-07
-2.13447e-07
-4.27788e-07
6.82419e-07
-9.03407e-07
-8.91176e-07
2.19514e-07
2.19506e-07
-9.14836e-07
2.43434e-07
-9.16141e-07
2.34063e-07
4.27917e-07
-9.05513e-07
2.2697e-07
-4.64081e-07
-6.74622e-07
-6.81684e-07
-4.70137e-07
2.23432e-07
-9.08387e-07
-2.19021e-07
-2.58654e-07
-2.6814e-07
-4.29005e-07
-2.68282e-07
9.17109e-07
-2.77988e-07
6.90323e-07
-4.90091e-07
-4.81225e-07
6.96811e-07
-2.69793e-07
-4.8428e-07
9.2195e-07
-5.0872e-07
-6.95415e-07
-4.87703e-07
2.56218e-07
-4.8903e-07
-2.27994e-07
4.29504e-07
4.24163e-07
-2.22666e-07
-4.93918e-07
-1.58401e-06
-4.26259e-07
1.14837e-06
8.61904e-07
8.4968e-07
-1.56174e-06
-4.20601e-07
1.13266e-06
-4.26292e-07
-1.59455e-06
1.1565e-06
8.64334e-07
1.16088e-06
-1.59706e-06
-4.28932e-07
8.65117e-07
-4.30493e-07
-7.28224e-07
-4.25296e-07
-7.225e-07
1.14169e-06
-4.30001e-07
8.62657e-07
-1.57879e-06
-1.55069e-06
8.43348e-07
-4.17616e-07
1.12496e-06
8.39207e-07
-4.1575e-07
1.1198e-06
-4.17022e-07
8.4595e-07
1.13131e-06
1.1287e-06
8.41909e-07
-4.16573e-07
-4.23505e-07
-7.10448e-07
-4.16737e-07
-7.08512e-07
1.12421e-06
-4.24207e-07
8.4246e-07
-1.60695e-06
-4.26903e-07
1.1615e-06
8.72357e-07
8.63885e-07
-4.21433e-07
1.15058e-06
-4.22621e-07
1.17723e-06
8.88785e-07
1.16867e-06
-4.2819e-07
8.81303e-07
-4.44033e-07
-7.37363e-07
-4.25554e-07
-7.39608e-07
1.15946e-06
-4.50188e-07
8.81494e-07
-1.60535e-06
1.17358e-06
-4.28941e-07
8.60704e-07
8.47864e-07
1.14942e-06
-4.19222e-07
-4.24853e-07
1.1743e-06
8.62557e-07
1.17831e-06
-4.25172e-07
8.55335e-07
-4.27718e-07
-7.51923e-07
-4.25704e-07
-7.48159e-07
1.1683e-06
-4.25908e-07
8.5229e-07
-7.16291e-07
-4.25654e-07
-4.19793e-07
-4.25437e-07
-4.33646e-07
-7.35463e-07
-4.30023e-07
-7.41064e-07
-4.25978e-07
1.56973e-06
-4.25105e-07
-7.25951e-07
-4.18669e-07
8.4949e-07
-1.14056e-06
-4.2522e-07
-1.15474e-06
8.49608e-07
-4.20444e-07
-7.35154e-07
-7.14193e-07
1.13189e-06
1.1384e-06
-7.21593e-07
4.27854e-07
-7.20278e-07
1.13837e-06
-8.54038e-07
-7.30938e-07
1.15133e-06
-1.56023e-06
4.20818e-07
4.20625e-07
-1.57329e-06
1.14007e-06
-7.24815e-07
-1.16738e-06
-4.34329e-07
8.66243e-07
-4.28046e-07
8.60564e-07
8.48651e-07
-4.25185e-07
7.41328e-07
-4.3451e-07
8.67482e-07
-4.27134e-07
-1.60242e-06
8.62177e-07
-1.59033e-06
-4.26621e-07
-4.3447e-07
-1.59217e-06
7.43096e-07
4.18953e-07
4.30838e-07
-1.16328e-06
-8.54445e-07
-8.54653e-07
-1.14842e-06
3.92645e-07
-5.56933e-07
-4.77388e-07
6.63113e-07
3.73121e-07
-5.62296e-07
-4.73938e-07
-4.97017e-07
4.23685e-07
-5.70021e-07
-5.59966e-07
4.24688e-07
-4.91324e-07
-1.73723e-07
1.05165e-06
-4.85279e-07
1.05404e-06
-5.64654e-07
-1.41955e-07
4.15072e-07
3.62075e-07
6.75032e-07
-5.6424e-07
-4.72868e-07
6.84029e-07
3.56127e-07
-5.67215e-07
-4.72942e-07
-4.83836e-07
6.71355e-07
3.80927e-07
-5.68446e-07
-5.67446e-07
6.7031e-07
3.76289e-07
-4.79153e-07
-2.04391e-07
1.04269e-06
-4.76219e-07
1.04712e-06
-5.67478e-07
-1.91498e-07
6.66737e-07
3.71782e-07
4.22543e-07
-5.05282e-07
-5.95828e-07
6.89592e-07
-4.95725e-07
3.93274e-07
-5.8714e-07
-5.09743e-07
4.03941e-07
-6.07359e-07
-6.01698e-07
-5.08533e-07
4.00066e-07
-1.79496e-07
1.10933e-06
-5.07286e-07
1.10791e-06
-5.97819e-07
-1.93513e-07
4.04658e-07
4.2853e-07
-5.69072e-07
-5.07913e-07
6.65721e-07
-5.71127e-07
3.9897e-07
-4.93565e-07
-5.13529e-07
-5.88737e-07
4.09376e-07
-5.79031e-07
4.10974e-07
-5.14795e-07
-1.50076e-07
1.09109e-06
-5.12486e-07
1.08735e-06
-5.71709e-07
-1.58861e-07
4.14965e-07
1.04447e-06
-1.91583e-07
-4.79765e-07
-5.02898e-07
-1.55161e-07
1.08174e-06
-1.44703e-07
1.07174e-06
-5.02346e-07
-3.94556e-07
-1.75039e-07
1.06033e-06
-4.90737e-07
6.49475e-07
5.6451e-07
-1.69515e-07
5.61649e-07
6.53789e-07
-4.83835e-07
1.07073e-06
1.05015e-06
-5.66697e-07
-5.63498e-07
1.05877e-06
1.76873e-07
1.07029e-06
-5.75812e-07
-6.59153e-07
1.08412e-06
-5.80131e-07
3.89685e-07
4.90945e-07
4.92924e-07
3.97786e-07
-5.65993e-07
1.06758e-06
5.82781e-07
-1.59995e-07
-1.38418e-07
6.58586e-07
-1.6938e-07
-1.09736e-06
-1.75191e-07
-5.08529e-07
4.22819e-07
4.23788e-07
-5.10665e-07
-1.63872e-07
4.18846e-07
-1.09192e-06
4.08196e-07
4.95948e-07
3.93439e-07
1.77791e-07
3.96777e-07
5.81833e-07
-6.70273e-07
-6.73959e-07
5.75102e-07
3.97092e-07
-1.25307e-06
4.21341e-07
5.60566e-07
4.32179e-07
-1.36304e-06
6.07916e-07
5.56579e-07
-1.26718e-06
4.68198e-07
2.66297e-07
-1.27233e-06
4.49516e-07
5.56519e-07
-9.93966e-07
-8.24548e-07
5.65446e-07
-8.36782e-07
-1.00487e-06
4.46624e-07
-1.28508e-06
-1.45123e-06
4.67368e-07
6.06326e-07
5.29388e-07
-1.54885e-06
6.47182e-07
6.4626e-07
5.79522e-07
-1.46026e-06
2.57748e-07
6.16443e-07
-1.54253e-06
6.68338e-07
-1.11181e-06
-9.62374e-07
6.22952e-07
-9.36857e-07
-1.22685e-06
5.2222e-07
-1.51744e-06
-1.28088e-06
5.49565e-07
5.27481e-07
5.82485e-07
5.67636e-07
-1.35466e-06
5.46143e-07
5.82126e-07
-1.27716e-06
1.67531e-07
5.34836e-07
5.60483e-07
-1.26285e-06
-1.1079e-06
-7.22534e-07
5.49553e-07
-7.17032e-07
-1.09816e-06
5.43153e-07
-1.26905e-06
-1.27561e-06
2.26706e-07
4.95792e-07
5.53109e-07
5.70812e-07
2.1467e-07
-1.38263e-06
5.97147e-07
5.4179e-07
1.79165e-07
5.52437e-07
-1.27339e-06
1.7542e-07
5.39054e-07
-1.27922e-06
5.64746e-07
-1.09564e-06
-7.31951e-07
5.51989e-07
-7.42978e-07
2.18146e-07
-1.07932e-06
5.22793e-07
-1.28051e-06
-9.14751e-07
-1.06249e-06
6.14202e-07
5.70127e-07
-1.05942e-06
-7.77888e-07
-1.03792e-06
-7.84423e-07
5.50008e-07
1.389e-06
-1.16813e-06
-8.17053e-07
5.96181e-07
4.47591e-07
-2.80604e-07
-1.08174e-06
-2.6736e-07
5.03826e-07
6.04568e-07
-8.0145e-07
-9.19069e-07
2.77569e-07
-8.29252e-07
1.14438e-06
-8.0705e-07
-5.1223e-07
-7.78549e-07
-1.40427e-06
-5.96538e-07
-6.04479e-07
-1.35075e-06
-8.1085e-07
-2.1218e-07
-1.05306e-06
4.87356e-07
-1.03169e-06
4.73972e-07
5.18581e-07
-1.12096e-06
7.24019e-07
-1.07515e-06
5.30291e-07
5.48247e-07
-1.2596e-06
4.99177e-07
-1.28489e-06
5.48166e-07
-1.08375e-06
-1.28205e-06
7.22513e-07
-1.26282e-06
-5.6371e-07
-1.38651e-06
1.12908e-06
-1.3685e-06
-2.04089e-07
-5.28405e-07
-5.65327e-07
-2.10172e-07
-1.33921e-06
-5.2888e-07
-7.52096e-07
5.86863e-07
-4.56345e-07
-6.13975e-07
5.14539e-07
-4.28201e-07
-6.58533e-07
-6.27361e-07
-5.35008e-07
-1.174e-06
1.19003e-07
1.3205e-07
-7.1919e-07
-1.13202e-06
-4.85431e-07
-4.85772e-07
5.27955e-07
-4.84682e-07
5.18158e-07
-5.29163e-07
-3.9895e-07
4.14287e-07
5.09859e-07
-5.32241e-07
-3.91905e-07
-4.53044e-07
5.20314e-07
-5.07229e-07
-9.50202e-07
2.48621e-08
1.80191e-08
-4.50063e-07
-9.42485e-07
5.14302e-07
-5.10179e-07
-4.64781e-07
4.75549e-07
-5.21459e-07
5.03784e-07
4.23052e-07
-5.30926e-07
-3.9591e-07
4.37714e-07
-5.34993e-07
-4.1146e-07
-4.74716e-07
4.63728e-07