/*--------------------------------*- C++ -*----------------------------------*\
| =========                 |                                                 |
| \\      /  F ield         | OpenFOAM: The Open Source CFD Toolbox           |
|  \\    /   O peration     | Version:  2506                                  |
|   \\  /    A nd           | Website:  www.openfoam.com                      |
|    \\/     M anipulation  |                                                 |
\*---------------------------------------------------------------------------*/
FoamFile
{
    version     2.0;
    format      ascii;
    arch        "LSB;label=32;scalar=64";
    class       volVectorField;
    location    "2000";
    object      U;
}
// * * * * * * * * * * * * * * * * * * * * * * * * * * * * * * * * * * * * * //

dimensions      [0 1 -1 0 0 0 0];

internalField   nonuniform List<vector> 
60096
(
(1.18469e+08 1.0962e+08 4.61098e+08)
(2.2113e+08 -3.72974e+08 -6.20285e+08)
(-6.44226e+07 -3.39077e+07 -3.82936e+08)
(1.67746e+07 2.09255e+08 2.88641e+08)
(3.92972e+07 2.64817e+07 -1.62317e+08)
(4.52387e+06 -2.65152e+08 -5.2191e+08)
(6.70251e+07 1.8934e+08 2.64657e+08)
(-1.48025e+08 -1.45484e+08 -4.39336e+08)
(9.87418e+07 -6.04757e+08 -1.70098e+09)
(-2.33391e+07 -3.06518e+08 -4.16887e+09)
(8.93653e+07 7.26015e+08 -7.47286e+07)
(-2.06511e+08 6.49157e+07 -1.57317e+09)
(3.02049e+07 -4.83339e+08 -1.83077e+09)
(2.2778e+08 -5.14438e+08 -2.61782e+09)
(8.17452e+07 -6.1799e+07 -1.38723e+09)
(5.54752e+07 -3.18543e+08 -7.80925e+08)
(-2.98639e+08 -3.34846e+08 -2.84614e+07)
(-1.68401e+07 1.25965e+08 2.79237e+08)
(-8.43229e+08 -1.45838e+09 -2.83665e+08)
(-2.98866e+08 -1.41555e+08 -1.20911e+07)
(-5.23594e+07 1.52006e+06 -4.95545e+08)
(-1.76211e+08 1.29705e+08 -6.95207e+07)
(-2.37789e+08 -1.63939e+08 -1.4307e+08)
(-4.971e+08 -4.21626e+08 7.88612e+07)
(-3.00687e+07 2.12758e+08 4.51834e+06)
(2.17269e+06 1.49363e+08 2.45875e+08)
(3.27399e+07 1.27857e+08 1.79608e+08)
(-9.36245e+07 1.56695e+08 1.94835e+08)
(-1.8477e+08 5.76769e+07 -9.76899e+07)
(-3.62021e+06 2.74145e+08 1.43514e+08)
(-1.68843e+08 1.47833e+08 8.2344e+07)
(1.44176e+08 1.87031e+08 9.13697e+07)
(9.68278e+07 -2.01858e+08 -7.4657e+08)
(-4.71815e+07 4.53791e+07 -2.68585e+08)
(8.61466e+07 2.14874e+08 7.8518e+07)
(-1.04573e+08 -1.47558e+08 -6.05886e+08)
(1.1935e+08 -9.40107e+06 -4.9013e+08)
(2.17985e+07 7.94061e+07 -2.85003e+08)
(2.14669e+07 -7.6288e+07 -5.48775e+08)
(2.98052e+07 1.15053e+08 -1.26759e+08)
(1.20018e+08 -4.06991e+08 -1.2092e+09)
(8.5869e+06 8.07328e+07 -6.15827e+08)
(-6.21137e+06 1.71985e+08 -5.79903e+08)
(-1.86955e+07 1.26252e+08 -2.43337e+08)
(8.17325e+07 -1.19015e+08 -6.19323e+08)
(-5.94127e+07 -1.01686e+07 -1.00343e+09)
(810671 9.25982e+07 -4.96084e+08)
(-4.29564e+07 -3.52909e+07 -1.00099e+09)
(-6.14444e+07 -6.43531e+07 -2.98261e+07)
(6.24524e+07 1.95444e+08 2.06023e+08)
(-6.95702e+07 -9.14663e+07 -3.77324e+08)
(-6.18042e+07 9.64437e+07 -1.76216e+08)
(-1.45941e+08 1.90713e+08 -3.47117e+07)
(-6.12424e+07 1.79061e+08 2.9141e+07)
(-1.20969e+08 5.90239e+07 -2.09285e+08)
(-1.06524e+08 4.36416e+07 -2.35379e+08)
(-1.62471e+08 -1.01096e+08 -3.37329e+07)
(1.0058e+08 6.30581e+07 -3.31697e+07)
(-990816 1.56942e+08 2.70082e+08)
(-1.9139e+08 4.32038e+08 6.31977e+08)
(-1.2205e+08 2.08435e+07 -4.9009e+08)
(1.32279e+08 2.50997e+08 -8.67991e+06)
(-1.08531e+08 -5.15602e+07 -9.00121e+08)
(-1.32427e+08 1.87214e+08 3.60249e+08)
(-5.93149e+06 1.51188e+07 1.8408e+08)
(-1.57461e+06 1.47429e+07 1.64234e+08)
(-5.2817e+06 3.22525e+07 1.89458e+08)
(-4.12653e+06 1.83227e+07 1.83039e+08)
(-4.85476e+06 1.75829e+07 1.82702e+08)
(-6.58934e+06 2.34335e+07 1.90673e+08)
(-4.33857e+06 1.53797e+07 1.85585e+08)
(-7.27855e+06 2.58409e+07 1.95442e+08)
(1.50491e+07 1.85728e+07 1.78017e+08)
(5.33185e+07 1.40737e+07 2.07078e+08)
(3.54073e+07 4.32256e+07 2.00004e+08)
(3.41634e+07 3.03608e+07 1.92766e+08)
(1.90993e+07 1.72793e+07 1.77472e+08)
(2.44578e+07 1.68109e+07 1.83388e+08)
(2.51367e+07 3.43504e+07 1.89102e+08)
(2.5447e+07 4.09719e+07 1.97049e+08)
(3.29202e+06 5.10699e+07 2.0245e+08)
(3.59904e+07 6.79598e+07 2.04089e+08)
(2.86087e+07 8.18523e+07 2.08723e+08)
(2.61261e+07 7.80547e+07 2.25622e+08)
(6.44029e+06 5.46538e+07 2.10295e+08)
(2.98899e+07 5.31326e+07 1.91537e+08)
(2.00195e+07 6.90195e+07 2.03789e+08)
(3.23497e+07 7.63023e+07 1.9211e+08)
(5.80166e+06 3.15192e+07 2.06093e+08)
(2.95121e+07 3.52212e+07 2.12471e+08)
(3.15925e+07 6.86119e+07 2.54433e+08)
(3.08106e+07 5.5366e+07 2.67073e+08)
(6.37911e+06 4.21837e+07 2.15122e+08)
(1.134e+07 4.15385e+07 2.05416e+08)
(1.71615e+07 5.46926e+07 2.37158e+08)
(1.65788e+07 5.87003e+07 2.20298e+08)
(2.57948e+06 1.96357e+07 1.68115e+08)
(-4.35334e+06 3.39017e+07 1.9664e+08)
(468281 2.23715e+07 1.86349e+08)
(1.10606e+07 3.01963e+07 1.89423e+08)
(3.95629e+06 2.66947e+07 1.81452e+08)
(-7.95311e+06 2.47851e+07 2.01527e+08)
(1.2533e+07 2.63913e+07 1.89689e+08)
(-198113 2.74418e+07 1.90752e+08)
(1.58394e+06 2.54462e+07 1.74055e+08)
(1.70058e+07 2.96234e+07 1.83187e+08)
(2.37445e+07 4.08623e+07 1.84958e+08)
(3.87626e+06 3.53845e+07 1.84556e+08)
(3.18055e+06 2.35954e+07 1.81921e+08)
(1.32485e+07 2.76792e+07 1.78981e+08)
(9.12154e+06 3.99634e+07 1.91927e+08)
(1.25069e+07 4.35982e+07 1.95767e+08)
(-1.15875e+06 4.09388e+07 1.95653e+08)
(947585 3.04908e+07 1.99636e+08)
(1.95172e+07 3.93434e+07 1.96875e+08)
(2.15302e+07 6.33793e+07 2.22944e+08)
(4.13624e+06 4.39353e+07 2.08831e+08)
(2.07316e+06 3.06426e+07 2.07397e+08)
(8.049e+06 4.98885e+07 2.20359e+08)
(7.07254e+06 3.25432e+07 2.00417e+08)
(3.81031e+06 4.1158e+07 1.90453e+08)
(2.73243e+07 6.43135e+07 2.02788e+08)
(2.0718e+07 4.78414e+07 1.92814e+08)
(2.44628e+07 6.01219e+07 1.9083e+08)
(1.16291e+07 3.99394e+07 1.95785e+08)
(2.18369e+07 4.94342e+07 1.93402e+08)
(2.34381e+07 5.17549e+07 1.98479e+08)
(3.31433e+07 5.19168e+07 2.13458e+08)
(1.20006e+06 8.01025e+06 1.87344e+08)
(1.75381e+06 9.3772e+06 1.93189e+08)
(7.81257e+06 9.15229e+06 1.75991e+08)
(2.50534e+06 1.29715e+07 1.85558e+08)
(2.21812e+06 8.60659e+06 1.92066e+08)
(2.57227e+06 7.80284e+06 1.84868e+08)
(3.93132e+06 9.62358e+06 1.78562e+08)
(4.61266e+06 7.31102e+06 1.78266e+08)
(1.24655e+06 4.24918e+06 1.76744e+08)
(1.29364e+07 -1.12963e+07 1.66248e+08)
(3.2572e+07 -1.91846e+07 1.82524e+08)
(1.07966e+07 -6.69559e+06 1.79463e+08)
(1.73738e+06 156442 1.76072e+08)
(6.0198e+06 -3.96922e+06 1.67768e+08)
(1.19331e+07 -3.35125e+06 1.73774e+08)
(1.59319e+07 -8.97572e+06 1.64263e+08)
(1.34487e+07 1.96665e+07 1.53766e+08)
(3.67194e+07 -1.33002e+07 1.74566e+08)
(3.51724e+07 -299010 1.77776e+08)
(3.5567e+07 -1.33466e+07 1.64344e+08)
(2.00095e+07 1.68453e+07 1.50892e+08)
(2.0721e+07 2.74629e+06 1.65301e+08)
(2.19481e+07 3.99632e+06 1.57546e+08)
(1.85747e+07 1.03674e+07 1.67988e+08)
(3.36716e+06 1.58604e+07 1.99973e+08)
(1.18393e+07 -1.05696e+06 1.76373e+08)
(2.64042e+07 -7.64929e+06 1.7649e+08)
(1.3081e+07 6.04668e+06 1.85716e+08)
(1.07614e+06 1.79764e+07 1.86575e+08)
(7.84796e+06 6.90873e+06 1.77117e+08)
(1.35862e+07 7.50796e+06 1.80441e+08)
(1.57072e+07 2.61262e+06 1.66041e+08)
(201273 8.17216e+06 1.86506e+08)
(9.14648e+06 1.10074e+07 1.72155e+08)
(2.3835e+06 1.51286e+07 1.89869e+08)
(2.08367e+06 1.2134e+07 1.9006e+08)
(2.09856e+06 9.4296e+06 1.93713e+08)
(3.6673e+06 9.69763e+06 1.85803e+08)
(3.53955e+06 1.15322e+07 1.85353e+08)
(4.63942e+06 8.59366e+06 1.77128e+08)
(4.13887e+06 2.63914e+06 1.75363e+08)
(7.53545e+06 -789652 1.75806e+08)
(1.91341e+07 -4.55212e+06 1.69469e+08)
(1.38437e+07 6.96099e+06 1.62049e+08)
(8.49221e+06 97555.1 1.74881e+08)
(9.35653e+06 781157 1.80793e+08)
(1.16595e+07 1.17115e+07 1.69466e+08)
(1.34798e+07 7.71907e+06 1.63372e+08)
(7.65572e+06 1.13848e+07 1.63938e+08)
(2.65579e+06 1.60292e+07 1.90421e+08)
(1.21056e+07 2.55003e+06 1.70137e+08)
(1.95828e+07 2.78676e+06 1.66088e+08)
(9.31884e+06 1.31738e+07 1.70979e+08)
(7.46947e+06 7.5342e+06 1.7677e+08)
(8.7686e+06 9.51645e+06 1.66386e+08)
(7.26372e+06 8.70771e+06 1.80564e+08)
(1.55083e+07 2.39648e+06 1.62085e+08)
(1.68286e+07 3.01585e+06 1.5561e+08)
(1.70264e+07 -4.18195e+06 1.61761e+08)
(1.95803e+07 -743666 1.69654e+08)
(1.66838e+07 1.53653e+06 1.65133e+08)
(1.57359e+07 -4.27229e+06 1.61866e+08)
(2.17187e+07 -1.98172e+06 1.65476e+08)
(2.71806e+07 -1.89764e+07 1.78983e+08)
(5.82287e+07 2.94623e+08 6.47829e+07)
(9.11671e+07 1.52793e+08 1.33802e+08)
(7.94884e+07 1.66782e+08 1.11094e+08)
(7.91488e+07 2.04335e+08 1.44664e+08)
(6.20618e+07 2.34339e+08 8.42305e+07)
(8.73345e+07 1.89862e+08 1.26353e+08)
(7.56641e+07 2.15567e+08 8.36775e+07)
(9.03092e+07 1.8366e+08 1.11763e+08)
(8.09956e+07 5.92025e+07 1.8466e+08)
(8.76123e+07 3.72256e+06 2.15538e+08)
(1.09379e+08 1.53759e+07 2.21805e+08)
(8.23363e+07 3.66319e+07 1.96995e+08)
(7.44452e+07 5.28352e+07 1.88615e+08)
(1.02364e+08 3.00093e+07 2.01072e+08)
(8.74883e+07 5.68159e+07 1.73985e+08)
(8.59891e+07 1.76386e+07 2.06767e+08)
(1.02287e+08 6.30563e+07 1.50842e+08)
(1.18625e+08 2.22129e+07 2.16236e+08)
(1.19102e+08 -3.89392e+06 2.36849e+08)
(1.00613e+08 1.79184e+07 1.7956e+08)
(1.02773e+08 4.76999e+07 1.73178e+08)
(1.09831e+08 3.51469e+07 1.74357e+08)
(9.71183e+07 1.74689e+07 1.81955e+08)
(1.16708e+08 1.74697e+07 1.80306e+08)
(9.04328e+07 1.25941e+08 1.9179e+08)
(8.58877e+07 5.72595e+07 2.23248e+08)
(7.3631e+07 2.78086e+07 2.16812e+08)
(7.96163e+07 6.20754e+07 2.09895e+08)
(8.95102e+07 1.10999e+08 1.96206e+08)
(1.09641e+08 7.53666e+07 2.02605e+08)
(6.84997e+07 7.61155e+07 1.78459e+08)
(9.54095e+07 5.73298e+07 2.13135e+08)
(8.25416e+07 1.4189e+08 1.39679e+08)
(8.54711e+07 1.32007e+08 1.28997e+08)
(8.4043e+07 1.81538e+08 1.36966e+08)
(8.81532e+07 1.10941e+08 1.78512e+08)
(8.12254e+07 1.1293e+08 1.46128e+08)
(9.3295e+07 1.33546e+08 1.46434e+08)
(9.90188e+07 1.19957e+08 1.89631e+08)
(1.04543e+08 1.35304e+08 1.48114e+08)
(1.06694e+08 1.07811e+08 1.73235e+08)
(1.09205e+08 6.50216e+07 2.08089e+08)
(1.20879e+08 3.83759e+07 1.88832e+08)
(1.07692e+08 1.02721e+08 1.46253e+08)
(9.54252e+07 9.4728e+07 1.62857e+08)
(9.53466e+07 7.24757e+07 1.74163e+08)
(1.10712e+08 6.25812e+07 1.81188e+08)
(9.35482e+07 5.89814e+07 1.75994e+08)
(9.18413e+07 9.81682e+07 1.42086e+08)
(8.70311e+07 1.57697e+08 1.54645e+08)
(8.84565e+07 8.13132e+07 1.71575e+08)
(8.41606e+07 4.41859e+07 1.63927e+08)
(1.01889e+08 9.6806e+07 1.63081e+08)
(1.03378e+08 1.22311e+08 1.50314e+08)
(8.84793e+07 9.2714e+07 1.71593e+08)
(1.022e+08 9.22411e+07 1.74683e+08)
(1.1538e+08 8.0239e+07 1.47083e+08)
(1.01615e+08 3.99673e+07 1.98222e+08)
(9.63844e+07 5.78624e+07 2.03277e+08)
(1.04487e+08 3.46142e+07 1.94504e+08)
(1.13804e+08 5.18315e+07 1.73574e+08)
(1.21283e+08 6.7829e+07 1.87747e+08)
(1.11009e+08 4.8799e+07 1.69977e+08)
(9.48913e+07 5.95365e+07 1.89572e+08)
(6.08766e+07 -1.66669e+07 1.32019e+08)
(5.99194e+07 2.20506e+06 1.47355e+08)
(7.60414e+07 1.70954e+07 1.05512e+08)
(5.8667e+07 -1.46589e+06 1.37747e+08)
(5.78143e+07 -1.07525e+07 1.44996e+08)
(6.63086e+07 -1.05963e+07 1.26242e+08)
(5.95691e+07 -3.62577e+06 1.27219e+08)
(6.94053e+07 1.05802e+07 1.11196e+08)
(4.36568e+07 -8.57014e+06 1.56144e+08)
(1.13015e+07 -1.14896e+07 1.62321e+08)
(2.4699e+07 1.42918e+07 1.47173e+08)
(1.77467e+07 -1.23514e+06 1.55486e+08)
(1.9927e+07 -1.3797e+07 1.75084e+08)
(1.37405e+07 -5.14807e+06 1.35851e+08)
(2.16511e+07 2.78323e+06 1.64514e+08)
(1.92882e+07 1.34589e+07 1.42539e+08)
(6.75096e+07 4.21549e+07 7.67134e+07)
(4.8377e+07 4.59695e+07 9.88717e+07)
(6.62733e+07 7.02455e+07 3.46085e+07)
(3.60457e+07 3.49329e+07 8.01485e+07)
(5.1099e+07 2.73138e+07 1.07159e+08)
(5.30368e+07 4.02331e+07 7.88985e+07)
(4.53724e+07 4.12716e+07 7.06431e+07)
(5.07959e+07 6.15363e+07 4.92257e+07)
(3.92945e+07 2.89374e+06 1.52085e+08)
(1.14321e+07 7.63854e+06 1.5565e+08)
(1.81419e+07 2.31377e+07 1.24043e+08)
(1.58624e+07 1.38592e+07 1.56456e+08)
(2.87845e+07 -4.00038e+06 1.78093e+08)
(1.93158e+07 -4.10871e+06 1.38198e+08)
(1.71604e+07 1.80925e+07 1.55417e+08)
(1.44562e+07 1.95946e+07 1.31397e+08)
(5.13639e+07 -8.40143e+06 1.61598e+08)
(5.81531e+07 1.00458e+07 1.1716e+08)
(4.99293e+07 -3.79287e+06 1.53008e+08)
(2.43899e+07 -7.5441e+06 1.72331e+08)
(4.71579e+07 7.9434e+06 1.36331e+08)
(6.02003e+07 6.14452e+06 1.28106e+08)
(3.81292e+07 6.06347e+06 1.50864e+08)
(4.96771e+07 164231 1.26301e+08)
(5.3974e+07 -1.76946e+06 1.27128e+08)
(1.57116e+07 -1.7473e+06 1.3398e+08)
(3.45281e+07 1.53794e+07 1.27568e+08)
(6.75385e+07 1.64924e+07 1.07499e+08)
(5.00752e+07 1.40865e+07 1.33473e+08)
(2.92614e+07 707550 1.39229e+08)
(5.97413e+07 2.34092e+07 1.23965e+08)
(2.74343e+07 1.74966e+07 1.22198e+08)
(5.66379e+07 2.23268e+07 9.99818e+07)
(4.66298e+07 3.07448e+06 1.34519e+08)
(2.05605e+07 1.20113e+07 1.52046e+08)
(2.34238e+07 2.88856e+07 1.06366e+08)
(5.52418e+07 1.82058e+07 1.15846e+08)
(4.71755e+07 1.27916e+07 1.26233e+08)
(3.10823e+07 1.02071e+07 1.22879e+08)
(3.43237e+07 2.23724e+06 1.49061e+08)
(6.401e+07 3.25253e+07 9.31088e+07)
(2.58376e+07 3.19854e+07 9.75554e+07)
(1.06808e+07 1.93188e+07 1.34181e+08)
(2.82774e+07 3.68185e+07 1.04765e+08)
(4.36158e+07 2.1602e+07 9.85714e+07)
(3.39358e+07 1.13836e+07 1.30219e+08)
(2.84279e+07 3.46122e+07 1.14597e+08)
(1.93685e+07 2.06382e+07 1.27015e+08)
(-2.29156e+07 2.96097e+07 1.31449e+08)
(-1.55086e+07 2.81375e+07 1.47255e+08)
(-5.21162e+06 3.48418e+07 1.3981e+08)
(-2.7189e+07 4.09618e+07 1.51955e+08)
(-2.09233e+07 3.14524e+07 1.35324e+08)
(-1.19862e+07 3.30455e+07 1.40187e+08)
(-2.35111e+07 3.63613e+07 1.44164e+08)
(-1.27267e+07 3.61956e+07 1.48725e+08)
(-1.05327e+07 2.22328e+07 1.65131e+08)
(-1.01513e+07 1.47864e+07 1.75706e+08)
(-5.49067e+06 1.64091e+07 1.65857e+08)
(-8.02506e+06 2.74121e+07 1.89199e+08)
(-7.93196e+06 2.37525e+07 1.80125e+08)
(-8.02102e+06 1.51686e+07 1.72737e+08)
(-7.56579e+06 2.53814e+07 1.81898e+08)
(-9.61863e+06 1.82706e+07 1.74815e+08)
(1.13787e+07 2.73936e+07 1.67267e+08)
(8.20397e+06 1.40944e+07 1.71194e+08)
(2.96805e+07 1.03891e+07 2.02962e+08)
(1.89052e+07 5.19027e+07 1.90566e+08)
(1.61508e+07 2.99862e+07 1.77673e+08)
(1.038e+07 3.56428e+06 1.83088e+08)
(2.40907e+07 2.59763e+07 1.84756e+08)
(1.21175e+07 -979033 1.89717e+08)
(-1.3253e+07 6.28357e+07 1.67885e+08)
(-6.48949e+06 4.67382e+07 1.86231e+08)
(1.44658e+07 8e+07 1.91884e+08)
(1.83489e+07 8.83497e+07 1.91878e+08)
(-3.81749e+06 5.68135e+07 1.78121e+08)
(-6.99716e+06 5.6874e+07 1.82102e+08)
(8.98142e+06 6.36955e+07 1.77659e+08)
(8.78317e+06 5.17506e+07 1.86113e+08)
(-1.28418e+07 2.81723e+07 1.60464e+08)
(-3.28703e+06 3.48922e+07 1.49802e+08)
(-2.1987e+07 4.52947e+07 1.54367e+08)
(-1.08025e+07 3.78621e+07 1.80246e+08)
(-1.60954e+07 3.31251e+07 1.7007e+08)
(-1.24734e+07 4.12323e+07 1.564e+08)
(-1.31896e+07 3.49856e+07 1.69085e+08)
(-1.47335e+07 4.67743e+07 1.71312e+08)
(-8.80331e+06 2.27275e+07 1.52767e+08)
(-9.35858e+06 3.07197e+07 1.77353e+08)
(-2.30238e+06 1.50601e+07 1.66883e+08)
(-1.75052e+06 2.37429e+07 1.53371e+08)
(-9.58694e+06 2.68537e+07 1.62237e+08)
(-6.38698e+06 2.72295e+07 1.65761e+08)
(-4.57378e+06 2.78757e+07 1.66596e+08)
(-1.81278e+06 2.96937e+07 1.72249e+08)
(670868 4.22716e+07 1.62791e+08)
(-1.71372e+07 4.84782e+07 1.61802e+08)
(-6.91016e+06 4.00525e+07 1.79527e+08)
(1.76196e+07 6.04283e+07 1.90838e+08)
(1.01538e+06 5.44082e+07 1.72168e+08)
(-1.04373e+07 4.69816e+07 1.78667e+08)
(1.03702e+07 5.50671e+07 1.8681e+08)
(-795022 5.55875e+07 1.77612e+08)
(3.79161e+06 2.72077e+07 1.65375e+08)
(1.24184e+07 3.79599e+07 1.84184e+08)
(-7.83411e+06 3.17418e+07 1.88803e+08)
(-4.86615e+06 1.52624e+07 1.77007e+08)
(7.59359e+06 2.77465e+07 1.69596e+08)
(3.21457e+06 3.81839e+07 1.74136e+08)
(1.2774e+06 3.17533e+07 1.77057e+08)
(113423 4.04034e+07 1.82926e+08)
(8.69385e+08 -1.04582e+09 -1.54496e+08)
(8.2133e+08 -1.50254e+09 -4.8726e+08)
(1.47948e+08 -7.29924e+08 -5.50437e+08)
(8.11547e+07 -2.13557e+08 -1.24539e+09)
(7.67447e+08 -5.56221e+08 3.32694e+07)
(5.70493e+08 -9.88722e+08 -5.47264e+08)
(3.16543e+08 -4.0351e+08 -7.23386e+08)
(-6.21614e+07 -6.94901e+08 -1.00008e+09)
(-5.42179e+08 -1.9659e+09 -3.196e+08)
(-8.78165e+08 -2.0525e+09 -4.10694e+08)
(-2.86517e+08 -4.24697e+08 -5.5832e+07)
(-3.43875e+08 -5.84355e+08 -8.70971e+08)
(-4.12901e+08 -1.94235e+09 -9.731e+08)
(-3.83804e+08 -1.66939e+09 -6.29941e+08)
(-3.02199e+08 -2.30854e+08 -3.18266e+08)
(-3.62319e+08 -4.63555e+08 -1.04422e+08)
(1.92616e+08 -1.23943e+08 -2.58532e+08)
(9.92254e+07 2.88316e+07 -3.40708e+08)
(1.19081e+08 2.51778e+08 3.92453e+08)
(2.6914e+08 -1.07045e+08 -5.7533e+08)
(1.62524e+08 -8.42837e+07 -1.85365e+08)
(2.06489e+08 1.14889e+08 1.10145e+07)
(2.84646e+08 -1.13162e+07 -1.46894e+08)
(-1.73269e+08 1.60142e+08 3.35218e+08)
(4.5654e+07 -1.21806e+08 -2.02435e+09)
(1.12787e+08 1.14179e+08 -5.18267e+08)
(3.35498e+08 -3.10251e+08 -1.52778e+09)
(7.68435e+07 1.03488e+07 -3.0802e+09)
(1.89979e+08 -1.80787e+07 -2.4915e+09)
(7.45678e+07 -4.37536e+08 -2.41604e+09)
(9.84791e+07 -3.12469e+07 -2.96011e+09)
(2.31894e+08 -4.76847e+08 -2.36255e+09)
(-1.40209e+08 -1.11877e+09 -1.6001e+09)
(2.9936e+08 -3.25731e+08 -5.96867e+08)
(1.83028e+07 -3.24775e+08 -1.59688e+09)
(7.17045e+07 -2.8226e+08 -8.89345e+08)
(-3.19397e+08 -4.2316e+08 -1.38966e+09)
(-1.55303e+08 -4.1487e+08 -1.83322e+09)
(-2.1727e+08 -6.3588e+08 -1.27405e+09)
(3.77993e+07 -3.6316e+08 -1.93817e+09)
(6.65768e+06 -8.15886e+08 -8.13039e+08)
(-6.86895e+07 2.15868e+08 -4.3381e+08)
(-1.19556e+08 -1.0748e+08 -2.651e+08)
(1.45195e+08 -2.52127e+08 -7.40966e+08)
(-3.34357e+08 -5.2284e+08 -6.81725e+08)
(-2.47674e+08 -7.9815e+07 -9.48508e+07)
(-1.70696e+08 -4.59544e+08 -5.11707e+08)
(-1.413e+08 -1.09458e+08 -4.86887e+08)
(2.54522e+08 -1.72097e+08 -6.90899e+08)
(2.42434e+08 -1.91302e+08 -1.9618e+09)
(-5.01836e+07 -2.85373e+07 -1.20695e+09)
(2.89589e+08 -1.98471e+08 -1.29249e+09)
(3.38472e+08 -1.3188e+08 -9.2774e+08)
(1.53716e+08 -4.41374e+08 -2.10667e+09)
(2.94192e+08 -2.51347e+08 -1.15006e+09)
(1.11795e+08 -4.46786e+08 -2.35728e+09)
(2.10084e+08 -2.61039e+08 -9.55204e+08)
(1.6534e+08 -3.2126e+08 -1.17332e+09)
(-1.45029e+07 -7.90104e+06 -6.67976e+08)
(265070 -1.09219e+08 -5.78101e+07)
(1.79001e+08 -2.47074e+08 -1.05128e+09)
(1.7989e+08 -2.77041e+08 -1.10504e+09)
(8.01428e+07 -5.98824e+07 -5.06774e+08)
(1.01941e+08 -2.56436e+07 -5.19184e+08)
(1.59017e+07 -1.85019e+06 1.69996e+08)
(2.34085e+07 -295207 1.66518e+08)
(2.14416e+07 1.33865e+07 1.54171e+08)
(2.46695e+07 -894972 1.5684e+08)
(3.46203e+07 1.4771e+07 1.66564e+08)
(2.84404e+07 1.11928e+07 1.6039e+08)
(2.27969e+07 8.12523e+06 1.55761e+08)
(2.18926e+07 1.49329e+07 1.61316e+08)
(1.9678e+07 -9.52809e+06 1.72626e+08)
(1.60282e+07 -1.84786e+07 1.72326e+08)
(2.03645e+07 15612.5 1.6212e+08)
(2.66918e+07 -1.60527e+07 1.6712e+08)
(2.94719e+07 -253207 1.70774e+08)
(2.32707e+07 -1.52974e+06 1.6861e+08)
(2.73831e+07 -5.62682e+06 1.66773e+08)
(2.34692e+07 -3.46777e+06 1.66656e+08)
(1.9486e+07 5.65787e+06 1.52658e+08)
(1.93115e+07 -5.60583e+06 1.64579e+08)
(1.75194e+07 -1.2193e+06 1.56381e+08)
(2.07012e+07 -2.3135e+06 1.62758e+08)
(1.77878e+07 945070 1.5166e+08)
(1.5339e+07 -1.39005e+06 1.53719e+08)
(1.94362e+07 -1.62054e+06 1.53328e+08)
(1.92167e+07 -2.13874e+06 1.60355e+08)
(2.95425e+07 -6.17074e+06 1.62803e+08)
(3.11635e+07 -1.64539e+07 1.73657e+08)
(2.31725e+07 -5.68895e+06 1.56885e+08)
(2.94527e+07 -1.64972e+07 1.6227e+08)
(3.28119e+07 -5.2799e+06 1.59843e+08)
(2.99086e+07 -3.97204e+06 1.60603e+08)
(3.07303e+07 -7.7987e+06 1.70106e+08)
(2.86396e+07 -4.79403e+06 1.62039e+08)
(3.28292e+07 4.87711e+06 1.6544e+08)
(2.23915e+07 8.11457e+06 1.52479e+08)
(3.20961e+07 2.46868e+06 1.60121e+08)
(3.10052e+07 -4.95081e+06 1.63362e+08)
(2.61538e+07 -2.27544e+06 1.55874e+08)
(2.25479e+07 6.13714e+06 1.53627e+08)
(2.87362e+07 -1.02749e+07 1.61625e+08)
(2.86909e+07 1.41444e+06 1.56933e+08)
(2.78329e+07 4.10612e+06 1.63105e+08)
(2.74153e+07 -5.42038e+06 1.59894e+08)
(2.00044e+07 -1.45783e+06 1.61078e+08)
(1.97402e+07 8.69325e+06 1.51236e+08)
(2.48118e+07 2.79783e+06 1.57762e+08)
(2.40913e+07 -2.0144e+06 1.67583e+08)
(2.22788e+07 5.74925e+06 1.54497e+08)
(2.41829e+07 747501 1.62284e+08)
(2.1933e+07 2.80097e+06 1.52236e+08)
(2.58077e+07 -354551 1.57134e+08)
(2.93261e+07 -1.35122e+07 1.71061e+08)
(2.29586e+07 -3.49337e+06 1.68054e+08)
(2.36469e+07 809958 1.55505e+08)
(2.49232e+07 1.84137e+06 1.61219e+08)
(2.42596e+07 -719738 1.57785e+08)
(2.68112e+07 -5.28403e+06 1.61503e+08)
(1.96811e+07 5.93347e+06 1.58912e+08)
(2.1063e+07 -2.76273e+06 1.61778e+08)
(2.74214e+07 -9.48991e+06 1.64664e+08)
(2.06934e+07 -4.58108e+06 1.69292e+08)
(1.73414e+07 -1.03171e+06 1.56339e+08)
(2.25044e+07 -1.88845e+06 1.59261e+08)
(2.22145e+07 -7.67721e+06 1.58578e+08)
(2.67359e+07 -8.65568e+06 1.65683e+08)
(1.34347e+07 -5.75514e+06 1.59003e+08)
(1.8861e+07 3.41624e+06 1.57546e+08)
(7.90568e+06 2.90761e+06 1.82171e+08)
(1.88835e+07 -1.64633e+06 1.65959e+08)
(1.14926e+07 -5.75093e+06 1.60013e+08)
(1.01785e+07 -1.24129e+06 1.77566e+08)
(1.64302e+07 -4.55627e+06 1.65213e+08)
(1.09593e+07 960353 1.88366e+08)
(2.17017e+07 1.18034e+07 1.61269e+08)
(1.54196e+07 9.1427e+06 1.60984e+08)
(1.82557e+07 1.2377e+07 1.6002e+08)
(2.70839e+07 2.74667e+06 1.6059e+08)
(2.43498e+07 1.00859e+07 1.64246e+08)
(1.53317e+07 2.07692e+07 1.52054e+08)
(2.41799e+07 7.06273e+06 1.54794e+08)
(2.15847e+07 5.7254e+06 1.65688e+08)
(4.55964e+06 743722 1.8863e+08)
(6.8031e+06 5.59305e+06 1.69652e+08)
(1.07416e+06 4.28441e+06 1.85201e+08)
(1.40046e+06 4.97493e+06 1.8067e+08)
(4.15457e+06 1.80724e+06 1.83644e+08)
(5.37084e+06 2.17249e+06 1.88941e+08)
(1.07881e+06 2.37581e+06 1.80446e+08)
(4.12401e+06 4.58308e+06 1.87269e+08)
(1.67166e+07 -4.426e+06 1.71742e+08)
(2.44069e+07 -6.42429e+06 1.65819e+08)
(4.96107e+06 -1.37221e+06 1.76226e+08)
(1.52065e+07 -1.41518e+07 1.68242e+08)
(1.94994e+07 -5.99774e+06 1.79593e+08)
(1.44871e+07 1.36932e+06 1.83523e+08)
(1.3725e+07 -1.56616e+07 1.73787e+08)
(4.89348e+06 -7.74161e+06 1.78916e+08)
(1.52787e+07 5.62516e+06 1.56e+08)
(8.04138e+06 7.02046e+06 1.78498e+08)
(1.71475e+07 -15398.7 1.65055e+08)
(2.37598e+07 3.88796e+06 1.73861e+08)
(1.91647e+07 3.42974e+06 1.65903e+08)
(1.19161e+07 1.00314e+07 1.75276e+08)
(2.04222e+07 5.95929e+06 1.65513e+08)
(1.31227e+07 7.80976e+06 1.85028e+08)
(1.51403e+07 8.39009e+06 1.65788e+08)
(2.08172e+07 6.43691e+06 1.67771e+08)
(1.16547e+07 7.97967e+06 1.72486e+08)
(9.2077e+06 3.52238e+06 1.87263e+08)
(1.64516e+07 9.34711e+06 1.64308e+08)
(1.85287e+07 1.43484e+07 1.60028e+08)
(1.18079e+07 7.25585e+06 1.67402e+08)
(1.30842e+07 9.17032e+06 1.77405e+08)
(5.53736e+06 1.42002e+06 1.82512e+08)
(1.66607e+07 -4.03903e+06 1.73033e+08)
(2.0058e+07 -2.96236e+06 1.66286e+08)
(3.49976e+06 -2.04279e+06 1.78277e+08)
(5.93834e+06 4.46557e+06 1.85679e+08)
(8.80474e+06 3.36636e+06 1.75484e+08)
(9.35543e+06 1.39374e+06 1.88206e+08)
(1.36438e+07 4.22558e+06 1.73182e+08)
(8.06321e+06 1.66435e+06 1.97852e+08)
(2.92225e+06 2.21008e+06 1.76702e+08)
(1.74361e+07 -1.77854e+06 1.76258e+08)
(1.09841e+07 3.15732e+06 1.6819e+08)
(7.98222e+06 5.5301e+06 1.80329e+08)
(8.85758e+06 2.50839e+06 1.95719e+08)
(1.37735e+07 3.03853e+06 1.7201e+08)
(1.60752e+07 4.17221e+06 1.72049e+08)
(1.18078e+08 1.44707e+08 5.85866e+07)
(8.60905e+07 7.14759e+07 8.93825e+07)
(1.16409e+08 7.85921e+07 9.34748e+07)
(1.36571e+08 1.4015e+08 8.36131e+07)
(1.09046e+08 1.00344e+08 5.92043e+07)
(1.15586e+08 8.58475e+07 7.05303e+07)
(1.22672e+08 1.09312e+08 7.32406e+07)
(1.24602e+08 9.20327e+07 9.19917e+07)
(4.97509e+07 2.48132e+07 1.29884e+08)
(2.10006e+07 -1.18322e+07 1.61516e+08)
(4.58998e+07 -7.42124e+06 1.4328e+08)
(3.66037e+07 1.28055e+07 1.48713e+08)
(3.28417e+07 1.19728e+07 1.34273e+08)
(3.35559e+07 -4.39553e+06 1.38584e+08)
(4.75981e+07 1.68048e+07 1.39947e+08)
(3.63479e+07 -5.12182e+06 1.44087e+08)
(8.97719e+07 5.50721e+06 1.08735e+08)
(7.52721e+07 4.49931e+06 1.4706e+08)
(7.10905e+07 -2.75812e+07 1.43138e+08)
(7.80009e+07 -6.67622e+06 1.49433e+08)
(8.0478e+07 4.17824e+06 1.24443e+08)
(7.32988e+07 4.63041e+06 1.3457e+08)
(7.76758e+07 -9.9442e+06 1.34721e+08)
(7.32694e+07 -6.90973e+06 1.35748e+08)
(1.10321e+08 9.53266e+07 1.2755e+08)
(6.6192e+07 5.81537e+07 1.43064e+08)
(8.16828e+07 2.51285e+07 1.41528e+08)
(7.5268e+07 6.03805e+07 1.42176e+08)
(8.59782e+07 7.64615e+07 1.25963e+08)
(8.68707e+07 6.37799e+07 1.34104e+08)
(7.63465e+07 4.26669e+07 1.4653e+08)
(7.93579e+07 3.65166e+07 1.35961e+08)
(6.30699e+07 4.51777e+07 1.0624e+08)
(9.8836e+07 4.93495e+07 9.3959e+07)
(1.00134e+08 9.63514e+07 9.33281e+07)
(6.07758e+07 4.83929e+07 1.2118e+08)
(8.8527e+07 5.23579e+07 1.12271e+08)
(1.08126e+08 6.1916e+07 9.60961e+07)
(8.07351e+07 7.06087e+07 1.20652e+08)
(9.59345e+07 6.60386e+07 1.02219e+08)
(6.90141e+07 2.69958e+07 1.10356e+08)
(6.19695e+07 3.22039e+07 1.26639e+08)
(7.09206e+07 1.02192e+07 1.39819e+08)
(1.02364e+08 4.16609e+07 1.15061e+08)
(8.07134e+07 3.34464e+07 1.20787e+08)
(6.8956e+07 2.61123e+07 1.29674e+08)
(9.18361e+07 3.23596e+07 1.20846e+08)
(7.02502e+07 1.43257e+07 1.28619e+08)
(9.25752e+07 3.01273e+07 1.06414e+08)
(1.05626e+08 7.43389e+07 1.17416e+08)
(8.23413e+07 3.64662e+07 1.52473e+08)
(8.00515e+07 6.9776e+06 1.30272e+08)
(1.07125e+08 3.70355e+07 1.17251e+08)
(1.04605e+08 6.05605e+07 1.21441e+08)
(9.21691e+07 3.40864e+07 1.26479e+08)
(1.03135e+08 5.18488e+07 1.40237e+08)
(9.40966e+07 2.26269e+07 1.19269e+08)
(7.32527e+07 5.34265e+06 1.38419e+08)
(7.55692e+07 3.04937e+07 1.38565e+08)
(7.65759e+07 1.09602e+07 1.45058e+08)
(9.06996e+07 2.31913e+07 1.32977e+08)
(9.12309e+07 3.06535e+07 1.46031e+08)
(8.4969e+07 1.50091e+07 1.51024e+08)
(8.27734e+07 3.61911e+07 1.42503e+08)
(-2.4512e+07 3.25701e+07 1.08232e+08)
(-2.38429e+07 4.19062e+07 1.26242e+08)
(-4.34082e+06 3.36126e+07 1.4197e+08)
(-3.83432e+07 5.07216e+07 1.1166e+08)
(-2.78229e+07 3.58678e+07 1.15377e+08)
(-1.5026e+07 3.2477e+07 1.22925e+08)
(-2.76524e+07 4.11309e+07 1.15551e+08)
(-1.87652e+07 3.9704e+07 1.29119e+08)
(-9.75475e+06 7.28982e+07 1.56757e+08)
(1.81299e+07 1.08345e+08 1.9197e+08)
(2.03589e+07 8.98891e+07 1.868e+08)
(2.9928e+06 1.21543e+08 1.77294e+08)
(-5.84296e+06 7.82828e+07 1.6202e+08)
(2.14987e+07 6.85857e+07 1.79495e+08)
(-9.0616e+06 1.00813e+08 1.72864e+08)
(2.56593e+07 8.27418e+07 1.82807e+08)
(1.18568e+07 2.26639e+07 1.72179e+08)
(2.99764e+07 6.16705e+07 1.94018e+08)
(1.37755e+07 7.07009e+06 2.16451e+08)
(1.8784e+07 4.6823e+07 1.80789e+08)
(2.1293e+07 2.36384e+07 1.72867e+08)
(3.38198e+07 1.76508e+07 2.02435e+08)
(1.98957e+07 3.6131e+07 1.813e+08)
(3.9299e+07 1.70191e+07 2.10325e+08)
(-4.7576e+07 6.57736e+07 1.15968e+08)
(-1.64983e+07 1.12621e+08 1.47808e+08)
(-1.26598e+07 7.91806e+07 1.70412e+08)
(-6.69206e+07 1.21284e+08 1.21959e+08)
(-5.01393e+07 8.20146e+07 1.32602e+08)
(-1.0753e+07 8.44496e+07 1.59393e+08)
(-4.13944e+07 7.82992e+07 1.30138e+08)
(-5.80378e+06 8.87552e+07 1.67255e+08)
(-2.74786e+07 5.12855e+07 1.41544e+08)
(-1.2716e+06 3.59421e+07 1.44009e+08)
(-3.52954e+07 5.53591e+07 1.16589e+08)
(-2.67847e+07 7.71901e+07 1.5214e+08)
(-2.60106e+07 5.81171e+07 1.42723e+08)
(-2.47445e+07 4.65058e+07 1.3254e+08)
(-2.09301e+07 6.7215e+07 1.31219e+08)
(-1.81378e+07 5.67812e+07 1.31573e+08)
(-6.28872e+06 5.21286e+07 1.57841e+08)
(7.58581e+06 7.78663e+07 1.7479e+08)
(3.04135e+07 5.26994e+07 1.98068e+08)
(5.07252e+06 3.26666e+07 1.63028e+08)
(-5.56059e+06 5.74262e+07 1.6149e+08)
(-1.07329e+07 7.14672e+07 1.694e+08)
(4.64507e+06 4.99539e+07 1.63255e+08)
(1.17342e+07 5.5452e+07 1.75448e+08)
(-3.68328e+06 4.27603e+07 1.45527e+08)
(-3.38587e+07 5.30532e+07 1.23081e+08)
(-2.59302e+07 9.73521e+07 1.5026e+08)
(-6.33772e+06 7.01268e+07 1.61408e+08)
(-6.27129e+06 4.5872e+07 1.4413e+08)
(-2.15282e+07 5.9954e+07 1.38491e+08)
(-3.58822e+06 5.3406e+07 1.64305e+08)
(-2.73611e+07 7.49124e+07 1.49583e+08)
(8.59628e+06 3.22203e+07 1.62461e+08)
(2.7766e+07 5.27501e+07 1.94334e+08)
(1.43858e+07 8.48769e+07 1.78271e+08)
(3.54587e+07 5.58191e+07 2.04671e+08)
(6.70071e+06 4.50553e+07 1.70557e+08)
(2.10924e+07 4.99026e+07 1.87747e+08)
(8.53547e+06 7.27265e+07 1.73377e+08)
(1.93111e+07 9.01886e+07 1.76304e+08)
(1.30644e+08 1.69923e+08 3.99447e+07)
(1.23392e+08 1.35316e+08 2.9698e+07)
(1.05802e+08 7.49354e+07 8.03193e+07)
(8.09016e+07 6.93443e+07 8.63781e+07)
(1.26995e+08 1.52315e+08 4.67877e+07)
(1.21499e+08 1.4349e+08 4.91843e+07)
(1.11273e+08 9.14321e+07 7.19195e+07)
(1.03773e+08 9.55772e+07 6.06527e+07)
(9.59892e+07 1.00684e+08 2.97544e+07)
(6.61785e+07 7.74918e+07 2.35172e+07)
(7.71968e+07 5.13777e+07 6.77467e+07)
(5.24764e+07 4.80114e+07 7.691e+07)
(8.86976e+07 8.9855e+07 3.87018e+07)
(8.03007e+07 8.43085e+07 4.02976e+07)
(7.4921e+07 5.02394e+07 7.60082e+07)
(6.63898e+07 5.32489e+07 6.73372e+07)
(8.20216e+07 7.15372e+06 9.96384e+07)
(8.00969e+07 1.61009e+07 9.50449e+07)
(7.92679e+07 -2.05024e+07 1.30876e+08)
(6.69046e+07 3.72133e+06 1.25512e+08)
(8.05216e+07 2.2906e+07 1.11309e+08)
(9.02684e+07 1.67147e+06 1.07078e+08)
(7.18263e+07 7.62088e+06 1.20825e+08)
(7.03191e+07 1.66376e+06 1.19867e+08)
(5.02655e+07 1.36858e+07 1.18436e+08)
(3.16896e+07 1.99361e+07 1.14768e+08)
(4.71391e+07 2.36829e+06 1.3538e+08)
(2.13571e+07 -9.30234e+06 1.42584e+08)
(3.88594e+07 2.0061e+07 1.26188e+08)
(4.17082e+07 2.34092e+07 1.22115e+08)
(3.16306e+07 -3.62524e+06 1.37186e+08)
(3.0007e+07 5.49177e+06 1.39571e+08)
(1.11393e+08 1.18623e+08 4.24155e+07)
(1.04455e+08 6.94703e+07 8.10184e+07)
(7.85049e+07 6.3986e+07 8.91461e+07)
(5.77124e+07 5.47677e+07 8.72655e+07)
(9.85849e+07 6.97381e+07 8.03715e+07)
(1.09118e+08 7.70688e+07 8.29225e+07)
(7.09008e+07 5.62998e+07 8.16651e+07)
(7.49669e+07 6.98989e+07 1.00096e+08)
(1.03435e+08 1.09883e+08 4.52408e+07)
(5.63072e+07 5.31128e+07 9.30157e+07)
(8.95085e+07 4.79354e+07 7.69528e+07)
(1.05696e+08 5.84024e+07 8.40834e+07)
(8.49752e+07 7.15624e+07 6.42831e+07)
(8.73994e+07 6.02217e+07 8.47287e+07)
(9.58529e+07 5.71557e+07 7.27902e+07)
(8.71321e+07 5.48958e+07 7.69372e+07)
(9.67388e+07 3.7471e+07 1.02058e+08)
(6.76745e+07 3.01026e+07 1.04506e+08)
(4.91684e+07 2.4342e+07 1.15741e+08)
(6.76487e+07 -654195 1.39263e+08)
(7.66689e+07 2.73579e+07 1.17369e+08)
(6.09121e+07 3.48255e+07 9.85674e+07)
(7.25411e+07 2.17559e+07 1.19975e+08)
(6.1697e+07 2.43598e+07 1.19381e+08)
(8.60435e+07 3.82087e+07 8.99687e+07)
(6.38815e+07 6.04431e+06 1.35364e+08)
(4.48657e+07 3.26059e+07 9.39424e+07)
(7.1949e+07 3.13516e+07 8.52023e+07)