/*--------------------------------*- C++ -*----------------------------------*\
| =========                 |                                                 |
| \\      /  F ield         | OpenFOAM: The Open Source CFD Toolbox           |
|  \\    /   O peration     | Version:  2506                                  |
|   \\  /    A nd           | Website:  www.openfoam.com                      |
|    \\/     M anipulation  |                                                 |
\*---------------------------------------------------------------------------*/
FoamFile
{
    version     2.0;
    format      ascii;
    arch        "LSB;label=32;scalar=64";
    class       surfaceScalarField;
    location    "400";
    object      phi;
}
// * * * * * * * * * * * * * * * * * * * * * * * * * * * * * * * * * * * * * //

dimensions      [0 3 -1 0 0 0 0];

oriented        oriented;

internalField   nonuniform List<scalar> 
79904
(
-4.02592e-07
1.93919e-06
6.94156e-07
-2.2309e-06
-2.78385e-07
2.01347e-06
4.9576e-07
7.49514e-07
-4.24798e-07
1.90602e-06
1.89083e-06
-3.86494e-07
7.26647e-07
1.56203e-06
-2.60717e-06
6.42614e-07
-2.55861e-06
1.88975e-06
1.51444e-06
-2.94576e-07
-2.93674e-07
-2.45739e-06
2.39375e-06
3.57277e-07
-2.64152e-06
2.5443e-06
5.14227e-07
-4.1726e-07
5.8531e-07
-2.31969e-06
2.06553e-06
-3.31423e-07
2.39713e-06
-2.49881e-06
3.30985e-07
-2.29389e-07
2.12858e-06
-2.91019e-06
4.87977e-07
-2.93327e-06
2.42029e-06
2.04084e-06
-2.5539e-06
-3.07213e-07
-4.28624e-07
8.09229e-07
1.85038e-06
-2.23654e-06
6.8569e-07
1.9135e-06
-3.62676e-07
8.14721e-07
1.86281e-06
-4.46642e-07
1.85228e-06
8.01776e-07
-4.23106e-07
1.48823e-06
-2.65921e-06
7.42416e-07
-2.65281e-06
1.90446e-06
1.42388e-06
-4.14191e-07
-3.81932e-07
1.88558e-06
7.27203e-07
-2.32645e-06
2.12518e-06
4.39548e-07
-2.38028e-07
7.68026e-07
1.88851e-06
-4.25722e-07
1.91422e-06
7.07138e-07
-3.90365e-07
1.64164e-06
-2.65123e-06
6.2787e-07
-2.6791e-06
1.99425e-06
1.49376e-06
-4.17305e-07
-2.62567e-06
1.89296e-06
4.54623e-07
6.89562e-07
1.51465e-06
-2.62864e-06
1.65414e-06
-2.64885e-06
6.08261e-07
2.62416e-07
1.97357e-06
-2.67599e-06
4.40336e-07
-2.32603e-06
-2.07813e-06
1.77859e-06
-1.93111e-06
-2.34409e-06
5.28442e-07
-2.62113e-06
-2.72794e-06
2.16353e-06
2.21516e-06
-2.74035e-06
-1.69771e-06
-2.65153e-06
2.02956e-06
2.26625e-06
-2.59825e-06
1.84674e-06
-2.58501e-07
-6.90738e-07
-5.97209e-07
-3.49385e-07
1.92496e-06
-2.64422e-06
-1.85563e-06
1.45762e-06
1.46747e-06
-2.3314e-06
1.78058e-06
2.66043e-06
1.45857e-06
7.95853e-07
-4.20933e-07
-3.57837e-07
6.94988e-07
1.5444e-06
-3.31407e-07
2.65082e-06
-3.90611e-07
-6.17573e-07
-3.4217e-07
-1.63311e-06
-3.3263e-07
-1.91305e-06
2.32401e-06
2.28215e-06
-1.95337e-06
-2.88807e-07
9.28594e-07
2.97414e-06
-1.35862e-06
-1.04925e-06
6.70624e-07
2.44397e-06
-2.92699e-06
1.15889e-06
3.40746e-06
-1.63935e-06
2.91758e-06
8.4646e-07
-1.37022e-06
3.62713e-06
-2.78466e-07
-2.63244e-07
2.84116e-06
4.24128e-06
-1.60205e-06
1.05107e-06
5.87982e-07
-7.96456e-07
2.12176e-06
-6.64493e-07
1.96238e-06
5.6479e-07
-1.94093e-06
-9.14985e-07
2.24581e-06
6.09859e-07
1.95458e-06
-6.40584e-07
5.3632e-07
2.62002e-06
-1.2785e-07
-1.07595e-07
2.06304e-06
2.56328e-06
-7.36765e-07
5.14731e-07
1.00244e-06
-2.78688e-06
3.39143e-06
-1.60735e-06
-1.38939e-06
-2.19032e-06
2.82466e-06
7.54877e-07
-2.61531e-06
3.36766e-06
9.43705e-07
-1.69639e-06
2.86264e-06
-2.29183e-06
7.01879e-07
-1.27291e-06
4.10185e-06
-5.3365e-07
-2.56595e-06
-5.06182e-07
3.21861e-06
4.01134e-06
-1.68254e-06
8.89772e-07
6.03011e-07
2.37285e-06
-9.62211e-07
-7.45305e-07
2.00782e-06
6.43587e-07
-2.05303e-06
2.43615e-06
6.14776e-07
-9.97944e-07
2.10542e-06
5.81555e-07
-7.47787e-07
2.7062e-06
-2.13483e-07
-1.82557e-07
2.14346e-06
2.91575e-06
-1.02394e-06
6.8026e-07
-2.17921e-07
2.91776e-06
-2.5732e-06
4.13205e-06
-4.00202e-07
3.28601e-06
-2.75865e-07
-5.45579e-07
2.56076e-06
-1.68445e-07
-1.12159e-06
-2.31368e-06
3.21739e-06
-2.64368e-06
-9.34259e-07
-2.91918e-07
-2.20365e-07
2.34153e-06
2.10007e-06
-1.79923e-07
-3.145e-06
-2.57969e-07
2.4878e-06
1.33854e-06
-3.69475e-07
3.16291e-06
6.38892e-07
2.35808e-06
2.00216e-06
8.3079e-07
2.86578e-06
-3.1205e-07
-2.92084e-06
4.21593e-06
-1.69581e-06
3.36913e-06
-1.27196e-06
-7.75576e-07
2.61486e-06
3.55368e-07
3.41928e-06
-1.33872e-06
-2.40163e-06
7.93832e-07
-1.31297e-06
6.75598e-07
-2.04349e-06
3.19261e-06
1.05955e-06
3.26663e-07
8.00813e-07
1.81775e-06
6.17183e-07
-3.0473e-06
5.98906e-07
-2.71816e-06
1.21172e-06
8.01096e-07
-2.14765e-06
4.71147e-07
-1.23494e-06
1.25951e-06
2.70738e-06
-1.23182e-06
9.68244e-07
-2.88166e-06
-1.42209e-06
1.23278e-06
1.49381e-06
-1.21346e-06
-1.46891e-07
1.75303e-06
1.51804e-06
1.04225e-06
-1.85e-08
-1.38215e-06
-1.12441e-06
2.44478e-06
8.01287e-07
2.34175e-06
-1.01241e-06
6.33027e-07
-2.05676e-06
2.43493e-06
-1.12233e-06
7.44024e-07
9.16366e-07
2.48939e-06
-1.16008e-06
-3.27666e-07
1.26625e-06
1.29242e-06
7.21494e-07
-3.39777e-07
2.52233e-06
-1.10417e-06
-1.48687e-06
-2.79538e-06
1.22891e-06
2.71052e-06
-2.2616e-06
-1.30835e-06
8.59233e-07
-2.60115e-06
-1.48976e-06
1.03682e-06
1.45386e-06
-2.98228e-06
-1.58465e-06
-3.44638e-07
1.49603e-06
-2.63856e-06
1.41241e-06
9.53322e-07
-3.14952e-07
-1.50372e-06
-1.524e-06
1.79648e-06
2.84458e-06
1.4046e-06
-1.42465e-06
-3.37082e-06
1.81289e-06
-1.67849e-06
2.09305e-06
-1.83338e-06
1.51155e-07
1.54327e-06
1.46113e-06
1.53444e-06
2.85053e-07
-1.62475e-06
1.3646e-06
-2.55046e-07
-2.85206e-06
-1.75987e-07
1.60586e-06
2.2113e-07
1.72821e-06
1.20545e-06
-7.86715e-08
1.36092e-06
2.84633e-06
-1.25968e-06
-2.22164e-07
-1.38792e-06
2.81153e-06
1.64468e-06
1.32662e-06
8.6286e-07
1.08404e-06
1.32651e-06
2.99017e-07
1.30551e-06
8.30202e-07
-2.7227e-06
1.43305e-06
1.11349e-06
-1.2968e-06
2.40112e-06
2.30955e-06
-1.30267e-06
9.81022e-07
1.30584e-06
-1.57251e-06
-1.0016e-07
1.95828e-07
2.79732e-06
-3.18858e-08
-1.53732e-06
-2.25448e-10
-3.27019e-06
-1.42158e-06
-1.42975e-06
-2.90201e-06
-5.70878e-08
-1.46254e-06
-1.40456e-06
-1.57818e-06
2.57499e-06
-1.28037e-06
3.23347e-07
-1.27949e-06
-1.28424e-06
-2.81694e-06
-2.74591e-06
-1.18781e-06
-1.3587e-06
2.20004e-06
4.21498e-07
-3.54911e-07
4.23934e-07
2.19752e-06
-3.54781e-07
-3.27925e-07
2.14787e-06
4.46735e-07
-2.32844e-06
2.72519e-06
3.51983e-07
-7.48807e-07
-6.99435e-08
2.85269e-06
-5.8277e-07
2.6207e-06
3.1428e-08
4.928e-07
2.32418e-06
2.16176e-06
4.32728e-07
-3.27832e-07
4.7268e-07
2.10369e-06
-3.09767e-07
-3.421e-07
4.7188e-07
2.13675e-06
-2.31267e-06
4.22626e-07
2.47445e-06
-5.84466e-07
-1.23447e-07
2.72782e-06
-4.42727e-07
2.61594e-06
-3.2454e-08
4.47566e-07
2.24129e-06
2.11516e-06
-3.00957e-07
4.52351e-07
4.66179e-07
-3.14813e-07
2.11517e-06
-2.86778e-07
2.09532e-06
4.5803e-07
-2.32422e-06
-4.86925e-07
2.444e-06
3.67157e-07
-1.60744e-07
2.65433e-06
-3.78569e-07
2.57213e-06
-1.07492e-07
4.37558e-07
2.17783e-06
3.31348e-06
-2.47975e-06
2.48224e-07
-1.08199e-06
3.46631e-07
-2.48043e-06
3.09075e-06
-9.56998e-07
-9.26529e-07
-2.52444e-06
3.10844e-06
3.42461e-07
-2.84017e-06
4.07327e-06
2.22615e-07
-1.45573e-06
6.99767e-07
3.95747e-06
-1.34379e-06
3.54311e-06
-2.49673e-06
7.15821e-07
4.01446e-07
3.33238e-06
2.75095e-06
-6.16756e-08
-4.91866e-07
-4.56844e-07
-1.36777e-07
2.74144e-06
3.17287e-07
3.33954e-06
-9.31664e-07
-2.61813e-06
2.13181e-07
3.20995e-06
-8.05028e-07
4.70273e-07
2.29233e-06
-1.16439e-08
2.33761e-06
3.43031e-07
-6.68878e-07
2.99794e-06
2.63781e-06
-2.31587e-06
2.95169e-06
1.42711e-07
2.59583e-06
-4.66625e-07
2.59652e-06
2.29192e-06
3.34199e-07
4.23579e-07
2.13427e-06
2.70052e-06
2.32184e-06
-4.44575e-08
4.64051e-07
3.98598e-07
4.61207e-07
4.10025e-07
3.19511e-07
-3.13695e-06
2.10295e-07
4.0227e-07
-5.85681e-07
2.57215e-06
3.35405e-07
2.81086e-06
-7.24158e-07
1.59362e-07
2.25108e-06
-2.88244e-06
2.60582e-06
5.95379e-07
2.67582e-06
6.82442e-08
2.21268e-06
2.31963e-06
-4.4714e-07
-4.03437e-07
2.32163e-06
2.51355e-06
1.88778e-06
-1.05491e-06
-9.55664e-07
1.22664e-07
-9.44422e-08
1.82577e-06
-8.01704e-07
-9.29572e-07
-9.08808e-07
2.03838e-06
-1.2189e-06
8.9186e-08
-9.60233e-07
1.87174e-06
-1.31237e-06
4.00747e-07
1.02407e-06
2.23718e-06
-1.37353e-06
1.96876e-06
-1.03922e-06
1.00435e-06
2.72538e-07
2.06428e-06
2.71666e-06
5.80776e-07
-1.83238e-06
-1.46498e-06
3.20817e-07
-3.47058e-06
-4.99447e-06
8.14419e-06
-1.78498e-06
3.79112e-08
-2.87131e-06
4.61836e-06
-1.37155e-06
7.06414e-07
-1.22716e-06
1.8922e-06
1.17643e-06
3.23128e-06
-1.69112e-06
4.57072e-06
-3.07354e-06
1.68127e-06
1.78376e-07
4.46701e-06
2.33308e-06
-7.88137e-07
-1.77098e-06
2.25974e-07
7.78227e-07
-1.83083e-06
-2.72266e-06
3.77516e-06
-1.44618e-06
-2.21123e-06
2.41334e-07
3.41612e-06
-1.82757e-06
-1.13242e-06
3.78414e-07
2.58157e-06
5.23976e-07
2.45007e-06
-6.41121e-07
3.99342e-06
-2.69122e-06
6.98252e-07
-7.57803e-08
3.24551e-06
2.20289e-06
-1.27535e-06
-1.5484e-06
6.20758e-07
5.15875e-07
-1.04309e-06
-2.34327e-06
2.87032e-06
-1.42375e-06
-1.34389e-06
3.50509e-08
2.73256e-06
-1.0483e-06
-2.02195e-06
1.03636e-06
2.03389e-06
9.51485e-07
2.91421e-06
-1.66287e-06
2.72423e-06
-1.25691e-06
1.08471e-06
7.81175e-07
2.38519e-06
2.16059e-06
1.53394e-06
-1.86873e-06
-7.03856e-07
6.08339e-07
2.13377e-06
8.86994e-07
2.5117e-06
-1.52705e-06
-2.04147e-06
1.38235e-06
3.64677e-06
-2.98777e-06
-2.69376e-07
9.45097e-07
1.48471e-06
1.09101e-06
3.7711e-07
-1.47357e-06
2.35509e-06
2.50984e-06
-3.95178e-07
-8.92691e-07
2.9814e-06
-1.41593e-06
3.27869e-06
-1.82473e-06
-3.14588e-07
2.30437e-06
-1.38166e-06
2.31505e-06
1.67945e-06
1.60069e-06
1.90232e-06
-5.3766e-07
2.08704e-06
1.54426e-06
7.4397e-07
-1.54547e-07
7.6362e-07
4.7266e-07
7.59041e-07
1.84454e-06
-2.75311e-06
1.07178e-06
3.37385e-07
-1.00449e-06
2.37202e-06
1.76603e-07
2.1142e-06
-1.61633e-06
1.23516e-06
2.26017e-06
-2.64574e-06
2.58509e-06
2.20905e-06
2.61682e-06
-1.92304e-06
3.37087e-06
1.249e-06
3.69948e-07
-1.61645e-07
5.33915e-07
2.5813e-06
-8.46156e-07
-4.37279e-08
1.36793e-07
-8.06816e-07
-8.42788e-07
-9.11186e-07
7.51367e-08
1.51874e-06
-8.13149e-07
-3.79407e-09
7.60069e-07
-7.16987e-07
-7.28652e-07
7.35913e-07
6.57014e-08
-8.35652e-07
-7.7299e-07
2.22836e-07
2.80852e-07
-7.2858e-07
-4.83259e-07
2.23363e-07
-8.62594e-07
9.95905e-07
2.71637e-07
-7.31426e-07
2.6183e-07
-5.20443e-07
-5.61804e-07
2.54066e-07
2.21421e-07
-7.9106e-07
-1.00505e-06
-7.1444e-07
1.34399e-07
2.07157e-07
-5.0314e-07
-1.01255e-06
-5.54177e-07
1.63742e-07
-1.09946e-06
1.3722e-06
-5.5708e-07
1.09051e-07
-9.24357e-07
4.00436e-07
-8.1185e-07
-5.93971e-07
-8.96381e-07
4.17294e-07
1.42984e-07
-1.03334e-06
-7.63641e-07
1.2812e-06
9.73921e-08
2.76224e-07
1.04752e-06
-6.80263e-07
-5.61606e-07
1.23725e-06
1.27619e-07
-8.03256e-07
1.04378e-06
2.80933e-07
-7.42876e-07
3.94881e-07
-4.77784e-07
-5.44831e-07
1.21566e-06
3.40719e-07
2.25314e-07
-7.65708e-07
-6.12079e-07
4.03853e-07
-7.02215e-07
6.17249e-07
-8.26765e-07
5.85664e-07
-5.98037e-07
8.23071e-07
3.51784e-07
-5.57831e-07
1.1367e-07
-1.16153e-06
4.3551e-07
-1.4243e-06
1.32579e-07
-7.06481e-07
-6.53704e-07
1.16796e-06
-5.45018e-07
-3.46317e-07
-7.10017e-07
-1.32107e-07
-8.29372e-07
-8.13183e-07
5.9507e-07
5.76078e-07
-8.95855e-07
-6.66578e-07
-1.49788e-06
6.26325e-07
4.46149e-08
5.56836e-07
1.26298e-07
1.64959e-07
3.24585e-07
7.32481e-07
4.07073e-07
9.74579e-08
-6.51622e-07
-8.74009e-07
2.75595e-08
-8.01343e-07
-5.79275e-07
4.37649e-07
-9.17613e-07
7.14115e-07
-8.647e-07
5.65621e-07
-7.86229e-07
-3.30774e-07
-8.82439e-07
-1.34427e-06
-1.67532e-07
-1.92613e-07
-1.16499e-06
-7.92029e-07
5.04972e-07
-5.58646e-07
-2.83892e-07
2.7691e-07
-9.90875e-07
-8.75088e-07
4.08446e-07
7.27586e-07
5.41336e-07
-5.42346e-07
1.33359e-06
-5.62606e-08
-7.72441e-07
2.57385e-08
1.31393e-06
4.64479e-07
9.70107e-08
8.41177e-08
-1.45421e-06
3.75293e-07
-1.9898e-06
-8.19583e-08
-1.88893e-06
1.60315e-07
1.20698e-07
1.38797e-06
-1.18505e-07
-1.38113e-06
1.11504e-07
1.65049e-06
2.07294e-07
-1.76098e-06
3.43234e-07
1.60863e-06
-1.34334e-08
6.27235e-08
2.18001e-07
-1.23104e-06
-1.48841e-07
-1.6312e-06
1.40655e-07
-1.23219e-06
3.87238e-07
1.25283e-06
-1.16773e-06
2.45906e-07
1.66637e-06
-9.76469e-08
-1.35081e-06
-8.46031e-08
1.6431e-06
3.25986e-07
5.0023e-07
7.80701e-07
-5.53516e-07
-4.48836e-07
1.0326e-06
-9.21332e-07
3.37211e-07
-9.36776e-07
1.07524e-06
3.01209e-07
8.06476e-07
-5.67807e-07
4.68607e-07
1.32956e-06
-8.52928e-08
-7.44085e-07
-6.74767e-08
9.48175e-07
1.34906e-06
3.44793e-07
7.79839e-08
1.45548e-06
-1.25649e-06
-1.05989e-06
1.47057e-06
-2.28376e-09
1.32328e-06
-5.83905e-08
-7.23661e-07
-3.64792e-07
1.48462e-06
6.41956e-08
-1.18414e-06
-2.85613e-07
-1.04029e-06
1.40366e-06
-8.81101e-07
-4.94629e-07
-9.10505e-07
-5.24515e-08
2.00858e-07
1.33669e-06
2.93271e-08
-1.67829e-06
1.42792e-07
1.05583e-07
9.30188e-08
1.98552e-07
1.40592e-06
1.52175e-06
1.98466e-07
4.1904e-08
-1.01281e-06
1.46529e-06
1.33057e-06
-3.4558e-07
1.44234e-06
4.60698e-08
1.46951e-06
-8.87871e-07
4.03512e-07
3.9022e-07
-9.92814e-07
1.44237e-06
3.27165e-07
7.69166e-08
2.24867e-07
1.26013e-06
2.11557e-07
-1.62922e-06
1.40617e-07
-1.21227e-06
1.88509e-07
3.06919e-07
-1.39892e-06
1.6826e-07
4.58382e-07
2.80847e-06
8.06427e-07
2.35892e-06
4.30125e-08
6.88784e-07
8.08548e-07
-3.70057e-08
2.33689e-06
-3.5959e-06
8.82192e-08
2.68553e-06
8.22098e-07
-3.19373e-06
2.8827e-06
7.6938e-07
2.49756e-06
-3.294e-06
2.58079e-06
1.20314e-08
-2.82654e-07
2.05879e-06
6.98296e-07
1.84965e-06
7.72617e-07
-5.18714e-07
8.40339e-07
1.82215e-06
-5.25914e-07
-2.3403e-06
2.04267e-06
7.08444e-07
-4.10979e-07
-2.6863e-06
1.60719e-06
7.96431e-07
1.40459e-06
-2.69104e-06
1.95787e-06
-4.46241e-07
-3.64153e-07
8.84064e-07
1.92414e-06
1.77885e-06
8.73889e-07
-5.37632e-07
9.00615e-07
1.75616e-06
-5.61335e-07
-2.30035e-06
9.0921e-07
1.87581e-06
-4.84835e-07
-2.67065e-06
1.42014e-06
8.86384e-07
1.28607e-06
-2.69207e-06
1.81185e-06
-5.05462e-07
-2.21441e-07
-3.25694e-06
2.63613e-06
8.42235e-07
2.2542e-06
-2.65155e-06
7.65136e-07
-3.67951e-07
9.27254e-07
-2.59645e-06
2.12967e-06
-4.60442e-07
-2.99794e-06
2.58056e-06
8.36709e-07
-4.19614e-07
-3.18821e-06
2.21192e-06
7.54718e-07
1.87986e-06
-2.81387e-06
-3.22632e-06
2.44027e-06
-4.19262e-07
2.14078e-06
-2.83921e-06
7.4147e-07
8.11427e-07
-2.87698e-06
2.0284e-06
-3.20798e-06
2.51412e-06
7.82032e-07
2.13541e-07
-2.8807e-06
1.9314e-06
7.35626e-07
2.25195e-06
2.81291e-06
-2.92418e-06
3.07539e-06
2.27277e-06
7.5364e-07
2.1401e-06
1.89538e-06
-2.55571e-06
1.71759e-06
2.68598e-06
1.34885e-06
-2.00459e-06
1.73347e-06
-2.23592e-07
-8.05294e-07
-8.2143e-07
-2.96321e-07
1.56823e-06
2.79773e-06
-2.92793e-06
2.15856e-06
-3.26367e-06
2.52085e-06
2.2059e-06
-2.92611e-06
-1.74117e-06
-2.88983e-06
2.03434e-06
8.77945e-07
-2.63236e-07
2.18286e-06
-2.45682e-07
8.53655e-07
-2.85812e-06
-3.10396e-07
-1.55017e-06
-4.30483e-07
-8.57576e-07
-3.51088e-07
2.7009e-06
-4.7825e-07
2.47846e-06
-1.90251e-06
-1.92987e-06
2.36657e-06
-4.20886e-07
-1.41833e-06
4.34683e-06
2.49745e-06
-5.40121e-06
1.1117e-06
-4.48035e-06
-1.79225e-06
5.16749e-06
-3.91226e-06
-5.00226e-06
2.46336e-06
6.45944e-06
1.03701e-05
-9.2475e-06
3.60481e-06
-4.71856e-06
7.95096e-07
-2.09172e-06
-1.02029e-07
-2.58027e-06
4.49559e-06
-7.5519e-09
8.28759e-06
-6.49331e-06
-2.98767e-06
1.48537e-06
-1.58087e-06
3.08326e-06
1.22358e-06
-1.77058e-06
-1.28938e-06
1.83774e-06
-9.2405e-07
1.20273e-06
-2.54123e-06
2.26482e-06
2.6416e-06
1.20859e-06
-2.87475e-06
-9.75659e-07
-3.67574e-07
-1.52799e-06
-1.093e-06
-1.02216e-06
1.87861e-06
-5.02541e-07
1.61705e-06
-2.44809e-06
-5.7858e-06
-2.46088e-06
1.92331e-06
6.32342e-06
1.34875e-06
-1.22892e-06
-2.84885e-06
2.73081e-06
-1.81488e-06
1.58798e-06
-3.36589e-06
3.59289e-06
6.93911e-06
-2.76761e-06
2.1143e-06
-6.28685e-06
4.39982e-07
-3.99701e-06
-2.22918e-06
-2.26788e-06
4.05749e-06
7.75635e-07
2.16587e-06
-3.30643e-06
-8.47902e-06
9.54963e-06
2.89827e-06
-3.96451e-06
2.7216e-06
3.13555e-06
-4.02858e-06
-1.82241e-06
-2.8482e-06
6.08441e-06
2.20808e-06
-5.44278e-06
1.01509e-05
3.38954e-06
-7.41548e-06
-6.12384e-06
5.01995e-07
-4.43483e-06
-4.54586e-06
-2.70682e-06
5.93419e-06
4.91245e-07
5.22526e-06
-5.06053e-06
-1.64115e-06
-2.06651e-07
-2.62753e-06
-2.34003e-06
-3.89835e-07
-2.27108e-06
4.20407e-07
-4.84978e-06
-4.81609e-06
3.40422e-06
2.93448e-08
-1.13551e-06
-2.29215e-06
2.09714e-06
-2.75138e-06
-9.79794e-07
-6.7311e-06
2.68419e-06
-2.03056e-06
-3.62447e-06
-1.60021e-06
2.88269e-06
3.61456e-06
-2.37161e-06
-3.20079e-08
-7.39483e-07
1.97572e-06
-1.66927e-06
-3.34942e-06
4.63175e-06
-3.5872e-06
1.0129e-06
1.64446e-06
-4.44854e-06
3.79179e-06
-2.83584e-06
-4.90031e-06
1.98003e-07
2.43403e-06
-3.78486e-11
4.70064e-06
2.55644e-06
-5.55902e-07
2.93923e-06
8.085e-07
2.33845e-06
-2.31435e-06
-4.99637e-06
2.41295e-06
-5.93713e-06
-2.5535e-06
4.96889e-07
-5.60942e-06
3.98896e-06
-5.94635e-06
1.51456e-06
-4.44217e-06
-1.38011e-08
-1.95422e-06
-6.26733e-06
-1.56887e-06
-1.78151e-06
-4.41897e-06
-4.68607e-06
2.28563e-08
-1.07714e-06
5.57945e-07
4.97643e-07
1.47504e-06
-1.24726e-07
1.37269e-06
-2.72307e-06
-1.22203e-06
2.31157e-06
5.10803e-07
-1.59982e-06
1.92758e-06
3.78337e-06
-2.59584e-06
-3.1148e-06
-2.48375e-06
9.57554e-07
1.54995e-06
6.77353e-07
-1.68592e-06
5.47776e-06
-2.59251e-06
4.93321e-06
3.99003e-06
-2.67064e-06
-2.79644e-06
1.47718e-06
-3.23477e-06
4.01102e-06
-2.41518e-06
1.63876e-06
-1.78162e-06
-2.05681e-06
3.12202e-06
7.1619e-07
1.16903e-06
-2.16266e-06
2.47304e-06
-1.47938e-06
5.83889e-06
5.58035e-07
-2.40717e-06
1.22032e-06
1.38369e-06
3.93327e-06
-2.20647e-06
3.37189e-06
6.20137e-06
-6.41072e-06
-4.31951e-06
4.5298e-06
-3.54456e-06
-3.6558e-06
4.95225e-06
2.24857e-06
-5.779e-06
-4.7194e-06
5.82764e-06
4.67096e-06
3.3439e-06
-2.74403e-06
-3.05487e-06
2.45494e-06
9.84245e-06
1.04777e-06
-4.68802e-06
2.38849e-06
3.90957e-06
9.4287e-06
-5.03684e-06
6.0383e-06
1.84668e-06
1.66027e-06
-1.6259e-06
-1.88107e-06
-1.32576e-06
1.3881e-06
1.32572e-06
-1.38799e-06
-1.59749e-06
1.62001e-06
-1.30808e-06
1.28562e-06
1.26297e-06
-1.15927e-06
1.4036e-06
-1.50731e-06
3.22127e-06
2.08437e-07
-1.58304e-06
3.68598e-07
1.5269e-06
2.71908e-06
-1.24762e-06
1.49023e-06
-1.06469e-07
5.20178e-06
-5.21951e-06
-4.50995e-06
4.39221e-06
2.43076e-06
5.59317e-06
1.05193e-06
-2.86175e-06
-3.12822e-06
4.20583e-06
8.49566e-07
-1.92698e-06
-2.18882e-06
-9.92415e-07
3.07504e-06
-1.76556e-06
-2.27621e-06
-1.84434e-06
1.55126e-06
1.6421e-06
8.89074e-07
1.3404e-06
7.02814e-07
-3.99983e-06
1.19202e-06
7.5212e-07
1.65411e-06
1.90611e-06
8.32738e-07
3.3511e-06
1.36687e-06
2.48543e-06
3.08539e-06
-6.39034e-08
1.57115e-06
-3.25522e-06
9.95662e-06
-4.26999e-06
5.53498e-06
-2.82315e-06
-2.17175e-06
4.40934e-06
-5.43046e-07
4.8578e-06
-2.69504e-06
-3.33236e-06
3.11997e-06
-3.04333e-06
3.75369e-06
-3.10884e-06
5.68537e-06
5.45239e-06
-1.06932e-06
3.183e-06
2.38579e-06
2.72633e-06
-6.67043e-06
4.20704e-06
-2.35871e-06
3.12308e-06
2.25733e-06
-1.9762e-06
2.66697e-06
1.0233e-05
9.52765e-06
-2.87281e-05
8.96827e-06
-7.94363e-06
-9.22609e-06
5.59117e-06
1.1579e-05
2.23102e-05
-7.27186e-06
-7.59018e-06
-7.44887e-06
-1.53586e-05
9.97218e-06
2.87274e-06
2.50989e-06
-5.60847e-06
1.11859e-05
4.65418e-06
-2.10208e-05
7.46924e-06
-8.08429e-06
3.91119e-06
-6.79529e-06
-2.24302e-06
-1.19793e-06
-4.37471e-07
3.87311e-06
1.73852e-06
-4.79999e-07
-2.04704e-06
7.86853e-07
-2.96618e-07
2.56641e-06
-7.51942e-07
-1.51912e-06
-1.8696e-08
-3.89623e-07
-1.26502e-06
1.6714e-06
-2.74213e-06
2.18302e-06
-1.68447e-06
1.40961e-06
-2.41397e-06
-2.32865e-06
4.49296e-06
-1.21645e-06
-8.0753e-06
9.93466e-06
-5.08846e-06
3.22947e-06
5.1211e-06
1.5497e-06
1.66198e-07
-6.83803e-06
1.69156e-06
7.62126e-07
-4.25991e-06
1.80489e-06
1.83649e-06
6.09959e-06
-3.57986e-06
-4.35704e-06
-5.21161e-06
-8.76492e-06
5.90197e-06
-4.46802e-06
4.37597e-06
-2.79563e-06
-4.1327e-06
-5.57221e-06
6.70686e-06
-9.69682e-06
3.56666e-06
-5.80685e-07
-3.07076e-06
-1.02545e-06
-2.42671e-06
6.52224e-06
2.62439e-06
1.12489e-07
-1.23938e-06
-1.49943e-06
-5.0545e-06
6.85179e-07
2.19991e-06
2.1686e-06
-1.06297e-06
6.26191e-06
1.5051e-06
-4.10159e-06
-3.35005e-08
-8.32894e-07
2.03958e-06
-2.3103e-06
-8.33671e-06
-5.22852e-06
4.33804e-06
8.45338e-06
-2.85366e-06
-1.2873e-05
-1.4258e-06
8.47244e-06
2.92356e-06
7.01821e-07
-1.70706e-06
-3.21668e-06
4.22134e-06
-2.49959e-06
-2.76904e-06
-3.06865e-06
-8.41652e-07
-7.46726e-06
5.39998e-06
-9.73542e-06
-5.6018e-06
-8.26755e-07
-8.98579e-07
-1.19875e-06
2.92531e-06
-2.36161e-06
1.99943e-06
-7.46878e-07
-1.20589e-05
9.95008e-06
-3.67787e-06
-4.99326e-06
-8.35513e-08
-7.02575e-06
1.28475e-06
-4.18403e-06
2.98442e-06
-9.81889e-06
-6.03853e-06
-3.25596e-06
2.03082e-06
-2.89435e-06
-1.3482e-06
6.94337e-06
-4.05569e-06
-2.77637e-06
1.03437e-05
-4.64117e-06
-2.7189e-06
-2.64792e-06
5.57577e-06
-3.27408e-06
-1.19431e-05
7.55505e-06
-5.51183e-06
-1.61593e-06
-9.31888e-07
4.17392e-06
-4.98625e-06
-4.09405e-06
-1.94726e-06
1.86686e-07
-1.95753e-06
-3.38715e-06
-9.04471e-07
2.11286e-06
-2.52406e-06
1.31557e-06
-2.32307e-06
-1.05433e-06
2.18641e-06
1.19099e-06
1.98086e-06
-7.86363e-07
-2.16494e-06
9.70434e-07
1.27157e-06
-7.58455e-07
1.7206e-06
-2.23383e-06
3.27239e-07
-3.2048e-06
1.97309e-06
-3.18515e-06
1.18934e-06
3.06633e-07
-2.24006e-06
-8.97562e-07
-1.32105e-06
-2.01012e-06
2.1471e-06
1.1837e-06
-1.3567e-06
1.40323e-06
-1.81716e-06
1.77027e-06
1.64644e-06
-1.9068e-06
-7.95009e-07
1.05519e-06
1.02432e-06
-1.88844e-06
1.70999e-06
-8.46348e-07
-2.12287e-07
-2.92626e-06
1.81719e-06
-2.81245e-06
1.24332e-06
-5.15922e-08
-1.85055e-06
-1.2177e-06
-7.74281e-07
1.94143e-06
-1.9601e-06
7.93395e-07
-1.93335e-06
1.93126e-06
-7.45415e-07
7.4774e-07
2.00318e-06
-1.82903e-06
-8.14623e-07
6.40743e-07
6.93736e-07
1.94736e-06
-1.8404e-06
-8.00537e-07
-4.6334e-08
-2.6698e-06
1.94196e-06
-2.66416e-06
6.84608e-07
-1.12315e-07
-1.86343e-06
-7.73373e-07
-6.65936e-07
1.09123e-06
1.63045e-06
-2.05561e-06
-2.01439e-06
9.77925e-07
1.70167e-06
-6.64591e-07
1.89137e-06
7.59524e-07
-1.85891e-06
-7.9197e-07
8.08432e-07
1.77942e-06
-1.81867e-06
-7.69269e-07
2.69172e-07
-2.68691e-06
1.75231e-06
-2.68428e-06
9.39161e-07
4.62813e-08
-1.92425e-06
-7.46634e-07
-3.11177e-06
6.28865e-08
1.99467e-06
1.93191e-06
1.08096e-07
-2.82612e-06
3.53523e-07
-2.85149e-06
1.7395e-06
8.43444e-07
1.72765e-07
-2.7783e-06
1.7618e-06
-2.14653e-06
-1.13465e-06
1.69464e-07
-1.11214e-06
-2.08307e-06
1.79181e-06
-2.84165e-06
-3.08673e-06
1.1395e-06
9.97196e-07
-2.71292e-06
-5.04777e-08
-2.74316e-06
8.86819e-07
2.01957e-06
-2.82803e-06
9.16627e-07
-9.54317e-07
-1.96289e-06
-1.80762e-06
-8.85629e-07
9.42371e-07
-2.7437e-06
-9.38772e-07
9.82076e-08
-1.98525e-06
2.73274e-07
-2.03333e-06
-2.0316e-06
2.31305e-07
2.67713e-06
-2.89083e-08
-1.8886e-06
1.80879e-06
-7.06906e-07
-2.04051e-06
-7.59539e-07
1.85197e-06
1.18433e-07
-7.88445e-07
2.66809e-06
-7.49624e-07
-1.80535e-06
-6.76098e-07
-9.30617e-08
-7.18493e-07
-8.03721e-07
1.95738e-06
1.98281e-06
-8.79376e-07
-7.01748e-07
4.16886e-07
-2.17037e-06
-3.91657e-07
-6.58508e-07
-2.35253e-06
-3.89588e-07
-6.04318e-07
2.55197e-06
-5.16918e-07
-3.25161e-07
2.92753e-06
-6.94004e-07
-5.92925e-07
2.47718e-06
-6.1957e-07
-4.68466e-07
-1.02856e-06
7.51267e-08
2.46929e-07
-1.34588e-06
-1.89582e-06
1.89726e-07
-1.4877e-06
2.75571e-06
1.51822e-07
-1.18726e-06
1.93822e-06
-9.94092e-07
-1.05218e-06
1.62013e-06
1.41044e-07
-1.32808e-06
-1.12498e-06
-2.19362e-06
8.02453e-08
8.56383e-08
-1.71843e-06
-1.59276e-06
-1.60175e-06
-1.67975e-06
1.00561e-07
2.70923e-06
-1.46147e-06
-1.34413e-06
9.58343e-08
1.76704e-06
-1.18554e-06
-1.70724e-06
-1.35184e-06
1.4041e-06
1.18965e-07
-1.54974e-06
-9.31066e-07
2.39908e-06
2.34065e-07
2.01906e-07
2.4551e-06
-1.02682e-06
-1.56116e-06
2.44103e-06
-1.01105e-06
1.30532e-07
2.32194e-06
-7.09769e-07
1.67104e-07
1.43597e-06
-6.15206e-07
-8.25619e-07
2.46322e-06
1.40607e-06
3.00282e-07
-9.80822e-07
-8.87053e-07
2.22301e-06
-2.02507e-06
2.30517e-06
-6.70286e-07
1.89917e-06
-6.54471e-07
9.63282e-07
1.63936e-06
-8.63613e-07
-1.06177e-07
-2.68717e-06
1.90598e-06
-2.59977e-06
6.7755e-08
-6.3299e-07
-8.48435e-07
2.76716e-06
-9.76307e-07
-1.82113e-06
-1.24057e-06
-2.29211e-08
-8.25176e-07
-1.05753e-06
2.11473e-06
1.85044e-06
-1.12218e-06
-1.09312e-06
-2.69411e-06
1.84193e-06
1.8107e-07
1.4793e-06
2.6515e-07
2.31455e-07
1.35949e-06
8.30727e-07
1.33655e-06
2.73375e-07
-1.86372e-06
-1.02046e-06
1.89555e-07
-1.01763e-06
-1.67704e-06
1.48671e-06
-1.17695e-06
1.12798e-06
-1.25319e-06
1.57537e-06
-1.19235e-06
-1.52523e-06
-1.43453e-06
-2.7489e-06
-1.35619e-07
-1.34315e-07
-2.75401e-06
-1.31295e-06
1.20634e-06
-1.31171e-06
-9.49597e-07
9.29063e-07
1.10325e-06
-1.33434e-06
-6.97927e-07
-1.17346e-06
1.27716e-06
-9.053e-07
-1.00438e-06
1.12269e-06
-1.4307e-06
3.01578e-07
2.50035e-06
-1.59557e-06
2.12975e-06
-8.99038e-07
1.22467e-07
1.07877e-06
1.44282e-06
1.94773e-06
-2.11663e-06
-1.27384e-06
4.43001e-06
1.16883e-06
-6.66064e-07
-4.93271e-06
-4.2807e-06
5.22124e-06
4.13304e-06
-5.07339e-06
-3.48484e-06
3.87129e-06
2.67163e-06
-3.05815e-06
-1.43591e-06
6.45331e-06
-3.57464e-06
7.92154e-06
-4.92736e-06
-2.25181e-06
5.22023e-06
1.38906e-06
2.02362e-06
-1.94037e-06
-1.91553e-06
3.53329e-06
-4.35094e-06
5.41301e-06
-4.59524e-06
-4.31296e-06
5.5927e-06
-4.7503e-06
-1.24574e-06
-2.26026e-06
2.2789e-06
6.77112e-07
3.49008e-06
-2.14358e-06
9.04288e-06
-4.83245e-06
5.5324e-07
5.28316e-06
1.31111e-06
-1.2581e-06
-1.60141e-06
2.23414e-06
-1.93221e-06
1.50724e-06
-1.80927e-06
-2.60353e-06
-1.73817e-06
1.99837e-06
-1.12598e-06
1.17637e-06
-2.07234e-06
-1.40145e-07
2.99252e-06
-1.54132e-06
4.15847e-06
-2.06453e-06
2.03652e-07
1.75857e-06
3.84884e-06
1.56215e-08
-2.7611e-06
-2.38721e-06
4.49886e-07
3.21458e-06
-5.42496e-08
2.68343e-06
-1.50654e-06
-1.26219e-06
-1.09909e-06
4.07696e-06
-1.71579e-06
2.55052e-06
1.35787e-06
-5.95049e-08
1.24208e-06
2.06092e-06
-1.96527e-06
3.24871e-06
3.43842e-06
-1.47502e-06
-3.2461e-06
6.01827e-06
4.40868e-07
1.00267e-05
-5.24633e-06
-1.53161e-06
3.50517e-06
-1.52355e-06
1.22825e-06
2.1507e-06
3.20231e-06
2.10581e-06
-1.48675e-06
5.74896e-06
1.00335e-06
3.42534e-07
-1.01734e-07
3.1483e-06
-1.00362e-06
-4.40104e-06
-3.24976e-07
-1.66755e-06
1.19728e-06
1.47941e-06
-2.56318e-06
-6.40685e-07
1.90732e-06
-5.35305e-06
2.76782e-06
2.67797e-06
2.3367e-06
7.60403e-07
4.9154e-06
2.53226e-06
-2.76856e-06
-3.46146e-06
3.7408e-06
2.95734e-06
1.01334e-06
-1.18491e-06
-1.25325e-06
1.42485e-06
1.83236e-06
1.34071e-06
-1.71244e-06
-1.46049e-06
-1.31482e-06
9.77018e-07
-1.40921e-06
1.74697e-06
-1.63756e-06
1.19615e-06
-1.28116e-06
1.72254e-06
-3.9935e-07
2.61177e-06
-1.19907e-06
2.78727e-06
-1.35422e-06
-6.5761e-07
1.63185e-06
8.14838e-07
2.29546e-06
3.91469e-06
-2.73807e-06
-3.47198e-06
5.09194e-06
-3.3626e-06
-4.28124e-06
2.55194e-06
-4.84766e-06
5.66442e-06
-3.98379e-06
3.16702e-06
-3.01264e-06
4.6672e-06
-4.83214e-06
3.17762e-06
-6.78242e-07
8.18204e-06
-5.20832e-06
7.9229e-06
-3.50919e-06
-3.39947e-07
5.50938e-06
2.73529e-06
1.22141e-06
-1.76516e-06
-2.23956e-06
2.78331e-06
4.27758e-06
-3.64785e-06
-2.29339e-06
1.66365e-06
-2.27593e-06
-2.35308e-06
3.44721e-06
1.1818e-06
-3.25437e-06
-3.64988e-06
4.69841e-06
2.20585e-06
-2.04452e-06
5.97208e-06
-2.70616e-06
5.3905e-06
-3.15744e-06
-1.45936e-06
4.17709e-06
1.65521e-06
2.08353e-06
-2.77453e-06
-1.41353e-06
2.10454e-06
4.76364e-06
-3.25701e-06
-5.0796e-06
3.573e-06
-5.33483e-06
-3.71344e-06
5.655e-06
3.39326e-06
-2.98311e-06
-4.20476e-06
3.21093e-06
3.97696e-06
3.34894e-07
4.9707e-06
-3.22203e-06
8.60028e-06
-3.50172e-06
4.28022e-07
1.55961e-06
3.69347e-06
4.57294e-06
-9.11112e-07
-2.32103e-06
-7.89698e-07
-1.11448e-06
2.88119e-06
-1.0207e-06
4.4592e-06
-2.24242e-06
-2.81612e-06
-1.94272e-07
9.49718e-06
-6.48675e-06
1.8228e-06
3.46154e-06
-7.11429e-07
1.84791e-06
5.26928e-06
-4.6239e-06
6.09649e-06
5.24626e-06
-2.24262e-06
-3.56772e-06
8.04068e-06
1.40971e-06
7.79998e-06
-3.54534e-06
-3.42623e-06
4.67403e-06
-2.36232e-06
2.14606e-06
2.38877e-06
4.08772e-06
1.83123e-06
-2.86873e-06
7.32863e-06
2.31562e-06
-1.68242e-06
2.24801e-06
-1.42528e-06
3.10996e-06
6.10019e-06
1.40009e-07
-7.91016e-06
-1.19005e-06
5.38674e-06
-2.3022e-06
1.83017e-06
2.78766e-06
2.36902e-06
-4.96749e-06
-1.11252e-06
1.22644e-06
-7.76237e-06
2.92242e-06
5.03002e-06
3.15066e-06
1.28597e-06
2.86614e-06
3.96896e-06
-5.44874e-06
-4.90595e-06
3.16585e-06
3.28992e-06
-2.82995e-06
4.69845e-06
-3.06522e-06
1.1965e-06
5.07049e-06
-2.46971e-06
-4.05795e-06
1.45716e-06
-3.55999e-06
-2.59623e-06
3.5392e-06
2.61683e-06
1.89884e-06
-2.25911e-06
2.73204e-06
-2.3717e-06
-1.24915e-06
1.92427e-06
-3.50507e-06
1.94461e-06
1.87676e-06
-6.03369e-07
4.4264e-06
-2.21878e-06
-4.5366e-06
5.753e-06
-4.4866e-06
3.27016e-06
6.42048e-06
-5.29413e-06
-5.50077e-06
4.37455e-06
-5.59909e-06
6.21766e-06
-3.05179e-06
2.43331e-06
2.83923e-06
1.19545e-06
-1.25616e-06
-2.77826e-06
-3.28619e-06
2.19347e-06
-3.44359e-06
3.17858e-07
2.81664e-06
-2.88857e-07
5.32179e-06
-5.57e-06
-2.31398e-06
-4.06888e-06
3.64842e-06
2.73404e-06
6.78853e-06
-7.29225e-06
-2.72554e-06
3.22927e-06
-3.14722e-06
-1.64968e-06
1.66815e-06
3.12849e-06
1.52318e-06
-1.63563e-06
-2.56544e-06
2.67813e-06
-9.91573e-07
1.36717e-06
-2.68926e-06
3.48174e-06
2.31515e-06
-1.34496e-06
4.23523e-06
-1.01042e-06
-1.57413e-06
1.54353e-06
1.26527e-06
-1.23457e-06
4.89388e-07
2.00325e-06
-1.52063e-06
-9.71759e-07
-7.48885e-07
2.32819e-06
-2.29649e-06
7.17296e-07
1.86665e-06
-1.27843e-06
5.02955e-07
-1.09096e-06
2.40081e-07
-7.66388e-07
-1.04712e-06
-1.24732e-06
1.97714e-06
2.04827e-08
1.08007e-06
-1.97571e-06
1.84247e-06
-1.00842e-06
-3.30367e-06
-3.16475e-06
-6.80325e-08
6.36172e-07
-3.22721e-07
4.15239e-07
-2.35116e-06
1.7559e-06
1.123e-06
-4.16187e-07
-2.46258e-06
3.16971e-06
-2.11268e-06
7.85403e-07
-2.21377e-06
3.16934e-06
-3.52596e-06
6.33065e-07
1.76776e-06
2.97682e-06
2.18073e-06
1.37869e-07
3.90892e-07
3.58885e-06
2.23792e-06
-5.06275e-06
1.78529e-06
3.20933e-06
-2.34148e-06
4.89472e-06
5.16111e-06
-3.64798e-06
3.48e-06
1.90407e-06
-2.02212e-06
5.14837e-07
2.14317e-06
-4.13784e-07
2.37282e-06
8.26586e-07
7.6062e-07
1.03659e-06
2.58714e-07
1.03334e-06
-1.92973e-06
-1.80554e-06
1.7136e-06
-1.71041e-06
-1.09332e-06
3.24429e-07
-1.76871e-06
2.38616e-07
-1.61555e-06
1.85872e-06
-9.60026e-07
-1.41309e-06
-2.29033e-06
-1.98059e-06
-2.47737e-06
-1.4175e-06