/*--------------------------------*- C++ -*----------------------------------*\
| =========                 |                                                 |
| \\      /  F ield         | OpenFOAM: The Open Source CFD Toolbox           |
|  \\    /   O peration     | Version:  2506                                  |
|   \\  /    A nd           | Website:  www.openfoam.com                      |
|    \\/     M anipulation  |                                                 |
\*---------------------------------------------------------------------------*/
FoamFile
{
    version     2.0;
    format      ascii;
    arch        "LSB;label=32;scalar=64";
    class       volVectorField;
    location    "1500";
    object      U;
}
// * * * * * * * * * * * * * * * * * * * * * * * * * * * * * * * * * * * * * //

dimensions      [0 1 -1 0 0 0 0];

internalField   nonuniform List<vector> 
43136
(
(-209.628 322.367 203.115)
(-205.199 430.868 186.7)
(-136.904 251.42 141.075)
(-206.92 286.063 106.533)
(-180.9 319.989 158.679)
(-179.074 349.389 164.726)
(-194.119 269.249 139.259)
(-144.371 268.737 112.411)
(-63.0866 395.096 92.9264)
(-1.49792 430.222 135.983)
(19.8505 182.005 -38.7596)
(-67.0658 330.495 23.9854)
(-102.402 363.857 57.7735)
(49.1589 306.755 13.6492)
(-86.609 301.113 25.8345)
(76.6525 259.226 -29.7951)
(-24.7373 97.4236 -26.2163)
(25.4234 83.6884 -80.0279)
(-4.97813 37.1456 -51.2514)
(-40.0006 89.7445 -15.3303)
(-17.833 98.7314 -13.8725)
(26.782 60.0925 -45.1139)
(-26.374 83.1977 -23.0511)
(-13.8174 69.2485 -28.961)
(-172.265 253.995 58.4425)
(-146.542 243.05 37.4733)
(-57.3743 147.262 -1.43201)
(-99.7751 214.503 25.8777)
(-116.053 225.829 31.8106)
(-45.8977 153.235 15.8534)
(-98.4499 219.736 21.9925)
(-28.3701 151.75 15.3907)
(-199.799 415.041 161.451)
(-98.1756 241.823 103.665)
(-143.895 286.318 78.6553)
(-129.245 283.557 61.2346)
(-183.686 333.875 110.388)
(-143.853 297.258 94.9015)
(-189.022 347.64 102.705)
(-106.818 257.009 72.868)
(-64.7929 310.492 70.3189)
(-15.219 204.882 -6.03213)
(64.1641 152.741 -58.6656)
(-37.3219 168.027 22.7536)
(-31.2285 239.374 18.3718)
(-6.93488 230.191 -6.92045)
(-29.0583 207.737 -0.070737)
(-1.18317 198.668 -13.8415)
(-63.3417 108.424 18.465)
(-126.503 249.742 48.3048)
(-114.539 226.921 22.1549)
(-35.5836 139.472 -14.3029)
(-88.9166 157.936 26.0907)
(-68.202 186.517 25.689)
(-31.844 141.631 9.56372)
(-68.9058 187.385 25.6911)
(20.8004 101.725 -31.1548)
(-18.3305 126.845 -3.81063)
(-47.4345 185.849 -18.4174)
(11.8019 137.998 -51.2589)
(4.31093 127.399 0.747481)
(8.65879 116.644 -7.50014)
(-20.0721 166.009 -42.9227)
(-30.2716 177.734 -25.2921)
(-699.974 330.515 -7.22675)
(-463.883 189.266 44.8721)
(-452.636 142.759 4.44049)
(-355.462 185.885 17.1578)
(-578.341 211.085 56.0219)
(-455.802 185.315 43.6823)
(-490.482 188.361 33.4957)
(-406.803 139.391 27.2598)
(-311.816 150.699 112.952)
(-227.077 192.098 219.993)
(-266.765 215.369 173.373)
(-236.478 188.538 169.432)
(-279.986 167.682 176.707)
(-255.469 212.398 191.828)
(-259.107 192.366 166.269)
(-231.445 181.876 182.211)
(-449.743 150.395 51.4928)
(-339.295 212.388 122.217)
(-334.399 145.384 89.1471)
(-338.297 168.682 130.939)
(-372.615 177.772 103.339)
(-316.472 213.194 84.3586)
(-423.94 192.584 138.877)
(-295.229 137.259 101.633)
(-236.797 118.416 55.2348)
(-210.579 135.578 120.262)
(-212.305 95.2685 81.2221)
(-218.834 100.496 98.1297)
(-189.036 111.619 94.5244)
(-209.086 109.581 110.552)
(-202.061 80.7382 83.5613)
(-190.51 63.9068 95.7477)
(-395.939 188.193 78.8729)
(-424.493 168.845 64.4321)
(-311.484 147.128 49.0846)
(-289.653 168.251 119.751)
(-379.561 194.221 79.1322)
(-406.735 185.146 45.424)
(-331.525 171.246 80.3805)
(-324.226 148.41 74.3685)
(-357.71 166.927 77.4031)
(-260.724 169.825 129.48)
(-305.011 203.545 155.637)
(-478.667 210.443 48.6892)
(-396.072 190.864 87.8181)
(-320.547 182.773 116.609)
(-421.574 194.29 73.7598)
(-319.284 187.083 122.608)
(-441.776 156.617 58.9127)
(-277.1 136.885 35.9157)
(-238.489 167.318 94.9596)
(-300.182 128.317 70.5648)
(-306.405 144.766 56.3795)
(-273.4 127.018 61.3179)
(-275.072 117.165 63.3052)
(-263.221 139.101 53.6022)
(-399.693 133.889 67.7524)
(-329.079 155.555 144.867)
(-271.253 172.734 142.648)
(-285.234 196.643 148.341)
(-356.024 180.661 69.9038)
(-308.299 150.11 121.827)
(-330.714 189.898 103.257)
(-292.093 186.992 124.186)
(-15.1624 3.2048 -40.0118)
(-4.67238 12.1508 -48.6414)
(-5.86122 -3.58627 -60.8447)
(-37.0825 71.4836 -27.4757)
(-18.8436 37.823 -27.9619)
(-12.9833 15.9694 -41.7655)
(-15.9424 23.8995 -35.4984)
(-12.4363 25.8354 -49.0181)
(-10.8443 56.4712 -33.4768)
(9.23455 8.71099 -47.7211)
(0.604043 15.6091 -63.849)
(-25.2469 85.636 -5.79667)
(38.3396 81.1437 19.9708)
(40.3345 84.9311 8.11678)
(5.24212 75.0035 -32.0592)
(17.7165 79.5221 -18.0901)
(-28.1051 -17.4824 -96.5633)
(-21.6149 30.9532 -71.272)
(-81.1515 -48.5041 145.973)
(13.3057 61.5703 -94.5884)
(-34.9519 -40.4784 -26.6078)
(-64.0077 -29.8838 71.7066)
(4.75477 37.511 -141.603)
(-88.4135 -23.863 44.8666)
(14.669 137.089 5.86862)
(-20.0544 146.216 -5.10667)
(28.8173 97.3572 -8.0961)
(-7.09762 145.96 12.7558)
(-16.7561 154.851 -6.7887)
(-19.1715 161.161 -24.3506)
(-9.73316 128.645 -0.325212)
(5.82716 145.001 -4.43896)
(-10.5312 46.6152 -23.5084)
(-7.71499 32.5814 -52.079)
(0.988463 107.586 5.305)
(17.1826 127.469 3.19995)
(1.55327 56.0054 -29.4702)
(0.955816 45.4158 -26.7252)
(14.088 104.972 -20.2842)
(4.80705 114.17 -28.2112)
(-6.72072 22.6174 -48.3049)
(-13.8497 101.787 -16.9829)
(3.57282 8.45537 -96.6163)
(-11.0123 3.33804 -56.0186)
(0.714063 38.2733 -36.5898)
(-21.0449 49.1523 -46.4639)
(-5.85642 21.2095 -57.5296)
(-19.459 16.0156 -60.722)
(13.5163 12.6109 -56.6756)
(-1.48985 104.879 -12.6893)
(25.704 130.141 -14.4421)
(0.6961 87.0836 -37.3994)
(4.89536 34.1275 -52.757)
(-2.56927 106.3 -18.4937)
(6.68246 85.1566 -38.0533)
(10.0516 135.014 -20.8267)
(-21.7308 -21.3255 -73.3089)
(28.6098 64.1823 -61.136)
(10.3222 124.174 -22.4387)
(-5.44173 12.1759 -98.2995)
(-12.7128 -9.49974 -78.5292)
(1.28066 61.7018 -68.7624)
(-28.8629 20.7331 -70.0651)
(-4.24106 76.6172 -48.9099)
(-840.521 95.98 217.64)
(-658.868 89.5565 225.487)
(-689.48 10.701 287.729)
(-777.316 176.583 445.546)
(-772.638 113.651 259.677)
(-757.912 88.4777 240.039)
(-890.605 175.038 414.911)
(-837.959 131.853 317.807)
(-577.036 61.5753 222.087)
(-521.373 21.7784 242.023)
(-537.301 16.4249 252.505)
(-590.621 114.153 367.074)
(-546.195 56.6135 217.69)
(-548.247 20.2446 229.671)
(-642.832 44.9758 269.356)
(-638.766 -4.43523 288.089)
(-509.626 28.3258 234.285)
(-445.258 14.858 203.536)
(-430.785 36.738 215.7)
(-470.257 96.4673 259.466)
(-497.501 21.7569 223.64)
(-498.874 24.0769 223.173)
(-535.845 33.9 241.416)
(-486.562 32.4106 248.674)
(-599.376 291.871 344.702)
(-550.263 295.418 331.947)
(-521.296 238.063 339.108)
(-414.868 299.552 307.483)
(-569.018 309.233 342.79)
(-536.607 255.457 321.659)
(-508.8 291.623 331.747)
(-528.321 282.546 304.189)
(-623.211 90.9913 229.371)
(-660.265 11.0116 288.301)
(-728.938 184.743 444.786)
(-676.224 139.095 396.886)
(-769.231 102.706 305.72)
(-773.368 91.6795 304.172)
(-676.323 127.169 400.237)
(-697.557 146.014 424.962)
(-630.284 58.2084 245.136)
(-579.277 90.2319 392.82)
(-567.606 25.4687 261.332)
(-656.379 21.6454 273.169)
(-739.404 49.3219 286.704)
(-691.268 37.5121 284.34)
(-607.208 12.8388 276.252)
(-568.586 16.5243 271.112)
(-699.906 60.5905 290.963)
(-742.243 302.153 374.673)
(-675.871 218.259 353.963)
(-613.794 180.395 341.479)
(-621.788 121.243 279.365)
(-719.786 235.614 354.394)
(-571.756 136.344 318.449)
(-688.172 225.21 359.941)
(-639.159 58.2992 285.937)
(-601.683 164.706 315.091)
(-613.837 210.082 348.384)
(-543.002 33.8923 246.056)
(-593.377 45.8249 268.178)
(-559.814 117.756 271.125)
(-585.409 43.7713 257.469)
(-508.893 118.203 295.779)
(10.5218 214.195 232.847)
(10.9011 186.132 222.454)
(-9.48461 190.123 267.01)
(1.7485 149.403 193.054)
(12.0891 203.501 222.869)
(15.0826 193.32 233.054)
(-3.00223 193.706 243.7)
(-4.55872 193.998 235.632)
(2.14026 148.231 220.721)
(1.56161 124.91 239.954)
(8.16878 143.136 247.604)
(26.8251 96.6631 229.056)
(1.35711 140.011 212.923)
(-2.35088 129.717 237.218)
(0.548813 145.904 218.003)
(1.85643 150.216 239.352)
(-3.60215 176.609 288.317)
(2.33231 164.755 295.624)
(-27.9987 182.526 328.2)
(-21.1388 99.9258 269.445)
(-3.22839 170.372 278.505)
(7.9851 162.692 281.037)
(-19.2026 155.023 307.95)
(-13.7487 169.696 296.77)
(-14.0547 108.391 190.726)
(33.7077 93.6926 226.449)
(-12.6048 93.4027 238.038)
(10.4658 71.0218 217.085)
(0.231772 88.8308 195.607)
(14.3955 102.451 213.334)
(-16.1096 81.9164 218.577)
(-8.66812 85.4776 221.336)
(8.75038 180.439 214.278)
(-7.75785 180.652 251.96)
(2.07068 149.871 183.482)
(23.6603 121.158 210.696)
(5.40898 175.68 233.623)
(-1.98581 183.436 231.292)
(24.1146 135.033 203.318)
(16.129 144.549 230.664)
(10.6919 155.587 226.122)
(17.9361 107.717 221.843)
(17.0498 146.59 241.756)
(5.0451 179.344 261.096)
(6.06138 165.907 230.272)
(-0.257428 171.624 232.246)
(8.13784 169.887 250.475)
(8.76119 165.415 238.042)
(-17.0873 183.042 268.92)
(-38.34 128.316 208.669)
(10.9814 106.529 234.109)
(-22.5224 101.945 261.842)
(-14.9741 118.722 238.578)
(-13.964 122.434 222.724)
(-9.23844 105.464 241.003)
(-21.8801 118.46 239.183)
(-4.67893 170.706 273.765)
(-17.9921 98.8288 258.381)
(3.98078 107.483 244.69)
(-6.62701 174.543 271.648)
(-19.105 176.689 278.152)
(-1.63246 107.713 233.593)
(-6.93516 155.803 264.486)
(11.5973 107.033 250.747)
(-2.7306 50.0974 -26.3935)
(13.5968 74.1577 -52.6315)
(13.2005 14.6017 -63.9495)
(-21.2818 103.636 5.01446)
(-10.2997 78.4382 -20.6705)
(34.375 13.9523 -79.2449)
(-18.2777 91.2443 -1.19776)
(23.9789 44.4586 -55.7325)
(37.5627 166.57 -41.4978)
(40.6658 353.017 -132.586)
(91.7632 107.999 -152.661)
(-29.2181 242.007 -7.11875)
(76.769 270.069 -46.1798)
(56.7296 249.916 -177.374)
(-1.65132 194.576 -15.217)
(-44.5444 265.402 -163.34)
(-11.6175 40.0221 -124.851)
(19.4593 50.8158 -82.1662)
(-135.004 -56.7774 195.917)
(74.499 94.269 -83.5579)
(70.0784 -73.2852 -115.278)
(77.2418 -55.601 -87.4567)
(91.1371 7.13895 -61.3562)
(175.515 61.176 -274.446)
(-22.776 150.455 6.05144)
(-109.129 193.527 13.9363)
(19.4293 143.89 -38.175)
(-75.9736 148.151 11.6106)
(-25.2385 156.053 6.27195)
(-17.6499 155.598 2.80551)
(-32.6758 147.142 11.5846)
(-24.1191 162.941 -1.60681)
(17.8147 149.307 -37.3746)
(48.0083 66.5166 -47.0208)
(-17.5345 134.687 -3.14136)
(-49.4282 182.397 -5.36573)
(10.0619 128.811 -9.12523)
(77.0238 86.7975 -68.0067)
(-31.9919 166.559 -2.90915)
(31.6807 102.157 -27.1942)
(40.7223 70.9445 -79.884)
(-29.6119 188.415 -0.606317)
(99.4188 152.775 -92.0302)
(129.936 28.3835 -84.9177)
(3.47535 110.749 -56.3014)
(-9.38832 152.904 -90.8381)
(90.9814 -67.9869 -130.713)
(74.5992 46.1339 -92.2765)
(10.3524 65.6642 -72.3181)
(-19.848 136.138 -4.59435)
(-40.0969 171.402 -10.6339)
(17.4312 110.616 -41.0986)
(22.1721 93.1512 -39.9171)
(20.2093 135.009 -30.4338)
(15.1422 113.064 -38.1716)
(30.347 136.542 -40.9542)
(43.4001 39.4695 -79.85)
(20.3489 137.926 -31.2062)
(-36.1576 218.181 -12.1051)
(50.9745 188.063 -17.0825)
(91.3057 -37.1065 -68.2247)
(50.2245 94.345 -49.9362)
(55.7534 172.522 -28.5482)
(61.8818 179.798 -82.9849)
(-306.439 738.173 71.4018)
(-421.164 836.926 166.372)
(-332.972 562.807 137.058)
(-287.381 545.541 69.4747)
(-341.989 732.614 101.986)
(-386.623 761.652 133.282)
(-286.174 550.505 76.3702)
(-323.32 620.767 100.065)
(-274.801 609.298 141.936)
(-54.4218 416.895 50.2159)
(-120.087 440.214 65.7739)
(-228.578 469.206 47.0577)
(-190.514 476.398 109.818)
(-24.2446 435.854 184.085)
(-234.006 463.338 51.6277)
(-120.043 465.655 85.2568)
(-295.38 457.919 163.603)
(-243.017 471.676 151.721)
(-242.133 369.281 179.74)
(-269.433 357.726 105.074)
(-271.261 445.395 154.509)
(-233.387 427.549 179.638)
(-264.858 383.295 140.613)
(-247.952 392.436 173.845)
(-333.037 383.29 45.0637)
(-251.852 325.525 17.0513)
(-289.268 344.093 72.9878)
(-300.925 291.835 1.27792)
(-304.227 376.59 72.1411)
(-291.9 365.927 69.7515)
(-283.08 315.436 33.2411)
(-273.356 343.438 66.6463)
(-397.558 766.127 188.28)
(-317.548 575.171 134.837)
(-325.776 536.722 101.591)
(-332.57 538.902 142.904)
(-385.067 636.377 150.891)
(-316.979 574.078 117.538)
(-369.801 560.755 109.543)
(-339.985 546.787 95.2653)
(-370.776 714.2 192.193)
(-317.635 524.798 131.364)
(-226.054 517.201 205.295)
(-316.13 568.813 150.961)
(-364.507 654.485 168.106)
(-282.114 546.152 158.998)
(-355.93 614.432 181.153)
(-308.791 580.395 172.026)
(-307.229 466.712 111.68)
(-312.264 423.033 59.876)
(-282.638 408.873 70.8464)
(-264.112 352.214 85.881)
(-303.178 442.347 94.6394)
(-311.242 452.35 84.8358)
(-262.028 400.453 109.065)
(-281.594 386.814 76.8074)
(-305.11 500.832 141.928)
(-260.891 359.931 108.106)
(-301.228 452.506 107.224)
(-255.795 507.483 165.248)
(-258.835 449.286 139.874)
(-261.89 392.857 104.867)
(-304.816 509.799 141.658)
(-304.572 439.318 106.373)
(-258.421 242.07 34.7894)
(-139.724 173.188 84.8863)
(-208.49 207.631 81.579)
(-196.135 197.546 63.1855)
(-224.741 222.731 42.3463)
(-179.752 215.263 68.1048)
(-212.679 213.055 54.9996)
(-198.214 219.783 67.7357)
(-85.3335 126.163 154.339)
(-57.5417 92.7375 189.6)
(-75.8504 113.572 155.756)
(-113.524 125.039 157.265)
(-91.1116 121.695 146.537)
(-73.6898 117.198 173.872)
(-96.5392 128.013 146.846)
(-81.655 113.241 176.736)
(-161.265 171.092 93.4374)
(-112.283 139.756 142.393)
(-163.272 165.057 132.516)
(-230.82 193.77 150.837)
(-153.225 168.872 100.845)
(-144.808 171.983 123.051)
(-207.104 182.534 113.904)
(-188.467 189.722 143.876)
(-203.734 178.285 96.4302)
(-177.783 156.004 142.206)
(-236.911 181.874 139.085)
(-239.244 188.451 88.1905)
(-198.846 177.971 86.8434)
(-182.127 166.539 108.017)
(-243.053 186.439 102.763)
(-220.24 161.797 119.594)
(-125.724 170.317 101.985)
(-194.382 199.601 66.5965)
(-172.762 190.143 66.0892)
(-124.781 161.654 115.13)
(-134.453 159.523 97.8496)
(-149.595 182.9 57.7209)
(-138.99 150.675 112.456)
(-165.019 173.008 79.5956)
(-106.096 146.628 116.553)
(-101.751 135.396 142.571)
(-86.5225 145.686 155.223)
(-163.494 188.651 82.7692)
(-122.216 147.604 112.285)
(-89.1361 136.223 139.658)
(-137.092 183.119 106.541)
(-106.305 153.367 121.179)
(-215.087 198.606 81.7123)
(-206.083 187.726 81.0038)
(-157.521 162.597 124.57)
(-245.258 195.824 117.621)
(-212.457 199.848 98.6976)
(-181.3 169.816 96.3057)
(-173.671 175.018 97.4694)
(-159.835 163.03 99.7187)
(-193.754 203.849 95.0217)
(-221.291 189.625 143.006)
(-139.371 141.411 152.877)
(-126.804 163.372 155.422)
(-170.377 189.721 114.333)
(-170.714 165.615 117.963)
(-148.26 167.001 119.188)
(-127.946 131.493 146.7)
(-66.1699 176.659 -14.8738)
(-55.8076 199.934 35.8243)
(-38.089 210.299 -37.5648)
(-211.725 311.193 -54.3158)
(-82.9679 188.384 -0.828742)
(-35.493 198.616 -55.2206)
(-176.462 158.491 -25.6567)
(-65.9923 177.108 -17.8382)
(-42.4194 254.245 5.83668)
(-77.5762 420.86 -29.7642)
(9.77966 235.362 -34.3377)
(-167.442 292.254 -36.0963)
(-60.381 292.282 18.9894)
(-51.182 357.959 -13.2312)
(-124.872 252.543 -7.4347)
(-70.9359 282.059 -7.3621)
(-18.6847 195.3 -46.8052)
(-6.30638 188.289 -50.0297)
(-17.7852 170.668 -41.1808)
(-73.9969 207.06 -60.3395)
(-15.8679 188.363 -39.1533)
(24.1295 200.045 -29.2621)
(-72.0137 176.181 -47.4851)
(-24.0865 187.645 -57.2118)
(-256.92 485.878 -261.211)
(-99.7195 416.874 -33.1431)
(-98.2142 385.746 -159.11)
(39.8965 718.256 20.0278)
(-116.399 481.156 -78.5119)
(-153.823 502.314 -73.5094)
(-102.182 487.067 -111.796)
(-79.5498 438.792 -99.0144)
(-52.8113 219.027 -6.03465)
(-40.1211 194.714 -15.0484)
(-177.203 305.372 -77.3527)
(-129.77 305.943 -37.8221)
(-111.697 204.998 -22.2661)
(-126.765 193.838 -12.4413)
(-149.338 295.488 -53.5816)
(-120.534 299.295 4.5949)
(-45.5835 243.187 -8.01806)
(-151.139 308.529 -46.1173)
(21.7015 226.231 -23.7015)
(18.8648 229.209 -23.2155)
(-51.0989 217.637 -13.5471)
(-96.1465 240.639 0.903301)
(-20.7612 205.319 -25.0851)
(-14.2602 227.1 -21.9228)
(-130.135 159.6 -46.5743)
(-230.411 343.235 -65.0712)
(-115.868 314.502 -43.1634)
(-142.266 287.763 -52.9188)
(-127.501 223.435 -69.3369)
(-130.704 317.992 -41.6724)
(-112.261 263.269 -67.1605)
(-181.109 338.657 -30.3676)
(-20.8019 183.378 -25.2869)
(-79.2426 261.969 -75.4541)
(-116.465 309.631 -61.2101)
(-10.2648 212.756 -24.4356)
(-62.8447 186.289 -33.8928)
(-100.549 237.269 -67.7211)
(-74.5827 205.358 -19.2216)
(-89.8107 256.097 -50.4442)
(-403.34 1482.86 38.2124)
(-321.4 1215.55 46.3385)
(-423.216 1198.87 50.701)
(-470.712 1106.26 186.489)
(-392.082 1416.51 68.4604)
(-345.638 1267.98 12.2703)
(-489.592 1449.97 76.9435)
(-446.792 1327.39 85.5197)
(-283.819 1002 19.7727)
(-263.836 879.211 12.1267)
(-325.687 909.3 25.7106)
(-244.457 818.894 122.861)
(-286.995 971.659 34.1571)
(-284.013 866.734 -6.75607)
(-317.68 1042.94 66.6255)
(-302.056 973.765 52.1531)
(-373.247 951.71 44.6121)
(-407.039 909.351 23.4276)
(-381.181 855.418 63.7998)
(-381.944 879.655 136.928)
(-421.911 977.436 56.3392)
(-408.51 898.149 10.3624)
(-390.382 968.578 106.256)
(-397.93 919.637 64.3599)
(-256.652 759.195 147.95)
(-183.476 775.845 194.948)
(-238.623 626.765 122.482)
(25.3855 492.605 80.2659)
(-199.538 684.303 151.131)
(-194.19 792.981 139.763)
(-192.549 559.734 115.075)
(-181.998 599.218 100.865)
(-318.434 1179.75 63.8227)
(-428.739 1179.89 63.4552)
(-391.215 943.758 164.966)
(-316.963 864.043 147.764)
(-419.169 1254.78 96.4401)
(-438.459 1297.12 74.5143)
(-384.366 974.598 157.786)
(-436.826 1006.47 117.19)
(-302.567 1017.84 -1.07998)
(-290.981 872.493 107.051)
(-364.212 900.279 0.508757)
(-408.343 1064.6 -2.89368)
(-366.975 1137.83 73.5558)
(-347.211 1102.6 67.4894)
(-374.564 1049.58 36.1818)
(-359.21 1031.81 54.2066)
(-456.403 1170 97.7764)
(-360.421 932.243 169.299)
(-326.841 861.119 145.432)
(-388.057 931.891 162.833)
(-414.789 994.423 100.496)
(-370.156 928.75 105.295)
(-377.445 899.555 112.58)
(-358.495 904.019 111.201)
(-450.81 1086.03 66.106)
(-364.901 886.42 135.726)
(-276.128 851.866 120.991)
(-389.205 994.004 48.9617)
(-445.07 1073.97 48.9902)
(-378.278 873.818 52.3572)
(-414.156 1059.93 59.6901)
(-316.475 836.139 101.044)
(-234.096 217.823 19.9753)
(-279.189 262.522 19.7419)
(-164.8 193.082 76.719)
(-232.009 225.114 55.9192)
(-259.447 266.941 27.5674)
(-232.021 244.484 53.7195)
(-214.317 215.158 54.5325)
(-205.371 212.279 76.5004)
(-273.229 271.952 24.0324)
(-215.956 260.486 13.4418)
(-183.737 208.432 72.4394)
(-236.101 256.02 40.0359)
(-236.776 257.707 16.7342)
(-199.948 248.03 46.2823)
(-227.051 247.445 36.5361)
(-198.057 225.23 57.5316)
(-95.3273 136.377 126.937)
(-118.024 146.55 112.754)
(-55.0238 108.542 184.117)
(-135.335 138.815 143.92)
(-124.811 150.593 119.618)
(-77.3884 139.676 143.121)
(-112.703 139.927 144.182)
(-76.0719 121.297 152.789)
(-220.088 193.302 67.5713)
(-251.9 235.365 65.9484)
(-184.428 171.034 121.529)
(-253.881 196.696 71.0702)
(-233.523 209.573 65.155)
(-214.484 214.892 86.2514)
(-228.227 194.719 78.0275)
(-187.088 195.244 91.3421)
(-278.358 287.569 34.439)
(-154.816 189.431 63.3611)
(-212.519 221.674 46.9148)
(-234.485 241.546 52.5201)
(-200.384 217.467 42.8244)
(-180.247 200.081 70.4949)
(-215.135 230.37 38.245)
(-198.476 205.885 59.0571)
(-255.893 269.294 43.2185)
(-202.517 236.048 59.8531)
(-138.316 188.546 90.8811)
(-132.039 172.289 86.4768)
(-202.18 220.309 58.4557)
(-181.981 215.971 61.2929)
(-174.02 183.366 70.7598)
(-164.143 198.714 69.4801)
(-125.57 156.094 98.0992)
(-184.887 186.696 74.5398)
(-239.037 230.569 66.9298)
(-137.007 174.733 133.528)
(-157.043 175.054 94.5248)
(-178.309 182.384 62.9922)
(-176.145 194.568 78.3332)
(-199.864 206.901 76.2446)
(-117.165 146.336 103.359)
(-134.955 161.979 132.127)
(-191.735 217.311 67.8537)
(-122.941 170.986 100.456)
(-139.875 165.492 96.6096)
(-173.967 174.491 98.3993)
(-152.498 173.977 76.0181)
(-186.266 194.984 85.9293)
(-1160.38 97.0271 38.0929)
(-683.603 189.311 96.7981)
(-1231.51 167.057 20.057)
(-770.974 155.038 109.035)
(-887.763 136.729 31.1932)
(-985.28 142.032 59.6025)
(-854.192 137.478 63.2476)
(-1005.86 144.48 94.0814)
(-478.855 234.231 114.857)
(-332.707 184.805 55.877)
(-435.658 200.712 25.3284)
(-385.872 209.064 160.492)
(-437.063 202.621 117.213)
(-402.481 202.18 68.7175)
(-423.054 230.761 125.032)
(-403.98 215.204 84.7931)
(-1212.98 307.884 5.61424)
(-571.527 211.379 9.89719)
(-881.876 367.085 20.0439)
(-497.321 203.551 50.6351)
(-942.69 274.313 51.4623)
(-826.026 277.836 -16.8433)
(-715.401 250.088 11.8641)
(-765.125 276.516 -5.33219)
(-334.478 154.418 148.556)
(-325.753 197.689 161.244)
(-305.369 167.07 144.972)
(-234.771 209.504 247.738)
(-328.743 182.437 186.507)
(-311.762 194.643 154.876)
(-289.6 176.205 184.396)
(-304.295 185.812 161.838)
(-603.699 163.898 87.8469)
(-1015.47 161.795 92.9276)
(-567.63 157.332 126.773)
(-387.863 189.073 119.086)
(-527.444 192.11 87.3274)
(-702.564 137.699 116.873)
(-404.125 183.128 105.548)
(-509.74 146.329 109.886)
(-608.704 186.224 86.3116)
(-383.843 202.61 130.694)
(-615.31 223.433 23.7062)
(-1082.98 234.031 4.55996)
(-540.917 200.46 56.8162)
(-427.201 204.208 101.832)
(-726.048 183.197 36.8808)
(-529.53 158.396 40.7496)
(-848.942 180.319 35.0039)
(-500.227 157.695 150.012)
(-341.129 185.838 122.143)
(-397.442 128.881 93.227)
(-647.493 108.462 56.5214)
(-500.969 153.664 141.044)
(-511.49 169.079 113.895)
(-355.183 187.293 131.969)
(-1018.92 243.539 43.1767)
(-454.703 163.764 96.785)
(-350.755 198.135 136.095)
(-598.573 237.429 14.6265)
(-649.327 189.443 55.8452)
(-467.955 185.416 76.5691)
(-507.786 186.072 15.1313)
(-355.381 178.31 97.391)
(-81.8499 146.712 15.9647)
(-134.824 183.798 22.0999)
(-110.267 170.15 18.9026)
(-98.186 147.136 83.0027)
(-100.46 144.755 22.1095)
(-117.216 155.641 21.5792)
(-101.283 146.01 32.6959)
(-121.595 157.289 38.5569)
(-179.524 206.365 21.6918)
(-192.726 202.654 17.8524)
(-240.647 255.941 20.2546)
(-173.288 206.32 78.9353)
(-200.451 206.707 31.6104)
(-209.589 207.077 21.9859)
(-216.781 237.379 60.8145)
(-226.213 233.072 36.4706)
(-118.661 182.887 5.1274)
(-194.245 237.969 -2.10766)
(-178.802 227.175 21.3066)
(-171.177 200.056 73.0534)
(-166.152 206.978 19.8054)
(-175.442 216.324 13.4983)
(-163.013 213.723 42.8672)
(-180.584 211.663 41.0907)
(-94.7505 109.832 143.392)
(-95.7102 138.259 133.687)
(-106.163 159.767 119.941)
(-55.7231 108.937 190.77)
(-83.5075 126.216 142.421)
(-110.366 122.874 129.784)
(-84.8704 109.554 163.468)
(-101.701 135.092 155.62)
(-152.894 182.764 29.696)
(-137.648 182.317 25.016)
(-109.935 146.168 88.9092)
(-142.805 179.238 83.5542)
(-168.908 203.667 56.8782)
(-144.504 185.588 52.0895)
(-137.487 177.253 88.8845)
(-131.589 164.82 68.3144)
(-165.752 189.977 22.6359)
(-172.615 192.941 61.6307)
(-215.269 238.765 23.4641)
(-149.188 196.393 21.7575)
(-181.505 212.946 33.7505)
(-201.503 221.943 57.7327)
(-179.919 230.038 18.6349)
(-205.786 231.387 26.7501)
(-136.68 160.054 46.2226)
(-96.2339 106.592 115.902)
(-121.287 161.866 116.629)
(-130.267 172.969 93.3152)
(-118.566 174.183 66.3765)
(-112.226 148.282 90.0011)
(-142.956 180.77 72.9012)
(-133.908 159.481 110.98)
(-154.561 189.109 37.6164)
(-151.618 179.051 85.0541)
(-140.655 175.479 73.8183)
(-232.921 248.541 33.9228)
(-179.865 217.285 56.3029)
(-158.116 195.356 57.1604)
(-217.771 236.275 48.9272)
(-179.695 208.003 76.5873)
(-181.546 227.243 243.597)
(-221.374 178.409 155.493)
(-276.833 178.05 137.737)
(-163.48 201.84 203.878)
(-181.683 202.09 215.786)
(-241.666 164.921 172.18)
(-213.274 193.448 193.885)
(-257.979 188.082 159.301)
(-167.224 141.739 105.763)
(-186.097 91.8409 113.818)
(-219.395 116.902 69.0627)
(-104.841 108.492 137.913)
(-130.33 127.024 137.985)
(-158.855 97.5264 94.9996)
(-149.983 118.175 94.2721)
(-178.91 107.787 77.8418)
(-423.399 188.644 58.3771)
(-284.255 162.803 14.0065)
(-606.478 322.482 16.5738)
(-294.698 167.573 75.3062)
(-466.434 199.643 65.9463)
(-438.246 202.586 62.2426)
(-387.886 197.486 45.5747)
(-431.788 189.758 37.4421)
(-139.746 194.687 202.241)
(-116.063 139.118 154.858)
(-196.235 147.371 131.579)
(-118.087 151.089 175.217)
(-154.762 169.659 171.796)
(-175.627 152.865 140.235)
(-152.868 175.329 170.723)
(-159.398 142.433 140.874)
(-208.399 164.11 152.84)
(-264.723 170.249 140.561)
(-187.4 212.77 193.91)
(-188.552 163.991 164.394)
(-199.897 163.177 139.799)
(-232.317 171.25 142.825)
(-194.952 167.912 157.037)
(-209.483 172.087 150.788)
(-226.002 163.994 127.332)
(-192.969 152.415 128.718)
(-253.161 133.747 57.4761)
(-332.329 179.89 83.7113)
(-238.359 167.679 116.766)
(-208.932 152.677 121.302)
(-291.689 181.285 94.0784)
(-271.487 156.582 103.828)
(-283.348 175.049 92.2362)
(-183.818 206.274 187.482)
(-162.562 136.251 129.6)
(-237.978 159.419 98.2746)
(-217.989 160.766 138.826)
(-194.77 163.406 136.551)
(-261.181 164.539 110.442)
(-207.745 152.086 120.901)
(-348.984 189.444 75.2442)
(-272.978 157.599 94.5673)
(-143.68 126.822 119.56)
(-228.706 127.723 38.1018)
(-353.634 178.788 62.819)
(-293.512 170.132 86.5814)
(-231.931 139.076 60.8893)
(-142.8 118.459 96.3092)
(-57.56 -22.5892 81.449)
(-71.1665 47.4682 186.788)
(-47.4068 64.2946 223.512)
(-32.812 -20.1781 34.5408)
(-18.5898 -52.3057 58.5391)
(-53.7504 48.6814 145.749)
(-43.2569 -20.4521 46.1307)
(-45.4473 35.892 109.319)
(-97.0723 80.2015 253.39)
(-97.3543 103.291 263.206)
(-69.3698 100.337 251.949)
(-112.161 97.0414 236.439)
(-93.7732 80.0627 236.768)
(-103.824 107.532 274.689)
(-110.319 89.3594 246.974)
(-105.97 111.982 243.69)
(-63.9779 74.2874 235.794)
(-58.9823 90.559 241.812)
(-47.713 97.2468 215.51)
(-105.464 97.5306 187.715)
(-85.2648 92.0973 217.274)
(-46.3747 94.4516 239.939)
(-84.3766 92.2064 205.68)
(-62.9152 94.9453 201.836)
(-44.0154 31.6178 44.5992)
(-160.542 86.7521 161.135)
(-153.476 127.493 156.692)
(-173.093 110.653 62.7223)
(-117.634 43.9006 53.4095)
(-143.617 89.529 126.759)
(-125.196 107.088 59.1289)
(-167.951 130.211 158.814)
(-58.7083 36.2674 168.471)
(-64.9737 78.982 204.426)
(-39.6109 -7.50076 60.6068)
(-111.566 77.7158 175.902)
(-77.0148 56.9722 167.976)
(-64.1919 54.4128 118.34)
(-82.4319 51.8446 174.501)
(-72.4238 54.4262 115.954)
(-88.9384 80.1953 267.277)
(-107.96 86.9493 223.651)
(-51.6225 98.031 252.089)
(-61.5993 62.979 260.043)
(-88.9713 77.1917 224.072)
(-108.205 88.078 262.782)
(-68.3803 84.4113 249.358)
(-75.7302 87.7367 235.042)
(-69.3697 80.0848 212.071)
(-47.7784 58.7292 47.8637)
(-110.184 93.003 177.939)
(-119.631 137.808 170.432)
(-96.9093 97.6923 185.932)
(-87.9207 83.544 132.106)
(-101.176 109.42 192.454)
(-120.274 87.0998 146.034)
(-71.8748 77.3664 227.774)
(-100.599 112.318 214.262)
(-118.773 107.129 242.598)
(-69.5679 94.6426 222.102)
(-77.0942 87.6633 245.331)
(-88.6706 92.6817 222.793)
(-82.8915 91.3564 227.551)
(-95.4893 107.61 220.486)
(-182.508 185.184 162.955)
(-124.468 168.358 168.98)
(-188.782 184.889 242.287)
(-228.967 186.742 161.03)
(-175.201 190.085 145.189)
(-133.431 178.755 191.492)
(-234.046 195.984 192.704)
(-187.397 188.252 198.304)
(-76.7712 127.09 195.836)
(-47.9225 104.251 211.125)
(-59.1236 107.429 214.608)
(-93.8146 118.57 168.049)
(-69.028 120.041 183.344)
(-58.3129 113.762 215.191)
(-76.4626 103.354 179.521)
(-59.3643 97.5414 209.794)
(-143.024 138.62 247.049)
(-59.1399 113.799 231.784)
(-95.5021 108.75 260.742)
(-138.155 122.828 235.176)
(-127.177 124.773 247.639)
(-100.86 111.392 252.337)
(-119.823 122.114 238.333)
(-112.01 115.414 256.401)
(-226.252 153.017 139.029)
(-145.727 154.373 151.852)
(-195.596 143.039 186.351)
(-230.234 152.878 68.4932)
(-209.476 148.046 115.874)
(-164.498 131.675 168.629)
(-238.399 168.101 125.084)
(-205.05 132.359 162.538)
(-113.096 163.263 157.594)
(-170.683 181.671 215.862)
(-204.8 184.922 142.551)
(-125.963 134.728 152.572)
(-142.415 143.146 182.534)
(-169.865 179.093 202.656)
(-121.976 137.329 163.942)
(-162.162 168.484 186.347)
(-75.4614 148.96 192.436)
(-88.787 100.491 177.811)
(-75.5291 109.97 229.493)
(-132.894 170.891 242.334)
(-94.3355 135.913 195.902)
(-81.7264 116.443 221.447)
(-92.5255 145.647 202.43)
(-82.7948 125.589 214.188)
(-181.117 148.421 215.919)
(-246.993 162.046 169.753)
(-136.26 156.086 182.747)
(-173.13 143.909 202.381)
(-181.017 141.738 209.727)
(-193.108 157.028 195.648)
(-164.653 127.703 189.819)
(-171.262 138.305 194.413)
(-150.522 153.589 246.444)
(-141.134 120.446 226.029)
(-109.911 116.906 191.755)
(-71.4632 109.145 227.308)
(-114.14 121.155 237.6)
(-115.394 111.276 228.772)
(-69.5869 115.576 211.981)
(-96.0763 115.007 193.487)
(10.6727 7.63498 17.708)
(-50.492 9.0403 20.7736)
(-60.8257 81.2103 206.552)
(-72.2366 54.1991 133.107)
(-7.32336 -42.883 32.6549)
(-48.8615 -20.7094 46.9666)
(-58.5846 30.825 148.714)
(-54.7518 29.6922 139.484)
(-93.5922 50.1001 -2.36079)
(-184.949 149.617 60.2979)
(-174.732 165.015 156.446)
(-167.031 180.841 117.076)
(-82.3013 93.2328 15.3832)
(-157.954 115.689 54.7021)
(-101.235 131.598 55.0254)
(-184.457 183.483 108.638)
(-90.3489 90.9675 216.235)
(-107.112 108.271 179.007)
(-54.2758 96.999 222.633)
(-88.0984 108.303 198.794)
(-93.6033 111.19 206.408)
(-96.2847 97.359 188.275)
(-63.9467 90.3863 200.006)
(-75.4304 81.7382 189.269)
(-158.181 129.288 188.117)
(-169.653 165.076 163.623)
(-155.329 147.256 172.154)
(-195.506 144.815 173.685)
(-164.378 142.052 198.631)
(-161.385 165.767 163.804)
(-179.386 144.009 177.544)
(-157.446 146.102 158.575)
(-67.007 58.8313 39.3046)
(-71.1021 102.466 192.02)
(-79.2454 57.7854 140.765)
(-145.946 148.969 150.088)
(-70.7959 49.0554 126.194)
(-58.6518 63.7636 133.589)
(-123.662 93.5042 126.905)
(-108.149 92.4491 146.938)
(-119.921 66.6627 54.4614)
(-162.508 157.885 143.718)
(-164.553 167.796 171.949)
(-94.1742 102.451 189.56)
(-88.4663 76.5028 95.7628)
(-83.8564 106.061 110.061)
(-107.332 121.055 171.94)
(-120.681 137.341 176.801)
(-99.7239 87.8152 229.922)
(-115.52 92.2706 208.465)
(-133.149 131.8 168.935)
(-117.5 109.532 189.343)
(-111.341 121.985 204.714)
(-134.443 106.694 176.72)
(-120.697 133.08 207.969)
(-135.191 138.093 184.339)
(-100.4 90.8826 207.499)
(-101.721 94.9679 177.08)
(-154.623 160.336 154.784)
(-138.883 150.047 158.469)
(-111.59 119.177 204.095)
(-129.043 123.313 180.015)