/*--------------------------------*- C++ -*----------------------------------*\
| =========                 |                                                 |
| \\      /  F ield         | OpenFOAM: The Open Source CFD Toolbox           |
|  \\    /   O peration     | Version:  2506                                  |
|   \\  /    A nd           | Website:  www.openfoam.com                      |
|    \\/     M anipulation  |                                                 |
\*---------------------------------------------------------------------------*/
FoamFile
{
    version     2.0;
    format      ascii;
    arch        "LSB;label=32;scalar=64";
    class       volVectorField;
    location    "500";
    object      U;
}
// * * * * * * * * * * * * * * * * * * * * * * * * * * * * * * * * * * * * * //

dimensions      [0 1 -1 0 0 0 0];

internalField   nonuniform List<vector> 
44672
(
(238.86 -21.4226 -71.765)
(165.107 -6.50696 -73.6322)
(199.321 -6.409 -142.177)
(143.641 12.5719 6.71395)
(210.057 -10.5855 -82.867)
(172.474 -13.1829 -76.9541)
(245.934 -16.0607 -58.2925)
(164.264 -17.6752 -73.4996)
(101.14 2.81505 -70.0868)
(56.8126 13.2596 -35.7026)
(58.3381 21.6795 -38.8617)
(80.0033 -7.88359 -35.2573)
(92.0973 6.7694 -63.2394)
(67.3771 16.1272 -51.7561)
(95.2795 -17.3909 -52.0787)
(63.6312 2.0581 -52.331)
(103.207 -11.9468 -153.217)
(41.3527 -11.5016 -87.9891)
(9.53528 10.3697 -166.07)
(89.8916 -28.1325 -78.1016)
(69.2302 -29.5734 -103.457)
(49.846 -6.70506 -131.86)
(106.839 -35.3944 -123.145)
(37.5031 -13.2138 -113.331)
(79.5719 12.8826 37.2346)
(86.8752 2.29336 -17.0271)
(124.732 16.5518 -10.527)
(36.1165 23.3716 59.8736)
(117.807 8.48237 -1.55938)
(119.66 -9.84925 3.20367)
(100.08 41.9569 31.3241)
(84.8269 -0.994448 6.85899)
(140.565 -16.3396 -83.512)
(154.603 -44.3471 -119.451)
(171.684 -0.180097 -41.497)
(102.724 -8.71379 -30.0894)
(134.914 -18.2721 -70.2583)
(177.013 -37.2956 -31.8335)
(138.537 -8.3281 -49.8604)
(140.318 -5.71848 -33.8968)
(128.391 10.8489 -64.3668)
(100.094 -3.56303 -42.215)
(77.3997 5.28241 -79.7281)
(134.584 -6.92687 -112.896)
(108.65 -2.42616 -50.1991)
(106.965 -9.34754 -60.8679)
(112.326 -27.505 -93.0922)
(101.554 -14.1791 -91.8323)
(198.18 -45.7672 -124.067)
(144.092 26.9647 -1.93857)
(124.013 -13.1048 -35.3643)
(173.039 -24.901 -62.5168)
(160.697 -6.60196 -45.33)
(150.899 -30.5623 -13.7922)
(146.122 -25.5306 -62.8439)
(115.379 -6.84189 -16.6474)
(84.1223 -38.3853 -99.8235)
(121.005 -39.9656 -70.4418)
(100.61 -17.0087 -42.8147)
(73.5306 -11.5694 -54.475)
(156.887 -49.0422 -70.4887)
(131.216 -16.8816 -62.1161)
(81.1405 -41.8042 -84.8852)
(109.427 1.32328 -48.5063)
(-6.2999 3.93896 30.4742)
(-4.03113 1.17366 23.095)
(-12.6088 14.3335 24.9549)
(-9.38496 3.12064 23.2206)
(-8.2522 5.08904 22.2381)
(-10.6617 8.03602 27.9992)
(-7.2026 3.9133 23.4868)
(-9.0395 8.64694 20.9269)
(-4.21576 0.120231 19.0075)
(-5.71357 0.481344 18.4277)
(-8.21544 8.12833 23.8651)
(-7.50354 -1.32186 18.2097)
(-10.9222 4.86327 20.1015)
(-9.19002 9.08492 21.3909)
(-5.99321 -3.57612 18.4787)
(-8.50229 8.46726 19.389)
(-9.17413 12.9001 27.4782)
(-9.90199 10.969 28.4287)
(-9.89149 12.18 32.975)
(-8.88707 11.517 27.7835)
(-7.45161 11.8449 26.1552)
(-10.1747 13.0171 30.4703)
(-8.75196 11.5103 26.5477)
(-9.02031 12.3385 25.5732)
(-10.0002 2.514 19.8524)
(-9.25702 0.479196 18.1942)
(-8.60923 8.34946 19.8822)
(-11.3795 1.64639 19.1825)
(-10.3042 3.01787 18.9342)
(-8.81083 3.42489 18.3299)
(-9.93843 3.00804 17.2373)
(-9.14368 5.05487 15.4158)
(-10.3178 3.84654 22.0211)
(-9.4051 10.9758 21.6992)
(-9.1342 3.31508 22.2656)
(-10.2083 4.03711 16.5418)
(-5.45507 -0.549005 18.8751)
(-9.19238 4.55438 24.4554)
(-6.31641 1.7011 18.9777)
(-10.0173 4.71251 21.5513)
(-10.2378 7.57225 25.8346)
(-8.65249 6.18122 18.5261)
(-10.4104 13.2019 27.2018)
(-9.4937 11.8097 24.446)
(-9.51665 8.44701 20.1844)
(-7.23024 5.07846 21.9182)
(-11.0143 12.3173 23.3065)
(-8.7746 9.43783 21.8542)
(-11.257 12.766 23.2902)
(-8.34205 2.94868 19.9002)
(-8.46776 -1.23031 19.7617)
(-11.4431 11.2232 23.2155)
(-12.7903 13.2768 24.7191)
(-9.95346 6.58258 21.6592)
(-10.3999 9.6287 20.9899)
(-7.70548 1.86998 18.3868)
(-9.67012 11.5154 23.4508)
(-10.0292 12.5653 22.3693)
(-8.85057 6.99388 18.3696)
(-10.2798 13.0989 24.2062)
(-9.57263 13.8676 23.5139)
(-10.7074 11.95 22.3568)
(-9.95336 9.38132 21.9359)
(-9.64312 6.89416 21.4232)
(-4.29641 0.118001 11.3015)
(-5.52805 0.344076 11.3444)
(-5.82312 1.0623 9.75134)
(-3.77932 0.656026 11.7284)
(-4.69697 0.324245 12.7027)
(-4.82538 0.416799 10.6969)
(-4.15272 0.308391 11.7224)
(-4.69721 0.550834 10.034)
(-7.09488 -0.0349075 10.0209)
(-9.54709 -2.05392 8.76045)
(-7.37776 -0.343382 4.35045)
(-7.63184 -0.619038 9.47952)
(-8.26576 -0.500001 9.90023)
(-8.14167 -1.42493 8.64862)
(-7.63255 -0.665858 9.54804)
(-8.597 -1.1832 7.88572)
(-8.72644 0.957176 5.87554)
(-8.29987 2.13443 3.82092)
(-9.34735 2.08232 2.16593)
(-8.39312 1.08849 4.59722)
(-8.71803 0.773441 4.94805)
(-9.89886 1.20575 4.63647)
(-8.30206 1.247 4.32517)
(-9.02869 1.60037 3.9987)
(-4.68077 0.303366 9.91509)
(-6.08574 -0.395842 9.27182)
(-6.188 -0.60125 7.03786)
(-4.5361 -0.473838 9.18773)
(-5.60558 0.183586 10.0713)
(-5.21225 -0.0373668 8.9132)
(-4.82622 -0.428675 9.32925)
(-4.44074 -1.51954 7.66541)
(-5.92924 0.352034 10.4203)
(-6.50824 0.562582 9.087)
(-4.71789 0.380179 10.2653)
(-6.33194 -0.261152 10.3034)
(-5.31904 0.258472 9.81593)
(-4.95377 0.0555284 11.226)
(-5.57291 0.111475 9.64083)
(-4.965 0.335742 10.8964)
(-6.04075 0.02687 10.0129)
(-6.36486 -0.406088 9.16737)
(-9.41041 0.175585 6.43914)
(-7.23876 0.4031 8.22209)
(-5.97976 -0.24507 10.4005)
(-6.61234 -0.835413 9.28437)
(-8.25862 0.0680246 8.81099)
(-7.9026 -0.21458 6.34358)
(-6.21358 0.532951 8.14189)
(-4.40217 0.41525 10.8341)
(-5.67762 -0.357999 9.33663)
(-5.95866 0.0405296 6.95579)
(-5.8938 0.607898 8.24364)
(-4.72437 0.205686 9.70093)
(-6.09654 0.0352646 7.0728)
(-5.2236 -0.524413 10.0493)
(-7.57125 0.267956 7.07845)
(-6.97557 -0.291003 6.15183)
(-6.38152 -0.873753 9.06486)
(-9.00236 1.00242 5.84735)
(-7.47114 0.217316 7.0782)
(-6.87352 0.11149 6.66451)
(-7.10994 0.298163 6.08996)
(-7.15043 0.127466 6.06384)
(-291.703 204.928 154.538)
(116.641 28.5674 106.45)
(187.561 -55.5832 52.4612)
(71.0188 55.231 108.548)
(-49.2356 16.5248 98.0454)
(152.72 6.74155 112.525)
(57.6125 36.1207 94.0961)
(184.919 43.5239 107.49)
(168.071 13.402 97.8285)
(243.837 5.63431 -5.16923)
(238.694 -37.5054 -82.5988)
(241.961 26.5322 62.7884)
(242.144 34.654 135.19)
(243.176 -4.48734 -1.60101)
(183.499 13.8515 29.4563)
(247.007 -24.7248 -79.5851)
(148.425 -72.0406 -72.8597)
(115.889 -41.5503 -120.709)
(40.3545 -29.4141 -137.165)
(126.72 -44.8581 -81.4166)
(144.083 -58.9897 -85.2435)
(128.568 -57.3305 -103.194)
(121.986 -40.0726 -84.3512)
(96.1948 -38.6655 -120.083)
(-38.3829 98.5763 135.593)
(103.691 50.972 42.8765)
(144.672 -8.08392 12.9721)
(-8.85311 78.8487 94.165)
(-9.46393 80.7939 126.262)
(91.1573 39.754 74.5289)
(53.0001 61.3589 47.9575)
(159.356 1.08 19.811)
(81.2639 94.6307 225.28)
(229.1 -2.39601 34.3121)
(-20.1042 76.6777 142.72)
(85.5776 35.9295 173.4)
(137.855 12.0357 88.0397)
(205.976 -6.47095 20.0727)
(20.0146 31.4424 143.556)
(109.769 18.9182 78.9031)
(202.162 -8.45666 77.8941)
(157.241 16.8613 45.5349)
(201.396 -54.8945 -59.0643)
(208.495 -54.6705 -22.4568)
(235.03 -50.8145 7.35156)
(180.125 -1.03922 37.1214)
(220.952 -52.6649 -20.8076)
(242.178 -34.0511 -0.0418408)
(177.514 -35.7231 -0.795592)
(67.0946 37.57 80.5787)
(101.241 42.0507 73.5252)
(147.571 -0.790587 -14.2163)
(197.148 -16.5545 21.3421)
(180.809 -0.361763 13.1872)
(179.654 18.8167 26.696)
(132.057 0.0883175 63.9785)
(190.405 -70.954 -56.1573)
(165.189 -50.3455 -78.6474)
(220.974 -15.7955 -4.78785)
(173.436 -45.4972 -123.637)
(208.208 -46.0378 -55.364)
(169.577 -22.3756 -27.9038)
(169.819 -42.0036 -36.5538)
(178.785 -9.08266 -25.2192)
(-7.59183 2.54151 19.8005)
(-8.88413 8.51991 23.3434)
(-8.47484 0.295651 15.0143)
(-7.79058 4.84508 15.8807)
(-9.29095 5.7989 21.0557)
(-8.86734 8.19933 21.5783)
(-9.82957 2.11822 15.436)
(-7.68712 3.12007 17.2872)
(-9.51643 12.9117 26.7743)
(-8.98627 15.0636 34.0476)
(-10.1315 11.4791 24.0224)
(-13.2372 19.1091 30.7578)
(-10.9336 16.398 31.3989)
(-10.7225 16.1278 29.2551)
(-11.6634 17.3911 26.3498)
(-11.3076 14.6246 27.0988)
(-9.78887 0.760925 14.0948)
(-11.8647 10.2816 21.9881)
(-11.1915 0.65974 13.2029)
(-16.2619 10.3961 12.2965)
(-11.3093 5.43867 15.0615)
(-9.69728 4.52379 17.2228)
(-12.9507 4.82014 11.7595)
(-12.2435 5.46565 15.2533)
(-14.6234 15.8262 10.9058)
(-16.0417 21.2487 22.6478)
(-15.5911 18.2751 11.4693)
(-16.7997 24.9155 10.0425)
(-19.0626 20.4113 17.2673)
(-17.5293 18.8045 16.4078)
(-18.2532 23.329 11.2366)
(-17.8183 19.5962 10.8695)
(-11.1206 14.8138 27.8657)
(-10.02 5.15407 16.2598)
(-13.1457 12.2918 18.9728)
(-15.3674 19.2638 26.2995)
(-11.5377 11.5781 21.1554)
(-10.835 9.29012 17.7869)
(-11.883 15.6643 24.4794)
(-12.3359 11.7986 17.3079)
(-10.8248 14.9311 26.9647)
(-14.3434 17.5855 25.2941)
(-11.9515 12.9007 24.6228)
(-9.46339 5.56586 18.5566)
(-9.87759 12.3588 21.6303)
(-13.2195 16.8526 26.1061)
(-11.2581 8.87357 20.4845)
(-11.6065 13.5692 22.3529)
(-11.2492 3.37184 13.4177)
(-15.1314 12.8961 12.1484)
(-14.4652 20.5674 20.2521)
(-16.9621 14.0057 11.8492)
(-10.9141 7.47802 12.1632)
(-12.0032 12.2804 12.2628)
(-14.6994 11.4674 14.6606)
(-16.9782 16.1768 15.2753)
(-9.69063 3.99119 17.3093)
(-15.1424 12.8646 11.8894)
(-13.5953 17.7196 21.3298)
(-11.2159 12.3218 19.5734)
(-12.2088 8.31016 15.1267)
(-14.1513 11.4059 13.6628)
(-12.0416 11.652 18.4383)
(-12.6879 14.2947 20.526)
(-16.5125 8.52617 31.5347)
(-15.2457 10.5458 31.8879)
(-14.9974 8.51515 30.4058)
(-22.3064 14.5209 28.2914)
(-17.8674 11.3494 29.4001)
(-15.7886 10.0695 31.7613)
(-20.0638 10.8133 30.3906)
(-16.7073 9.47078 28.3953)
(-18.8353 13.8688 32.3151)
(-21.7005 13.381 33.55)
(-17.1846 12.2765 27.4951)
(-24.1165 16.2982 26.4312)
(-24.1412 21.0134 30.348)
(-22.4361 16.6168 32.8724)
(-21.7677 17.7046 28.1458)
(-19.8567 14.494 28.9964)
(-14.0368 9.54443 27.8111)
(-14.3109 10.3173 23.8967)
(-13.0991 6.51382 23.9644)
(-19.0101 10.7327 21.3836)
(-16.995 14.3899 22.942)
(-15.8589 12.2237 26.0155)
(-16.1854 12.0818 23.6989)
(-15.1529 9.82948 22.4288)
(-24.9184 18.1758 21.9373)
(-26.8173 18.6014 19.4341)
(-23.3242 15.1574 18.6061)
(-27.8211 21.4157 12.0278)
(-28.1345 22.0884 18.0978)
(-25.4273 18.9903 19.0994)
(-27.12 21.5214 18.303)
(-25.1331 18.3945 17.0755)
(-18.3453 14.6219 29.415)
(-16.427 11.3419 26.3956)
(-23.2011 16.9223 25.2351)
(-25.2764 21.521 23.5961)
(-17.8071 11.4642 28.1374)
(-17.512 11.391 25.4208)
(-21.5221 13.2697 27.0904)
(-21.5208 13.6145 25.858)
(-17.7366 13.4322 31.982)
(-23.7142 18.8407 25.7384)
(-18.0515 14.34 27.9604)
(-15.6337 11.0532 29.6773)
(-18.2078 11.7775 30.4465)
(-21.0314 18.955 24.9518)
(-16.2401 11.7284 28.9702)
(-19.5263 17.5949 24.5779)
(-16.4673 9.98345 27.5459)
(-21.2884 15.4884 23.4239)
(-24.1723 18.968 20.03)
(-21.5063 16.2454 21.6672)
(-18.6824 11.7025 24.4833)
(-21.2783 12.8308 24.3861)
(-22.2757 17.5026 21.3372)
(-23.258 18.359 20.678)
(-15.1892 9.82623 25.7438)
(-20.703 14.3976 21.2567)
(-23.1614 16.0144 24.8575)
(-17.0334 11.9731 25.1293)
(-18.0323 15.4705 22.8909)
(-20.6513 15.4914 23.4485)
(-17.8878 14.9366 23.106)
(-20.7913 14.3331 22.5213)
(2.10875 10.8329 31.9213)
(0.858057 25.9885 31.7656)
(27.539 4.98813 5.45596)
(0.783089 10.5066 40.4363)
(1.69207 21.387 50.5833)
(17.1691 11.1414 19.0588)
(12.9458 10.7504 19.2813)
(20.0293 6.52754 24.6512)
(9.6994 30.1564 28.4444)
(-12.8647 21.4734 31.0327)
(29.6876 12.9815 45.4938)
(-6.64797 62.3215 39.005)
(-2.51187 40.8757 22.4785)
(14.8603 28.3894 34.4966)
(17.3766 24.7943 3.98178)
(27.6921 -0.301808 38.9706)
(24.3393 9.31508 14.3317)
(19.6979 6.84925 30.9639)
(14.2264 0.954969 18.6634)
(30.7513 0.185932 1.95045)
(28.659 3.94119 11.4668)
(21.9421 3.76024 16.5362)
(28.8954 7.85548 13.1878)
(26.3445 5.04852 18.9826)
(-4.71606 12.9554 54.5281)
(-18.0183 48.658 58.7241)
(48.8747 1.91172 7.06676)
(-18.5292 65.8469 71.2571)
(-5.54114 48.4604 37.2522)
(4.28995 6.41405 42.341)
(13.1894 32.6379 33.7759)
(42.1583 21.416 19.8197)
(-5.32165 32.2621 36.7572)
(23.9098 6.99014 12.8462)
(4.12943 27.5518 62.1061)
(-10.0236 53.248 34.959)
(8.04386 34.5002 30.4986)
(28.7847 2.69289 5.81165)
(-3.9248 42.3962 47.1402)
(20.7022 16.4174 40.7632)
(20.1894 9.93426 22.6442)
(9.50593 19.3291 32.0397)
(21.9797 15.855 34.9944)
(28.4915 4.44447 15.6808)
(18.1452 16.403 31.0625)
(33.2722 3.99224 21.8602)
(28.5908 15.3199 20.9771)
(29.7735 12.0488 22.0506)
(30.3463 3.21345 5.41439)
(17.5501 20.3802 20.7171)
(-2.76859 51.9695 36.8659)
(31.4962 25.2247 35.5551)
(25.2417 20.812 19.8701)
(20.3815 11.3622 37.2073)
(34.982 7.21727 18.2801)
(34.3342 12.7422 35.2686)
(24.5099 8.56849 25.4952)
(38.4023 -3.80026 8.03763)
(31.6951 30.6518 26.299)
(29.7478 7.71717 37.2964)
(35.1155 -2.6665 17.6848)
(24.8797 5.12871 21.7222)
(32.333 12.2526 20.0816)
(29.5544 10.4449 14.085)
(-19.8867 12.5474 24.4973)
(-26.4526 15.6071 19.4966)
(-21.7487 13.3675 17.1242)
(-24.8336 16.7433 18.194)
(-23.8384 15.5623 22.8642)
(-26.0713 15.7032 21.7735)
(-25.0697 15.284 21.2109)
(-24.6439 14.6845 18.5415)
(-29.9269 16.0007 12.4874)
(-32.9005 16.8147 4.48267)
(-28.2557 14.6266 4.0843)
(-33.5768 20.2917 3.74709)
(-34.0686 17.8355 8.36058)
(-30.4142 15.8346 5.56793)
(-32.2478 17.6394 4.80771)
(-30.0209 15.8083 4.34574)
(-21.3251 12.7404 8.91735)
(-23.4524 13.0019 3.12196)
(-20.1601 12.4323 2.94508)
(-24.1586 14.5088 3.81032)
(-23.8639 13.5045 5.60419)
(-21.5393 12.3005 3.62595)
(-23.337 13.2335 3.75692)
(-21.8679 12.3178 3.31631)
(-27.1276 19.5162 12.7501)
(-31.1734 22.8533 3.2042)
(-25.8606 17.423 3.97527)
(-29.0579 21.9668 4.87994)
(-29.4224 21.6072 8.89093)
(-28.5734 20.8866 4.22016)
(-28.0487 19.9544 4.95974)
(-27.9377 18.904 4.41893)
(-30.8167 17.8503 16.1709)
(-24.4729 15.4378 13.0191)
(-27.3851 18.4346 15.7497)
(-34.2245 21.8246 7.6875)
(-28.8545 16.3043 13.8995)
(-26.7853 16.9232 13.2651)
(-28.8628 18.5929 10.8218)
(-28.9069 19.0387 13.1146)
(-28.1256 16.5425 13.639)
(-30.9123 19.1695 4.35482)
(-25.0447 13.5046 3.9948)
(-24.4466 14.6817 11.939)
(-28.1565 15.6707 12.6818)
(-29.9014 17.5281 5.34609)
(-25.1484 14.0006 10.3143)
(-27.1542 14.609 5.45332)
(-24.8328 15.0132 11.3309)
(-27.9378 18.238 14.3714)
(-32.653 20.659 6.4431)
(-26.5546 16.865 4.65791)
(-24.3081 15.6077 9.95388)
(-27.0205 17.2045 12.3765)
(-26.3153 17.6872 6.13498)
(-29.023 19.2783 4.87589)
(-23.67 13.3446 11.0845)
(-25.6174 15.488 3.9062)
(-30.382 18.8611 4.36228)
(-25.129 13.9028 3.35771)
(-24.8412 14.6335 4.26301)
(-26.8096 16.4763 4.45734)
(-27.2891 15.8614 4.44701)
(-28.5778 17.4387 4.08819)
(-16.5953 14.6435 24.9201)
(-21.2302 14.9854 19.1829)
(-15.255 12.9606 21.9689)
(-22.5201 16.5096 21.4228)
(-20.0168 13.149 21.0721)
(-19.2298 12.0313 21.8065)
(-18.6426 15.4296 21.4244)
(-17.3684 11.0112 20.6472)
(-20.6756 12.7383 12.0461)
(-19.5125 11.2539 4.55383)
(-17.3148 9.91464 8.91647)
(-21.8732 12.8153 4.62424)
(-20.5198 11.8255 7.4569)
(-20.8067 11.6407 8.0325)
(-20.5822 11.4461 7.40154)
(-20.8679 11.2319 7.51285)
(-11.5633 9.6793 19.9131)
(-15.475 8.34421 13.5614)
(-10.2786 6.00876 17.4013)
(-14.5595 8.1441 13.2456)
(-14.3798 9.27201 16.4997)
(-14.5604 8.47871 18.2022)
(-12.0819 8.20914 15.9247)
(-14.1668 7.38822 16.3649)
(-26.5042 18.4325 15.6746)
(-24.2371 15.2611 5.32401)
(-19.7859 12.4465 10.0654)
(-26.6793 20.0904 5.74338)
(-24.3699 17.6854 9.3667)
(-25.4879 15.6067 10.06)
(-22.8454 17.3969 9.87163)
(-23.308 15.2437 9.52641)
(-21.5699 13.3525 14.2926)
(-15.7274 10.2197 18.9852)
(-22.8818 15.8607 15.2863)
(-22.6106 14.3318 7.20064)
(-21.0007 13.6348 14.7948)
(-20.391 11.5631 17.4296)
(-21.9354 14.3468 12.2647)
(-22.5958 13.7524 14.9357)
(-21.0214 13.5062 14.5714)
(-23.2249 13.6248 7.686)
(-18.3142 10.3144 13.2697)
(-15.4627 9.74435 19.4756)
(-19.7805 11.4578 14.1293)
(-21.1285 10.6765 8.50208)
(-17.6905 13.7811 17.9009)
(-17.6265 11.0911 13.0238)
(-15.8397 12.5949 18.8755)
(-24.003 18.264 17.792)
(-21.8212 14.0798 8.623)
(-16.1983 11.9225 13.0691)
(-19.754 14.1387 18.2954)
(-20.6763 13.8621 14.8416)
(-19.6276 13.5275 13.0769)
(-23.2864 14.3849 11.6114)
(-14.954 8.97017 18.2625)
(-18.5587 10.5968 12.9902)
(-22.1512 12.8162 7.55995)
(-18.7226 9.56208 12.7282)
(-18.2348 10.4018 15.6073)
(-20.9202 11.8244 14.2689)
(-17.9761 9.90093 11.9333)
(-20.1646 10.7778 9.40384)
(15.4383 4.43595 14.1764)
(30.171 2.21494 1.16202)
(29.425 8.11723 9.60344)
(33.3003 5.53948 1.22345)
(28.8655 5.83775 6.33957)
(30.2729 5.01308 5.26654)
(30.0025 6.36431 7.48958)
(33.0294 7.4374 7.8904)
(46.5738 -1.84585 -12.6726)
(52.9114 10.7064 -31.8145)
(43.6257 11.3471 -21.4249)
(51.0258 6.35149 -13.5738)
(55.4619 -0.665225 -26.0235)
(57.7315 -1.81237 -33.0832)
(58.0094 -0.348688 -23.6717)
(54.6408 8.90576 -22.5432)
(26.2031 6.92336 6.16877)
(24.6373 15.0486 19.8983)
(18.8125 10.6254 28.1996)
(33.2405 12.9656 38.9539)
(19.2617 13.2686 19.1527)
(21.8016 3.92319 17.4415)
(22.7997 8.29235 22.2348)
(17.9245 5.95606 22.291)
(54.152 8.2463 10.5567)
(59.289 9.65472 -5.83235)
(6.6159 27.4983 87.1219)
(52.2141 26.9566 72.9713)
(73.2678 0.438918 19.1594)
(51.446 1.74401 14.0277)
(64.1237 8.5553 31.5124)
(54.8414 -23.2357 9.64445)
(38.8431 4.40653 -10.9222)
(37.7056 6.08938 -10.3363)
(42.5383 12.8253 1.73784)
(62.5121 14.9567 -27.8538)
(37.0517 6.83356 -6.55479)
(30.0386 3.97242 -4.94217)
(48.2378 6.61457 -10.4798)
(47.0043 -7.81352 -14.1806)
(41.0314 -1.91358 -17.1914)
(55.0689 1.56369 -5.12896)
(42.3118 12.6541 -9.99552)
(20.8032 5.2385 -1.45789)
(39.9338 12.2178 -4.33365)
(58.7826 16.0439 -12.5534)
(25.0085 9.72156 -0.621171)
(39.0642 1.8521 2.06678)
(43.1956 -0.970654 -6.4662)
(45.6666 21.9073 13.8597)
(64.4827 1.4472 -0.837388)
(30.6643 19.8795 46.6985)
(30.2024 0.172623 4.73934)
(47.1382 6.77971 6.71881)
(26.9517 1.74183 47.2366)
(57.2903 43.4821 34.7885)
(31.7664 -2.42868 12.3765)
(23.7327 5.35235 34.0722)
(78.3976 1.15932 1.37303)
(30.7646 2.09918 6.61316)
(19.2695 6.8313 34.6109)
(59.2573 8.01319 26.2157)
(42.0068 4.50754 1.26661)
(44.2999 11.417 22.1952)
(-4.07227 -0.065557 8.97352)
(-6.48835 0.543482 8.29243)
(-4.17871 0.90719 10.7756)
(-4.79764 1.87165 10.503)
(-4.43417 0.548413 9.69914)
(-4.86203 -0.0993429 8.29365)
(-4.16254 1.6681 11.1549)
(-4.10523 0.468608 9.59426)
(-8.01286 1.98775 4.81888)
(-8.72809 2.52263 3.18385)
(-8.29292 1.54452 6.28487)
(-8.98222 2.03435 8.77782)
(-8.01164 1.88599 5.47062)
(-8.38906 1.88827 5.10936)
(-8.70092 2.17409 6.70042)
(-9.03365 2.09279 6.78844)
(-3.02044 1.11667 11.1013)
(-6.47387 1.09045 10.3)
(-4.45133 2.71057 17.6709)
(-4.36543 3.4981 15.4854)
(-4.01107 1.1885 10.6501)
(-4.51083 0.495943 10.5577)
(-4.05916 4.38971 15.3538)
(-3.52678 4.02445 15.7626)
(-5.7338 1.96547 10.924)
(-8.25406 2.21926 12.9506)
(-5.67634 2.81875 14.9089)
(-6.26968 1.31699 15.7891)
(-6.10191 1.86478 11.5589)
(-6.28448 1.95139 11.6884)
(-6.17031 2.58617 13.5833)
(-6.02516 2.0906 14.311)
(-6.06023 0.987212 7.36326)
(-3.88832 0.807882 11.0793)
(-5.25873 1.87869 9.43735)
(-7.56881 2.18978 8.87775)
(-6.743 1.74134 8.71694)
(-4.89264 1.66871 10.7447)
(-6.99062 2.28622 8.26859)
(-5.23764 1.99604 9.46058)
(-6.56224 0.679333 6.1584)
(-7.67259 2.1731 8.62813)
(-6.89585 1.36275 8.02959)
(-4.23843 0.721227 9.29603)
(-6.27173 1.43619 8.20691)
(-7.77821 2.17679 7.57835)
(-5.72521 0.894919 8.46601)
(-6.25817 1.59846 8.56802)
(-4.46786 3.23009 11.8927)
(-5.25786 2.12352 10.9376)
(-7.6885 2.56285 10.5011)
(-5.44973 4.06664 13.3258)
(-4.96477 2.63463 11.3123)
(-5.08793 2.01255 11.3418)
(-5.01687 2.15853 11.3239)
(-5.85721 2.05061 11.0197)
(-3.98111 0.802203 10.365)
(-4.98286 2.88422 13.3154)
(-8.22921 2.51344 11.107)
(-6.88542 2.3243 10.6897)
(-5.60522 2.6866 11.7698)
(-5.49056 2.30054 10.6655)
(-6.53254 2.36451 10.0711)
(-7.17422 1.94739 10.5822)
(-15.0662 7.31323 20.2878)
(-18.9085 6.14972 17.3986)
(-14.4284 3.56543 21.6296)
(-14.1805 3.11844 16.6536)
(-15.403 6.5637 18.2785)
(-17.239 5.61549 19.3811)
(-13.6355 4.27887 18.6202)
(-16.771 3.32495 19.8563)
(-24.5846 5.28602 13.545)
(-29.3585 3.98976 7.82199)
(-27.2672 4.79757 15.3693)
(-22.4021 6.83987 11.067)
(-24.2253 6.99741 12.8106)
(-27.8031 5.2424 10.3396)
(-22.5329 6.27015 10.747)
(-25.7699 3.97069 9.78057)
(-13.5393 1.97363 21.0602)
(-20.348 2.96033 18.4215)
(-14.8763 0.289275 20.6571)
(-12.3094 2.37625 17.5531)
(-14.3552 3.18327 19.2385)
(-17.2713 2.1691 18.0168)
(-12.9544 1.56924 17.6974)
(-16.7995 0.313629 19.9215)
(-12.8606 3.62683 14.7005)
(-15.0863 5.11329 10.3985)
(-12.3269 2.79793 14.9378)
(-11.363 3.49231 11.8755)
(-13.0108 4.49795 11.8418)
(-14.8342 4.63002 12.6562)
(-12.6727 3.59505 13.4772)
(-13.5969 2.7185 12.9105)
(-19.0143 6.09295 16.1768)
(-14.193 4.10268 18.6366)
(-13.6938 4.61178 16.135)
(-17.7027 5.85765 12.1927)
(-17.247 4.66157 14.6445)
(-15.9642 4.35589 17.4937)
(-17.2258 4.01377 13.2871)
(-15.1758 4.07526 15.4299)
(-20.8639 4.80329 14.4203)
(-19.4055 5.74182 10.8541)
(-24.1218 4.17195 15.1775)
(-16.0544 3.28953 18.4967)
(-21.2264 3.65722 14.8795)
(-19.2079 4.26139 13.0557)
(-19.225 3.87574 17.4801)
(-19.5041 5.2172 16.0026)
(-12.4524 2.69939 18.6749)
(-12.5705 3.42263 14.9556)
(-16.8953 4.67132 11.7118)
(-13.5368 2.80897 15.9337)
(-13.0642 3.39865 17.2907)
(-14.4114 2.76788 14.9614)
(-13.9649 4.21178 13.8941)
(-16.1456 4.25537 14.3021)
(-16.1068 1.55944 19.209)
(-14.4161 2.22337 15.7132)
(-18.7157 4.1348 11.7724)
(-22.8189 2.93989 15.4936)
(-16.5793 3.30096 17.1773)
(-15.9854 4.44752 15.2824)
(-19.1736 4.2968 15.2332)
(-17.1494 4.96822 13.6784)
(-29.6163 22.6937 9.45846)
(-26.2158 18.24 20.5983)
(-28.8964 20.1012 20.3556)
(-37.2686 30.8234 12.4736)
(-32.7846 26.8043 12.9966)
(-28.5591 23.4397 16.1005)
(-34.6795 25.7938 13.0037)
(-31.1869 26.5263 18.9337)
(-24.2953 14.3658 29.7613)
(-18.1884 8.886 28.6116)
(-17.1413 9.62627 31.7753)
(-23.5951 15.3104 29.7116)
(-23.1999 15.8082 28.8754)
(-19.0415 11.512 28.8606)
(-21.3241 14.0754 29.0002)
(-17.7544 10.1384 30.7148)
(-27.2729 19.1637 27.3368)
(-20.7617 12.919 32.8346)
(-24.9952 14.933 36.461)
(-35.3511 23.265 35.077)
(-29.015 20.6984 29.4318)
(-25.6884 22.4545 30.9864)
(-32.1009 20.9731 32.882)
(-25.7739 20.2008 37.7366)
(-46.5357 39.0624 14.4825)
(-35.186 25.2048 26.127)
(-44.4554 31.689 26.6149)
(-65.0687 47.7044 20.8402)
(-51.9482 43.486 18.9358)
(-42.7101 35.9753 21.7705)
(-61.4662 43.2702 19.8114)
(-46.3144 36.0822 27.8352)
(-27.797 20.6209 23.6875)
(-30.3766 23.1779 21.265)
(-41.3725 33.4169 15.5143)
(-32.5691 23.7368 26.3931)
(-28.4163 19.9265 24.998)
(-33.192 28.01 20.4341)
(-29.9008 22.5904 23.6967)
(-34.6986 29.3579 18.5098)
(-23.9656 16.9631 24.3671)
(-26.9119 20.7263 27.6366)
(-19.9449 14.6814 28.9295)
(-27.0461 22.5694 23.6036)
(-24.3088 18.1874 26.5795)
(-25.6767 19.9478 28.5564)
(-22.6039 13.6868 26.7697)
(-23.7847 15.5664 28.4755)
(-32.1148 21.7811 23.7621)
(-43.4313 33.0826 14.6633)
(-33.0557 23.0772 26.9103)
(-39.8166 27.4258 25.5877)
(-35.0526 26.591 23.2359)
(-38.185 32.3692 23.0232)
(-37.7607 28.3458 24.2547)
(-40.1161 34.0258 23.9007)
(-27.36 22.1805 24.4605)
(-33.6922 24.8656 31.6611)
(-26.3414 20.7557 31.0075)
(-20.47 14.8335 34.6319)
(-30.0642 24.8049 26.8529)
(-32.6245 26.1503 26.6388)
(-23.8872 14.8169 29.0101)
(-27.0685 16.4526 30.997)
(-20.9711 15.3297 23.6774)
(-28.7429 16.5821 23.3496)
(-28.2228 19.5447 22.5469)
(-34.4636 21.0283 24.7295)
(-27.8331 17.5655 26.8924)
(-26.0504 16.5828 23.2979)
(-29.1829 20.3299 24.7262)
(-28.4199 19.5691 21.3613)
(-31.8534 17.54 15.0414)
(-34.6156 18.015 4.74578)
(-35.5623 22.0999 3.75692)
(-43.5105 25.0068 5.09155)
(-37.1017 20.3212 10.4345)
(-34.5413 18.7372 5.62387)
(-39.4802 23.3435 5.24625)
(-39.325 23.6364 4.3572)
(-31.0883 22.1431 16.3487)
(-33.9525 24.6279 4.14519)
(-30.8229 24.4764 5.23022)
(-38.0584 31.2125 6.29545)
(-33.9565 26.3103 9.33037)
(-30.5211 23.3464 5.64815)
(-34.3188 28.0787 6.82998)
(-33.7838 27.3566 5.62964)
(-49.4074 32.3228 21.9212)
(-53.6955 35.1128 6.34141)
(-48.2695 38.5846 7.3242)
(-61.2627 47.6634 11.5662)
(-59.8269 39.5651 16.1231)
(-50.8449 38.9645 8.41367)
(-55.8515 42.4128 11.027)
(-52.5598 42.5012 7.73529)
(-34.3086 20.2494 20.7381)
(-32.9802 22.8467 19.6088)
(-41.8584 25.3103 25.0564)
(-46.4033 27.2674 11.1022)
(-35.773 21.2054 18.2653)
(-34.2806 22.3786 19.8557)
(-40.9826 24.2873 17.5081)
(-37.641 25.3638 20.8361)
(-30.9142 18.6814 15.6908)
(-42.0585 27.3005 5.88224)
(-34.1336 22.0904 5.83886)
(-29.9806 21.1812 16.1193)
(-34.7834 21.9389 12.1441)
(-40.8156 25.6045 9.67358)
(-34.0437 20.4314 14.0108)
(-38.3569 25.0311 8.98623)
(-34.9415 25.0425 18.4417)
(-41.8535 29.7148 21.4513)
(-47.7051 31.8783 5.89365)
(-42.9931 35.1319 7.82181)
(-38.3231 26.9319 15.227)
(-40.9228 31.1268 18.71)
(-44.0247 31.7442 10.6802)
(-48.0553 35.2114 11.5015)
(-32.2478 23.721 13.3373)
(-41.2369 34.4232 6.06373)
(-46.6173 32.0304 4.95884)
(-37.5252 26.9582 4.44534)
(-36.3503 27.6581 8.19869)
(-39.1066 30.958 6.82559)
(-38.1671 27.5087 4.7362)
(-42.973 30.4482 4.29845)
(-36.1351 19.6632 5.89361)
(-33.9661 18.6653 16.0534)
(-38.3017 19.9374 18.8287)
(-45.6795 27.956 4.85208)
(-36.5613 20.8507 8.09481)
(-35.2517 17.4087 14.8898)
(-41.3041 22.5267 8.12672)
(-37.278 19.3223 17.3741)
(-29.2681 17.209 23.6347)
(-19.4521 14.1319 25.9008)
(-24.7043 15.6699 30.9289)
(-32.0562 21.2678 26.8203)
(-29.7261 15.9012 25.0252)
(-24.6056 14.0799 26.0664)
(-30.9425 18.3171 26.4211)
(-24.2197 14.52 26.4925)
(-34.1305 16.5805 31.4245)
(-27.7045 15.9582 37.6283)
(-30.5195 14.7044 43.7782)
(-44.6968 26.3397 40.0509)
(-35.4184 15.0938 32.2212)
(-30.526 13.4838 37.1791)
(-40.3378 19.3351 37.6492)
(-32.7445 15.5733 40.7948)
(-57.8827 38.8639 7.31999)
(-46.3722 32.5765 25.1142)
(-63.0357 40.0522 34.4493)
(-68.7131 47.1969 14.3949)
(-65.9011 44.6688 17.1163)
(-52.0619 34.4159 25.0326)
(-65.7552 48.2906 16.7939)
(-55.9813 36.3808 31.5514)
(-35.335 19.3998 17.194)
(-40.6002 21.0052 21.5242)
(-46.7553 31.2574 9.80843)
(-44.9497 26.6222 26.4746)
(-38.0104 21.7816 18.5542)
(-40.4038 21.1877 17.5346)
(-42.2233 25.7625 20.6401)
(-42.5845 25.1333 17.586)
(-31.4788 16.6051 21.0499)
(-36.3514 21.246 27.146)
(-28.8418 14.3568 30.441)
(-32.9871 15.9057 24.9183)
(-32.9702 17.6238 25.1612)
(-35.3979 16.9582 27.4621)
(-33.5522 17.7564 27.2459)
(-35.9301 17.379 30.1568)
(-42.2612 23.5139 20.5496)
(-50.4817 33.895 9.39417)
(-45.3741 28.204 25.8784)
(-54.8806 33.2777 31.6029)
(-49.1933 30.0263 22.273)
(-48.4499 27.4283 22.5116)
(-52.8858 30.4992 32.4906)
(-51.5041 29.3533 29.7017)
(-35.2552 18.6395 28.0906)
(-42.5645 24.0045 36.6783)
(-37.8646 21.3518 30.3059)
(-27.3862 13.4265 31.8038)
(-39.3097 18.4959 31.6929)
(-41.8357 22.8967 32.6605)
(-36.8697 18.447 29.9979)
(-39.8833 24.1117 33.6417)
(-13.0122 11.6986 27.687)
(-17.0895 13.2028 20.1711)
(-19.6489 16.6185 23.6258)
(-18.2226 14.7066 21.3704)
(-16.74 14.3579 22.7028)
(-18.1957 16.001 22.04)
(-17.9874 14.6443 22.9157)
(-19.4588 16.5577 19.6781)
(-19.7702 16.2731 13.575)
(-16.4725 15.0494 2.2831)
(-24.2604 23.504 5.1315)
(-19.7145 19.0674 4.1943)
(-21.7714 18.1576 6.63885)
(-23.8431 19.9543 5.04127)
(-23.384 21.0394 7.07042)
(-21.6811 20.7038 2.61932)
(-28.5827 25.0379 20.7461)
(-29.8719 29.4261 6.18122)
(-37.2796 38.2722 7.57404)
(-35.0097 32.863 7.71966)
(-30.7555 30.3691 9.56332)
(-32.3245 32.693 8.76345)
(-32.8474 33.8418 10.079)
(-34.9287 35.4314 6.82761)
(-22.4608 18.8221 15.3689)
(-22.4706 20.2975 3.95164)
(-32.2036 27.3613 6.68622)
(-27.6224 21.3019 5.08682)
(-26.9547 23.5953 7.36282)
(-29.4585 24.9169 6.37975)
(-27.2138 24.45 8.13937)
(-30.2952 25.3277 5.64852)
(-19.9336 14.3474 15.189)
(-22.6581 18.9348 17.9251)
(-21.0446 16.3074 16.6811)
(-23.7312 21.369 7.2457)
(-21.245 16.9874 15.2756)
(-21.8861 17.6744 19.4364)
(-20.9925 19.5268 14.0546)
(-20.1922 17.3627 14.8834)
(-20.4576 17.6697 14.0074)
(-26.505 23.3115 6.07897)
(-26.6192 24.6678 6.60197)
(-23.1489 21.0823 17.2606)
(-20.5798 18.1598 12.4617)
(-24.3062 22.5449 9.82462)
(-23.5327 20.7796 15.3014)
(-26.0307 23.5192 7.01331)
(-26.0907 20.8933 19.9662)
(-23.931 19.6261 18.9321)
(-25.3872 23.1395 7.63425)
(-30.7961 29.5978 9.94573)
(-25.9609 20.9685 18.7621)
(-23.1623 20.2761 13.5869)
(-29.1353 26.7751 7.76671)
(-26.3891 25.6132 10.2042)
(-24.9012 23.3561 15.3547)
(-32.776 30.6099 6.66759)
(-25.2626 22.9979 4.25488)
(-28.5089 27.1768 5.39613)
(-28.7916 28.9848 12.0089)
(-30.2656 27.9411 6.50243)
(-26.8898 26.4238 8.70008)
(-28.4985 26.5462 6.45502)
(-16.1415 12.5297 31.428)
(-17.5305 14.0591 31.9202)
(-14.3869 9.9909 30.933)
(-19.1789 15.5486 24.9542)
(-17.5576 13.0829 30.5161)
(-17.4662 13.5848 36.319)
(-18.1572 14.16 31.623)
(-14.2718 12.8189 29.1075)
(-16.3294 15.7751 30.9089)
(-16.1512 18.294 28.5647)
(-17.1873 14.8789 30.1739)
(-20.8207 17.5609 25.1804)
(-19.859 17.3447 32.4658)
(-15.5613 16.9858 32.9238)
(-19.0884 15.7744 28.3175)
(-17.1321 16.9633 32.4552)
(-12.9173 8.94189 30.058)
(-17.5087 12.9601 30.4392)
(-16.7188 11.3542 31.508)
(-21.4302 16.4815 26.7667)
(-16.1708 9.9292 26.5434)
(-17.9012 12.2009 32.7091)
(-15.2896 11.4228 27.3219)
(-16.6217 12.6722 32.1942)
(-23.2784 18.296 16.7265)
(-25.247 19.6597 17.9636)
(-24.3671 19.522 19.075)
(-26.9753 22.9636 9.18019)
(-24.7013 18.193 16.2008)
(-21.764 17.9544 17.8793)
(-21.7079 18.0035 16.2126)
(-24.2393 19.2497 17.2495)
(-18.8026 13.833 31.4062)
(-16.5438 11.1089 28.6966)
(-20.0076 14.9561 24.3474)
(-24.2039 17.6197 24.8821)
(-17.7017 14.4452 27.7174)
(-16.6089 13.2418 25.4052)
(-20.5601 16.6092 24.9347)
(-19.3862 16.1275 26.8358)
(-17.3563 14.7604 35.5408)
(-18.7509 17.0588 28.3152)
(-17.7454 14.3771 33.1801)
(-14.2199 11.5023 33.25)
(-14.6536 14.5869 30.8787)
(-16.2378 14.1864 26.126)
(-14.6957 11.1826 28.5804)
(-17.3472 11.9674 28.5676)
(-14.741 11.0741 29.1009)
(-22.1607 16.0974 23.8436)
(-22.6603 17.7296 23.6295)
(-19.1317 14.9835 23.5878)
(-17.7938 12.4054 22.7147)
(-18.069 14.5392 22.2944)
(-20.5977 14.1556 22.8682)
(-19.1683 15.3038 19.3414)
(-12.0675 11.524 28.8656)
(-21.3225 17.5224 28.1499)
(-20.2138 18.1444 27.409)
(-17.2678 14.6218 32.6186)
(-16.0047 12.7472 25.1144)
(-19.4991 15.9293 26.4831)
(-15.9662 13.2093 27.0864)
(-20.1468 16.9386 25.4845)