/*--------------------------------*- C++ -*----------------------------------*\
| =========                 |                                                 |
| \\      /  F ield         | OpenFOAM: The Open Source CFD Toolbox           |
|  \\    /   O peration     | Version:  2506                                  |
|   \\  /    A nd           | Website:  www.openfoam.com                      |
|    \\/     M anipulation  |                                                 |
\*---------------------------------------------------------------------------*/
FoamFile
{
    version     2.0;
    format      ascii;
    arch        "LSB;label=32;scalar=64";
    class       volScalarField;
    location    "500";
    object      p;
}
// * * * * * * * * * * * * * * * * * * * * * * * * * * * * * * * * * * * * * //

dimensions      [0 2 -2 0 0 0 0];

internalField   nonuniform List<scalar> 
57792
(
-0.0220049
-0.0224742
-0.018517
-0.0185568
-0.0208066
-0.0212865
-0.0194351
-0.0194103
-0.0235133
-0.0259789
-0.0158546
-0.016655
-0.0222354
-0.0221651
-0.0176694
-0.0183507
-0.0122109
-0.00909948
-0.00404484
-0.00660692
-0.00841306
-0.00749509
-0.00731037
-0.00559678
-0.0145375
-0.0127248
-0.00899437
-0.0107685
-0.0127235
-0.0123652
-0.0112919
-0.0101372
-0.0211536
-0.016276
-0.0166757
-0.015752
-0.0186347
-0.0176194
-0.0175297
-0.0165904
-0.0214699
-0.0150887
-0.0138091
-0.0165138
-0.0187693
-0.0162047
-0.0169005
-0.0140603
-0.0145323
-0.0152127
-0.0133248
-0.00935013
-0.0134258
-0.0147028
-0.0113513
-0.0129818
-0.0139301
-0.00805503
-0.0127482
-0.0105789
-0.0111521
-0.0100738
-0.0121472
-0.0114258
-0.0223022
-0.0211223
-0.0221058
-0.0191029
-0.0209119
-0.0217946
-0.0205383
-0.0211108
-0.0202984
-0.0194708
-0.0208426
-0.017055
-0.0192546
-0.0200624
-0.018857
-0.019743
-0.0236407
-0.0227407
-0.0271838
-0.0178166
-0.0222448
-0.0235581
-0.0213515
-0.0237305
-0.0154166
-0.014543
-0.0139377
-0.0117484
-0.0140352
-0.0145885
-0.0128791
-0.0135051
-0.0200841
-0.020995
-0.0174176
-0.0166257
-0.019659
-0.0201601
-0.0178018
-0.0183108
-0.0208612
-0.0173129
-0.0214469
-0.0220296
-0.0203566
-0.0194655
-0.0214631
-0.0204953
-0.020797
-0.0165729
-0.0158697
-0.0157975
-0.0181675
-0.0171742
-0.0167374
-0.0161358
-0.022047
-0.0166981
-0.0165486
-0.0214136
-0.0205654
-0.0178936
-0.0199678
-0.0178055
-0.00627111
-0.0122438
-0.013925
-0.00894734
-0.00789867
-0.0105427
-0.00925405
-0.0113058
-0.0187806
-0.0249127
-0.0198559
-0.0165021
-0.0198074
-0.021962
-0.0178163
-0.0198856
-0.0163286
-0.0177492
-0.0163642
-0.0147835
-0.01642
-0.0170653
-0.0154891
-0.0162639
-0.0104993
-0.0126461
-0.0129924
-0.0106357
-0.0109823
-0.0121962
-0.0110654
-0.012074
-0.0137612
-0.014304
-0.0100061
-0.0137694
-0.0134047
-0.0129881
-0.0128061
-0.0123456
-0.0164967
-0.0154852
-0.0184859
-0.0159993
-0.0160649
-0.0165102
-0.0168607
-0.0174922
-0.0136401
-0.0105538
-0.0134613
-0.0137417
-0.0133019
-0.0119341
-0.0140049
-0.0127611
-0.0153636
-0.014536
-0.0149267
-0.0175865
-0.0156251
-0.0150793
-0.016349
-0.0155656
-0.0025841
-0.00904378
-0.00273431
-0.00578345
-0.00537698
-0.00558708
-0.00490684
-0.00528957
-0.0177683
-0.0259287
-0.0178129
-0.0161715
-0.0182028
-0.0214412
-0.016388
-0.0185038
-0.00259737
-0.0101102
-0.00283445
-0.00659963
-0.00571348
-0.00584213
-0.00530807
-0.00603718
-0.00801205
-0.0116522
-0.00922741
-0.00957054
-0.00972498
-0.0098137
-0.00915187
-0.00997203
-0.0114255
-0.00523683
-0.00814203
-0.012259
-0.0106391
-0.00727656
-0.0107111
-0.00818134
-0.0128933
-0.013098
-0.0131073
-0.00554429
-0.0116613
-0.0139083
-0.00972214
-0.0120425
-0.00464056
-0.00762987
-0.0117463
-0.00770754
-0.00654108
-0.00810786
-0.00852305
-0.00956605
-0.00534355
-0.00874464
-0.0125521
-0.0121384
-0.00742009
-0.00852543
-0.0111558
-0.0110846
-0.0200474
-0.0207676
-0.021865
-0.0173221
-0.0196377
-0.0206408
-0.01926
-0.0205119
-0.0216694
-0.022977
-0.0240859
-0.0189776
-0.0216019
-0.0228473
-0.0209534
-0.0227151
-0.0246617
-0.0257137
-0.0289838
-0.0191168
-0.0234712
-0.0259878
-0.022839
-0.0254339
-0.0142047
-0.0152672
-0.0143195
-0.0116987
-0.0137569
-0.0146455
-0.0128353
-0.0137391
-0.0205459
-0.0215434
-0.0168008
-0.0177706
-0.019833
-0.0200961
-0.0181424
-0.0179189
-0.0217119
-0.0188501
-0.0240935
-0.0228621
-0.0216887
-0.0209542
-0.0227133
-0.0224438
-0.0211954
-0.0163318
-0.0169071
-0.0169511
-0.0183605
-0.0173793
-0.0174759
-0.0168717
-0.0227055
-0.0180888
-0.0182791
-0.0242603
-0.0221861
-0.0187596
-0.0218478
-0.0191456
-0.00130559
-0.00127076
-0.000782811
-0.0057147
-0.00226526
-0.00173382
-0.00268726
-0.0027974
-0.00138768
-0.00126853
-0.000884842
-0.00526737
-0.00166752
-0.00198698
-0.0040317
-0.00254686
-0.000773422
-0.000917038
-0.0007499
-0.0033931
-0.00188811
-0.00135603
-0.0019887
-0.00244259
-0.00755531
-0.00697253
-0.00607543
-0.00852124
-0.00779182
-0.00744801
-0.00784261
-0.00701962
-0.00252475
-0.0020675
-0.00577265
-0.00562305
-0.0035482
-0.00288829
-0.00514208
-0.0052
-0.0019479
-0.00569109
-0.00117504
-0.00151644
-0.00270922
-0.00351551
-0.00104798
-0.00150795
-0.00197274
-0.00591695
-0.00683333
-0.0052644
-0.00425841
-0.0053448
-0.00517873
-0.00604577
-0.00264241
-0.00478669
-0.00570977
-0.00237784
-0.00270026
-0.00470318
-0.00295386
-0.00437224
-0.00286926
-0.00263537
-0.00265419
-0.0105538
-0.00490248
-0.00263182
-0.00672344
-0.00498603
-0.00230009
-0.00210753
-0.00228156
-0.00836802
-0.00386386
-0.00202794
-0.00545483
-0.00375745
-0.00266367
-0.00254554
-0.0027872
-0.0108193
-0.00480606
-0.00256461
-0.00684533
-0.00511216
-0.014877
-0.0134787
-0.0151321
-0.0166342
-0.015634
-0.0143253
-0.0165865
-0.0158926
-0.00429327
-0.00491384
-0.011901
-0.0104989
-0.00596045
-0.00683035
-0.00941916
-0.0101367
-0.00228549
-0.00888327
-0.00229076
-0.00257932
-0.00425323
-0.00583593
-0.00254485
-0.00425095
-0.00674267
-0.0134245
-0.0119812
-0.0133981
-0.0107094
-0.0120737
-0.0119797
-0.0129706
-0.00497721
-0.0122743
-0.0105802
-0.00422787
-0.0066629
-0.0102202
-0.00593389
-0.00953725
-0.0036285
-0.00866229
-0.0116844
-0.00616779
-0.00536871
-0.00801036
-0.00678085
-0.00955757
-0.0165933
-0.0274772
-0.0256065
-0.0180898
-0.0199514
-0.0240884
-0.0193333
-0.0239677
-0.0187098
-0.0239822
-0.0228827
-0.0185627
-0.0199656
-0.0225813
-0.019723
-0.021801
-0.00881901
-0.0133019
-0.0145768
-0.0109043
-0.0105005
-0.0122788
-0.0115276
-0.0130017
-0.0114505
-0.0131883
-0.00861095
-0.0136693
-0.0117194
-0.0115268
-0.0114923
-0.0107216
-0.0148688
-0.0166681
-0.0234091
-0.0170884
-0.0162964
-0.0181155
-0.0183297
-0.0197281
-0.014566
-0.00965093
-0.0142271
-0.0154691
-0.0134715
-0.0116367
-0.0147961
-0.0133101
-0.0170843
-0.0173046
-0.0170028
-0.022727
-0.018512
-0.0173532
-0.019579
-0.0185511
-0.00248109
-0.00262915
-0.00891561
-0.00519304
-0.0031155
-0.00427128
-0.00554947
-0.0061988
-0.00302397
-0.00351638
-0.0113051
-0.00617497
-0.00386033
-0.00582788
-0.00673513
-0.0081146
-0.0137879
-0.0153696
-0.0166989
-0.0144212
-0.0144638
-0.0157469
-0.0147129
-0.0156689
-0.00761269
-0.00825176
-0.0121896
-0.00981051
-0.00829131
-0.00940015
-0.00996767
-0.010488
-0.00334112
-0.00966586
-0.00588235
-0.00636429
-0.00613735
-0.00726215
-0.00560997
-0.0070312
-0.00480862
-0.00793381
-0.0124421
-0.0108149
-0.00700231
-0.0082611
-0.0098258
-0.0106879
-0.0111124
-0.00791235
-0.00856225
-0.0124573
-0.0108104
-0.00851502
-0.0114848
-0.00956272
-0.011824
-0.0131421
-0.00955773
-0.0131669
-0.0128094
-0.0125615
-0.0120978
-0.0117821
-0.00810173
-0.0180915
-0.0153735
-0.0145301
-0.0123266
-0.0157577
-0.0132025
-0.016551
-0.0217364
-0.0218069
-0.0201496
-0.0224648
-0.0218325
-0.0217117
-0.0215878
-0.0215916
-0.0172382
-0.0184369
-0.0169422
-0.0186389
-0.0183086
-0.0179592
-0.0179031
-0.0176898
-0.0219355
-0.0242902
-0.0210913
-0.0272548
-0.02403
-0.0237861
-0.0241745
-0.023601
-0.0204504
-0.0171247
-0.0186417
-0.0227989
-0.0206
-0.0183539
-0.0226196
-0.020825
-0.0211843
-0.0223604
-0.0198339
-0.0185728
-0.02127
-0.0211162
-0.0187445
-0.0199369
-0.0171388
-0.0192909
-0.0225793
-0.0196081
-0.0183219
-0.0210014
-0.019831
-0.0217172
-0.0185974
-0.0198248
-0.0221051
-0.0197511
-0.0189235
-0.019818
-0.0196209
-0.0207232
-0.0224738
-0.0210457
-0.0189224
-0.0228522
-0.0228662
-0.0211735
-0.0219782
-0.0201744
-0.0161106
-0.00526805
-0.00432564
-0.0135916
-0.0134019
-0.00800982
-0.0118623
-0.00631813
-0.0119426
-0.00387855
-0.00361023
-0.00859853
-0.00815869
-0.00589783
-0.0073062
-0.00494565
-0.0244614
-0.0210278
-0.015677
-0.0275949
-0.0251496
-0.0212086
-0.023981
-0.0197127
-0.0204165
-0.0172589
-0.0238859
-0.0194663
-0.0192609
-0.0192149
-0.021155
-0.0210038
-0.0170477
-0.0153547
-0.00641905
-0.0148024
-0.0156257
-0.0139802
-0.0140745
-0.009998
-0.0161415
-0.0226301
-0.0181065
-0.0139617
-0.0168865
-0.0199417
-0.0147751
-0.0182694
-0.0137359
-0.0109824
-0.0137064
-0.00499446
-0.0113892
-0.0124202
-0.00887018
-0.0109419
-0.714774
-0.183246
-0.258991
-0.922339
-0.215455
0.119901
-0.461739
-0.132369
-0.0881978
-0.0143414
-0.0607998
-0.0608654
-0.0550629
-0.0233291
-0.0824121
-0.0536938
-0.135529
-0.120172
-0.061855
-0.0859458
-0.0288904
0.0119071
-0.165079
-0.0222196
-0.823514
-0.130114
-0.124535
-0.460048
-0.157306
0.112481
-0.380204
-0.0910554
-0.108213
-0.0942816
-0.159171
-0.118178
-0.176704
-0.0814777
-0.167021
0.149179
-0.0506325
0.00884363
-0.00670682
-0.0491041
-0.124513
-0.0800321
-0.172522
-0.0835736
-0.215312
-0.383665
-0.218427
-0.202982
-0.154253
-0.0186225
-0.0311699
-0.0419112
-0.0812746
-0.053742
-0.109353
-0.0902033
-0.0274391
0.0010581
-0.159837
-0.142617
-0.529838
-0.205184
-0.202507
-0.830744
-0.205222
0.0803195
-0.373987
-0.13783
-0.0885625
-0.0129672
-0.0603153
-0.0698318
-0.0536332
-0.00964756
-0.0824719
-0.0453424
-0.133258
-0.127041
-0.0765167
-0.0896013
-0.0824144
-0.0705584
-0.164176
-0.0748825
-0.713133
-0.122267
-0.129683
-0.426354
-0.171104
0.0549762
-0.329517
-0.0987184
-0.102676
-0.130738
-0.18761
-0.116595
-0.169051
-0.13545
-0.137392
0.0712065
-0.0434762
-0.0374556
-0.0330983
-0.114187
-0.0917815
-0.0957257
-0.147242
-0.0911876
-0.206408
-0.350832
-0.181378
-0.193987
-0.158535
-0.0539528
-0.0691309
-0.0723806
-0.109362
-0.0780547
-0.102905
-0.0812396
-0.0809099
-0.0536333
-0.127784
-0.14945
-0.55873
-0.125125
-0.45802
-0.200904
-0.142987
0.0641848
-0.281484
-0.0675343
-0.0264982
-0.000551623
-0.0136663
0.0136234
0.00262208
0.0132369
0.0035718
0.000231314
-0.33718
-0.0726046
-0.247317
-0.124639
-0.118502
0.00651582
-0.179435
-0.0855303
-0.08699
0.0122078
-0.0822041
-0.045143
-0.143296
-0.00178288
-0.0885133
-0.103625
-0.0317802
-0.129243
-0.113703
0.00722942
-0.0440085
-0.100085
-0.0229314
-0.052965
0.0356108
0.000470888
0.0260182
0.0363132
-0.00947317
-0.0182052
-0.114999
-0.00972068
-0.214887
-0.137938
-0.000629319
-0.133795
-0.14931
-0.078654
-0.108407
-0.0432953
-0.0888973
-0.0802247
-0.00388741
-0.0196345
-0.0860071
-0.0485163
-0.0285016
-0.0190928
-0.335869
-0.589748
-0.112292
-0.15005
-0.302951
-0.169617
-0.105325
0.0760066
-0.649486
-0.937445
-0.0791955
-0.265991
-0.442788
-0.284755
-0.147126
0.0011118
-0.0544985
-0.0481982
-0.0138408
-0.04858
-0.0573601
-0.0421696
-0.0378972
-0.0410014
-0.101902
-0.192648
-0.115197
-0.0778272
-0.162146
-0.0862045
-0.0520824
-0.0643831
-0.333128
-0.179504
-0.191654
-0.310339
-0.0738016
-0.0688769
-0.18908
-0.0757365
-0.147951
-0.146557
-0.156088
-0.121698
0.0116477
-0.169982
-0.16019
-0.215985
-0.109193
-0.0838056
-0.139813
-0.113159
-0.148332
-0.0483146
-0.121362
-0.0617885
-0.034043
-0.0824948
-0.118648
-0.0590322
-0.0941612
-0.104493
-0.145514
-0.186448
-0.412233
-0.101806
-0.0951509
-0.509838
-0.174426
0.164437
-0.355745
-0.262978
-0.0131342
0.000512577
0.0219878
-0.0156867
0.00311923
0.0448795
-0.00402031
-0.00344728
-0.0403254
0.00136591
-0.0854923
-0.183003
-0.0382879
0.033298
-0.019603
-0.00926496
-0.356482
-0.0733224
-0.244069
-0.241611
-0.14134
-0.054658
-0.13776
-0.118331
-0.0141561
-0.117508
-0.138007
-0.0278749
-0.0333934
-0.0595529
-0.121307
0.0924055
0.0873167
0.00351307
0.0299723
-0.0219817
-0.0148999
0.00698809
0.0314258
-0.00249279
-0.0660834
-0.24836
-0.0208586
-0.029087
-0.132823
-0.170838
-0.12726
-0.121429
-0.0768679
-0.0805167
-0.0194723
-0.00179861
-0.039059
-0.118839
-0.0257396
0.000825355
-0.237283
-0.307881
-0.145016
-0.0925963
-0.116709
-0.180541
0.0327475
-0.145475
-0.324026
-0.3936
-0.247061
-0.0511855
-0.171859
-0.204667
-0.0116417
-0.0977226
-0.123851
-0.150659
-0.103364
-0.001969
-0.0712629
-0.0591559
0.0111344
-0.0144111
0.00469093
0.021173
0.0198045
0.0175113
-0.00352145
0.0156648
0.0150369
0.0180975
-0.159698
-0.104829
-0.0453831
-0.0345527
-0.00241433
-0.107995
-0.0649482
-0.0111983
-0.243597
-0.0162271
-0.117132
-0.105947
-0.17454
-0.14829
-0.203981
-0.128242
-0.0488072
-0.0155457
-0.00698455
0.00282509
0.0213588
-0.0162497
-0.0128716
-0.0128759
-0.0912282
0.00676908
0.00904517
-0.0802984
-0.0649843
-0.00780297
-0.110009
-0.00655756
-0.014351
-0.0134855
-0.0155133
-0.013424
-0.0139619
-0.0143046
-0.0141283
-0.0145554
-0.0105018
-0.00430878
-0.0117151
-0.00721115
-0.00875888
-0.00844999
-0.00931593
-0.00926631
-0.0169788
-0.0164396
-0.0182706
-0.0159732
-0.0167859
-0.0174602
-0.0169917
-0.0176621
-0.012303
-0.00918398
-0.0132508
-0.0107506
-0.0114599
-0.011434
-0.0119322
-0.0118618
-0.012528
-0.0153601
-0.0128945
-0.010376
-0.0128497
-0.0139765
-0.0117242
-0.0129072
-0.0126729
-0.0101505
-0.0146181
-0.0157963
-0.0132602
-0.0118853
-0.0147054
-0.0141446
-0.0155036
-0.0131492
-0.0109198
-0.014478
-0.0146624
-0.0132687
-0.0140917
-0.0125894
-0.0159818
-0.0146796
-0.0106531
-0.0149575
-0.0156399
-0.0143877
-0.0144855
-0.0127633
-0.0184095
-0.0169884
-0.0166108
-0.0161902
-0.0174556
-0.0173233
-0.0167661
-0.0165451
-0.0155277
-0.0143727
-0.0135409
-0.0134984
-0.01481
-0.0147122
-0.0142155
-0.0139906
-0.0122951
-0.010797
-0.00502663
-0.0078985
-0.0108298
-0.01022
-0.00795207
-0.00698917
-0.0136307
-0.0122754
-0.00953064
-0.010871
-0.012338
-0.0118797
-0.0109512
-0.0104945
-0.0159963
-0.0152938
-0.0149865
-0.0138609
-0.0153463
-0.0155484
-0.0146989
-0.0146551
-0.0158318
-0.0135661
-0.0135051
-0.014989
-0.0150871
-0.0143677
-0.0150066
-0.0137979
-0.0136344
-0.0139083
-0.0127916
-0.00962699
-0.0133041
-0.0136033
-0.0117405
-0.0125877
-0.0130656
-0.0089677
-0.0124016
-0.0118115
-0.0120246
-0.0111807
-0.0122732
-0.0115718
-0.0102766
-0.018478
-0.0188559
-0.0160971
-0.0144963
-0.0169215
-0.0155703
-0.0179321
-0.0212
-0.0216094
-0.021735
-0.0201433
-0.0217546
-0.0219398
-0.0209461
-0.0213556
-0.0221961
-0.021913
-0.0224529
-0.0206069
-0.0216519
-0.0220239
-0.0212216
-0.0217179
-0.0174846
-0.0184005
-0.0187387
-0.0171278
-0.0178688
-0.018561
-0.0177038
-0.0180089
-0.020638
-0.0199833
-0.0175818
-0.0195595
-0.02004
-0.0197594
-0.0187801
-0.0190132
-0.0214597
-0.0201537
-0.0218725
-0.0213483
-0.0209411
-0.0212472
-0.0216413
-0.0214489
-0.0199286
-0.0178616
-0.0191963
-0.0193231
-0.0197568
-0.0188965
-0.0195809
-0.0191393
-0.0213858
-0.0198692
-0.0196451
-0.021428
-0.0209738
-0.0202198
-0.0208908
-0.0201858
-0.00312246
-0.00919004
-0.00618333
-0.00650874
-0.00593984
-0.007462
-0.00540556
-0.00708503
-0.0123015
-0.0136252
-0.0127266
-0.0128649
-0.0132861
-0.0135386
-0.0128849
-0.0131989
-0.00832965
-0.0115602
-0.0100186
-0.00994332
-0.00994977
-0.0107756
-0.00942339
-0.0103246
-0.0083224
-0.0117475
-0.00995845
-0.0100591
-0.0097701
-0.0104684
-0.00945938
-0.010266
-0.0108222
-0.0081403
-0.00827982
-0.0114621
-0.0105974
-0.00876325
-0.0112823
-0.00931975
-0.0117333
-0.0121835
-0.0122943
-0.00932845
-0.0112645
-0.0122375
-0.0104224
-0.0117715
-0.00762503
-0.00780227
-0.011198
-0.00924419
-0.00833061
-0.00901444
-0.00960633
-0.0100202
-0.00895266
-0.0101573
-0.0119996
-0.0119035
-0.0105385
-0.0103994
-0.0112434
-0.011439
-0.0222373
-0.0210367
-0.0201313
-0.0183921
-0.021196
-0.021198
-0.0198826
-0.0199408
-0.0200447
-0.0192015
-0.0181086
-0.0169646
-0.0190872
-0.0191302
-0.0178576
-0.0180088
-0.0181833
-0.017156
-0.0165963
-0.0153037
-0.0171337
-0.0171864
-0.0162104
-0.0162811
-0.0150537
-0.0142229
-0.0135425
-0.0118926
-0.0140094
-0.0142512
-0.0130227
-0.0134003
-0.0199387
-0.018955
-0.0175766
-0.0165897
-0.0188035
-0.0187211
-0.0177154
-0.0177415
-0.0199845
-0.01677
-0.0179523
-0.0189993
-0.0188604
-0.0177803
-0.0189583
-0.0178928
-0.0179305
-0.0163116
-0.015473
-0.0148339
-0.016736
-0.0165404
-0.015762
-0.0154515
-0.017965
-0.0150631
-0.0157644
-0.0169286
-0.0169633
-0.0158912
-0.0168085
-0.0158693
-0.00330196
-0.00313983
-0.00368893
-0.0144417
-0.006799
-0.00339859
-0.00957631
-0.00664289
-0.0028286
-0.00224726
-0.00271403
-0.0108111
-0.00518718
-0.00253178
-0.0073001
-0.00477531
-0.00313942
-0.00290647
-0.00312548
-0.0149249
-0.00583791
-0.00298788
-0.00797614
-0.0056312
-0.0202504
-0.0181825
-0.0207088
-0.0222054
-0.0206247
-0.0193598
-0.0217401
-0.0210728
-0.00578815
-0.00635145
-0.0162197
-0.0140355
-0.00803764
-0.0089445
-0.0126949
-0.0137672
-0.00303133
-0.0116174
-0.00265068
-0.00327583
-0.00560573
-0.00783217
-0.00311116
-0.00531832
-0.00881548
-0.0179117
-0.016058
-0.0181786
-0.0143473
-0.0163819
-0.0166978
-0.0180282
-0.00620988
-0.0172351
-0.014349
-0.00484822
-0.00837776
-0.0142375
-0.00725082
-0.0130587
-0.0165235
-0.0169178
-0.0180754
-0.0154706
-0.0162515
-0.0168205
-0.0162615
-0.0168289
-0.0179024
-0.0190464
-0.0196787
-0.0167151
-0.0177404
-0.0187904
-0.0176416
-0.0187258
-0.0198017
-0.0205002
-0.0216831
-0.0190768
-0.0196525
-0.0204657
-0.0197187
-0.0204529
-0.0137375
-0.0143327
-0.0154785
-0.0121304
-0.0132499
-0.0142173
-0.0129877
-0.0138924
-0.0167514
-0.0178119
-0.0150185
-0.0156231
-0.0166929
-0.016658
-0.0157888
-0.0157214
-0.0176489
-0.0165667
-0.0196042
-0.0186414
-0.0175639
-0.0174856
-0.018676
-0.0185908
-0.017793
-0.0149099
-0.015399
-0.0163718
-0.0166066
-0.0156316
-0.0164883
-0.015326
-0.0186288
-0.0171974
-0.0164305
-0.0196166
-0.0184595
-0.0174017
-0.0185528
-0.0174244
-0.00437267
-0.0126634
-0.00412516
-0.010406
-0.00838747
-0.00912673
-0.00748011
-0.00826841
-0.0164192
-0.0177319
-0.0165048
-0.0191268
-0.0176977
-0.0177342
-0.0177293
-0.0178298
-0.00412077
-0.0124066
-0.00438262
-0.0110709
-0.00820627
-0.00905945
-0.00712548
-0.00824467
-0.0179557
-0.0217039
-0.0194298
-0.0261418
-0.0226348
-0.0216572
-0.0225774
-0.0225325
-0.0150341
-0.00799771
-0.0154522
-0.0194661
-0.0150163
-0.0110435
-0.0171614
-0.0157618
-0.0152014
-0.0192942
-0.0151927
-0.00914941
-0.0151001
-0.0166809
-0.0127316
-0.0150502
-0.00680143
-0.0149278
-0.0194487
-0.0144557
-0.0108027
-0.0154665
-0.0157138
-0.017601
-0.00822089
-0.0152833
-0.019654
-0.0151225
-0.0108273
-0.0152695
-0.0150046
-0.0175121
-0.0165901
-0.0150138
-0.0136439
-0.0143594
-0.0158399
-0.0154904
-0.01486
-0.0140684
-0.0107808
-0.00359484
-0.00327455
-0.00684471
-0.00812101
-0.00572682
-0.00726853
-0.00423246
-0.00891089
-0.00293678
-0.002654
-0.00518601
-0.00609744
-0.00431634
-0.0054755
-0.00329071
-0.0121434
-0.00821599
-0.00751065
-0.00961081
-0.0108537
-0.00928788
-0.00993185
-0.00812117
-0.0131338
-0.0118668
-0.0135016
-0.0100276
-0.0120927
-0.0127367
-0.011534
-0.0123466
-0.0121789
-0.00788447
-0.00479553
-0.0107024
-0.0102815
-0.00844622
-0.00968602
-0.00712024
-0.0110549
-0.012473
-0.00868175
-0.00799128
-0.0105458
-0.0110535
-0.00874483
-0.00963387
-0.0094946
-0.00588783
-0.00659365
-0.00366434
-0.00726104
-0.00698806
-0.00610478
-0.00581072
-0.00547057
-0.0126516
-0.013431
-0.0122179
-0.00942514
-0.0108638
-0.0113341
-0.0130818
-0.0216427
-0.0288331
-0.0225235
-0.0277866
-0.0246051
-0.0243292
-0.0242466
-0.0256372
-0.0170555
-0.0198004
-0.0181285
-0.0198928
-0.0190744
-0.0185705
-0.0191189
-0.0188661
-0.0212521
-0.0279146
-0.0226481
-0.0287383
-0.0256913
-0.024262
-0.0249334
-0.0255381
-0.0171607
-0.0167201
-0.0181932
-0.0249169
-0.0184694
-0.016979
-0.020559
-0.0182288
-0.0183165
-0.0240133
-0.0206573
-0.0169311
-0.0198913
-0.0216197
-0.0187321
-0.0210902
-0.017241
-0.0191254
-0.0246287
-0.0215515
-0.0184388
-0.0197114
-0.0217737
-0.0218891
-0.017681
-0.0212534
-0.0252763
-0.0209617
-0.0198131
-0.0208109
-0.0210408
-0.0221681
-0.00516222
-0.0174697
-0.00381115
-0.012124
-0.0106077
-0.0115114
-0.00830399
-0.00918575
-0.0220476
-0.0230811
-0.0185734
-0.0248628
-0.0234245
-0.0226883
-0.0227282
-0.0222592
-0.00360508
-0.0111993
-0.00294385
-0.00869377
-0.00693263
-0.00757595
-0.00529478
-0.00640239
-0.0196614
-0.0264252
-0.0168307
-0.0298005
-0.0244606
-0.0235336
-0.023764
-0.0234588
-0.019844
-0.00841693
-0.0175143
-0.0238325
-0.0188982
-0.0129673
-0.0225749
-0.0175213
-0.019736
-0.0232055
-0.0167099
-0.00919407
-0.0186557
-0.0206392
-0.013813
-0.0168539
-0.00671094
-0.0160749
-0.0225796
-0.0125203
-0.00964137
-0.0166125
-0.014369
-0.0190719
-0.00791319
-0.0132848
-0.0222475
-0.015913
-0.0112984
-0.0144292
-0.0156154
-0.0186804
-0.0164549
-0.0137702
-0.0144418
-0.0142443
-0.0152524
-0.014489
-0.0148352
-0.0141294
-0.00890346
-0.00298418
-0.00581022
-0.00559935
-0.00653155
-0.00526571
-0.00639097
-0.00517417
-0.012265
-0.00797271
-0.0100961
-0.00975592
-0.0105499
-0.00971823
-0.0103534
-0.00944816
-0.0122326
-0.00784928
-0.00975205
-0.010009
-0.0108281
-0.00950188
-0.0105576
-0.00926938
-0.0116541
-0.0128993
-0.0131063
-0.00887764
-0.0114054
-0.0126375
-0.0107128
-0.0120292
-0.0107377
-0.00753541
-0.00744374
-0.0121214
-0.0104011
-0.00826609
-0.0109012
-0.00879071
-0.0125762
-0.0127267
-0.00861248
-0.0103292
-0.011983
-0.0117106
-0.0105923
-0.0101369
-0.0118758
-0.00917409
-0.00720403
-0.00727892
-0.0100503
-0.00940058
-0.00852097
-0.00775604
-0.00619398
-0.0140725
-0.0154768
-0.00970528
-0.00911235
-0.0132593
-0.011258
-0.012829
-0.0217977
-0.0266559
-0.0239274
-0.0178977
-0.0221936
-0.0248247
-0.0204749
-0.0231271
-0.0195462
-0.0216919
-0.0199595
-0.0170016
-0.0191499
-0.0207723
-0.0182885
-0.0193836
-0.0105949
-0.0130362
-0.0139589
-0.011042
-0.0111032
-0.0125349
-0.0116992
-0.0126518
-0.0159204
-0.0166265
-0.0106843
-0.0148512
-0.0150751
-0.0144678
-0.013368
-0.0127438
-0.0204665
-0.0169822
-0.0223923
-0.0195566
-0.019069
-0.0192779
-0.0208907
-0.0209144
-0.0169523
-0.0117507
-0.0142902
-0.0153583
-0.0146971
-0.0128842
-0.0151021
-0.0138883
-0.0182655
-0.016119
-0.016308
-0.021083
-0.0183114
-0.0165146
-0.0190223
-0.0173554
-0.00194678
-0.00236164
-0.00824983
-0.00217425
-0.00191179
-0.00352657
-0.00343635
-0.00489058
-0.00267438
-0.00262791
-0.010814
-0.00272915
-0.00229521
-0.00432386
-0.00460435
-0.00672813
-0.0136371
-0.0153276
-0.0170936
-0.0158493
-0.0143469
-0.0158825
-0.0158819
-0.0170807
-0.00264092
-0.00277468
-0.0107577
-0.00294964
-0.00238283
-0.00468652
-0.00451844
-0.00699598
-0.00218185
-0.00865552
-0.00223846
-0.00235762
-0.00394507
-0.00540808
-0.00253653
-0.00395432
-0.00387243
-0.0045924
-0.011706
-0.0102209
-0.00570464
-0.00674478
-0.00920203
-0.00982915
-0.0102429
-0.00401271
-0.00462983
-0.0119857
-0.00959984
-0.00560792
-0.00986517
-0.00668331
-0.0115852
-0.013576
-0.00706349
-0.0135862
-0.0127323
-0.0119069
-0.0117183
-0.0108163
-0.00841715
-0.0192395
-0.0196863
-0.0171136
-0.0126221
-0.0181475
-0.0167401
-0.0194575
-0.022882
-0.0229941
-0.0226265
-0.0241836
-0.0225499
-0.0228592
-0.0232074
-0.023304
-0.0230808
-0.0225527
-0.0226634
-0.0245868
-0.0229584
-0.0227875
-0.023719
-0.0231773
-0.0262139
-0.0268004
-0.0278047
-0.0320554
-0.0252643
-0.0274078
-0.0302778
-0.0288537
-0.0204127
-0.0212516
-0.019368
-0.0239256
-0.0230598
-0.021374
-0.0247406
-0.0238118
-0.0225485
-0.0242899
-0.0226317
-0.0229366
-0.0234259
-0.0231724
-0.0228148
-0.0228137
-0.0233908
-0.0245244
-0.0251903
-0.0261607
-0.0246235
-0.0253318
-0.0248173
-0.0253188
-0.0238011
-0.0258049
-0.0251342
-0.0230732
-0.0233856
-0.0248625
-0.0232849
-0.0241818
-0.00517695
-0.0168795
-0.00523597
-0.0145712
-0.0115854
-0.0124327
-0.0100628
-0.0112041
-0.0219488
-0.023371
-0.0225727
-0.0249129
-0.023227
-0.0231326
-0.0235736
-0.023208
-0.00454249
-0.0176446
-0.00537185
-0.0129474
-0.010175
-0.0112401
-0.00890531
-0.0101933
-0.0238199
-0.027528
-0.0228967
-0.0317015
-0.0290507
-0.0277425
-0.0291121
-0.0278834
-0.0205196
-0.0108335
-0.0206606
-0.0254764
-0.020198
-0.0151057
-0.0231775
-0.020615
-0.0205694
-0.0250747
-0.0207831
-0.0119036
-0.0202666
-0.0226549
-0.0171115
-0.0202559
-0.00926227
-0.0196652
-0.025436
-0.0186861
-0.0135773
-0.020036
-0.0196991
-0.0228966
-0.0105484
-0.0191684
-0.0253503
-0.0206021
-0.0145833
-0.0198688
-0.0200437
-0.0230629
-0.00332426
-0.0111169
-0.00320954
-0.00630342
-0.00625964
-0.00730357
-0.00486553
-0.00575564
-0.0154957
-0.0170348
-0.0135888
-0.0146481
-0.0156193
-0.0158583
-0.0143511
-0.0147243
-0.00272384
-0.00843987
-0.00253705
-0.00511952
-0.00480002
-0.00549078
-0.00393626
-0.0045865
-0.00835741
-0.0121531
-0.00757891
-0.00975799
-0.00980418
-0.0102725
-0.00879815
-0.00935638
-0.0129483
-0.00531149
-0.00855364
-0.0126905
-0.0112718
-0.00789882
-0.0118963
-0.00938088
-0.0134632
-0.0130212
-0.0115418
-0.00616087
-0.0119585
-0.0128312
-0.00956667
-0.0110347
-0.00422237
-0.00712512
-0.011556
-0.00644247
-0.00572319
-0.00806396
-0.00739425
-0.00933255
-0.00506227
-0.00708997
-0.0120026
-0.0103348
-0.00700494
-0.0081379
-0.00968072
-0.0104673
-0.00376643
-0.00681247
-0.00954832
-0.00665638
-0.00490836
-0.0067558
-0.00648931
-0.0078465
-0.00869619
-0.00969084
-0.0116259
-0.00961266
-0.0088581
-0.00980953
-0.00965039
-0.0106304
-0.0127588
-0.0130481
-0.0139498
-0.0130696
-0.0128786
-0.0133253
-0.0132702
-0.0136563
-0.00831259
-0.00962017
-0.0116148
-0.00976288
-0.00876236
-0.0096992
-0.00985628
-0.0106874
-0.00732803
-0.0101495
-0.00723621
-0.00864946
-0.00854066
-0.00873162
-0.00843616
-0.00844563
-0.00866093
-0.00956714
-0.0118841
-0.0111109
-0.00968741
-0.00992438
-0.0108762
-0.0110753
-0.0109956
-0.0083519
-0.00962602
-0.0116955
-0.0109082
-0.00962512
-0.0109781
-0.00988766
-0.0117916
-0.0124084
-0.0105625
-0.0124061
-0.0119783
-0.0116451
-0.0116673
-0.011487
-0.00758043
-0.0155489
-0.0186434
-0.0167628
-0.0123804
-0.0150222
-0.0157255
-0.0183439
-0.0236494
-0.031365
-0.0253695
-0.0314162
-0.0309479
-0.0291005
-0.0290147
-0.0282893
-0.0223219
-0.0236434
-0.0230222
-0.0250629
-0.0241464
-0.0235744
-0.0240153
-0.0233739
-0.0262586
-0.033268
-0.0285097
-0.0344267
-0.0322888
-0.0307163
-0.0314614
-0.0312271
-0.0212461
-0.0220661
-0.022313
-0.0305443
-0.0225973
-0.0214971
-0.0246263
-0.0227515
-0.0220102
-0.0291861
-0.0253038
-0.0220755
-0.0240304
-0.0270487
-0.0226544
-0.0262211
-0.0227206
-0.0238105
-0.0300225
-0.0266386
-0.0246785
-0.0255966
-0.0272594
-0.0284967
-0.0228438
-0.0257951
-0.0297189
-0.024918
-0.0250659
-0.0262883
-0.0255963
-0.0271129
-0.00125027
-0.00085708
-0.00109094
-0.0042708
-0.00203652
-0.00147152
-0.00272423
-0.00232238
-0.0011102
-0.0013
-0.00123454
-0.00519485
-0.00298563
-0.0023468
-0.00421149
-0.00333685
-0.00114464
-0.000885188
-0.00114117
-0.00389782
-0.00179305
-0.00134466
-0.00293316
-0.0024656
-0.00682994
-0.00736746
-0.00672867
-0.0086787
-0.00750254
-0.00683568
-0.00831959
-0.00788851
-0.00218135
-0.00177596
-0.00529055
-0.00626086
-0.00318282
-0.00260668
-0.00508756
-0.00493815
-0.00185764
-0.00520514
-0.00199816
-0.00155236
-0.00252317
-0.00275215
-0.00137362
-0.00177762
-0.00266982
-0.00563825
-0.0073722
-0.00640776
-0.00421778
-0.00499752
-0.00520697
-0.00572616
-0.00226405
-0.0057948
-0.0068346
-0.00269531
-0.00254296
-0.00460078
-0.00338574
-0.00495525
-0.00129446
-0.00132598
-0.000621427
-0.00806184
-0.00320815
-0.00166272
-0.00427867
-0.00266905
-0.00142716
-0.00146845
-0.00234826
-0.00820768
-0.00224708
-0.00109338
-0.00394426
-0.00226145
-0.000768978
-0.00226786
-0.00160491
-0.00557998
-0.00161766
-0.000912369
-0.00234131
-0.00205464
-0.0152327
-0.0173822
-0.0122951
-0.0222494
-0.0174682
-0.0155426
-0.017763
-0.01673
-0.00229351
-0.00238004
-0.00976064
-0.00942484
-0.00444473
-0.0041505
-0.00840429
-0.00805968
-0.00107974
-0.00684965
-0.000901688
-0.00120908
-0.00254072
-0.00394619
-0.00156471
-0.00134238
-0.0033252
-0.0114176
-0.0107228
-0.00865061
-0.00515676
-0.0094322
-0.00827566
-0.0108175
-0.00234735
-0.00780125
-0.00824984
-0.00204264
-0.00353122
-0.00628109
-0.00329611
-0.00824206
-0.00375632
-0.00309405
-0.0111081
-0.00659507
-0.00409906
-0.00496842
-0.00681331
-0.00792026
-0.00262816
-0.00221087
-0.00840296
-0.00516903
-0.00312803
-0.00388346
-0.00535235
-0.00611021
-0.0152803
-0.013581
-0.0168912
-0.0145731
-0.0148982
-0.0151752
-0.0152703
-0.0154537
-0.00826154
-0.00749843
-0.012228
-0.00970426
-0.00836563
-0.00874939
-0.00986025
-0.0103378
-0.003628
-0.0108775
-0.00671718
-0.00609056
-0.00595112
-0.00787407
-0.0057374
-0.00719479
-0.00433635
-0.00654279
-0.0101703
-0.0114786
-0.00690834
-0.00693313
-0.00936126
-0.00959505
-0.0122756
-0.00856456
-0.00779952
-0.0125452
-0.0116357
-0.00927913
-0.0114744
-0.00923446
-0.012924
-0.0128934
-0.00836357
-0.0115314
-0.0125099
-0.0118357
-0.0109324
-0.0104452
-0.00196754
-0.00844954
-0.00251253
-0.00533788
-0.00447905
-0.00479877
-0.00455675
-0.00472829
-0.0162845
-0.025246
-0.0195859
-0.0165628
-0.0191451
-0.0221125
-0.0177497
-0.0205779
-0.00295042
-0.0106605
-0.00297848
-0.00750446
-0.00581571
-0.00684367
-0.00521137
-0.00572965
-0.00745359
-0.0116918
-0.00918938
-0.00977527
-0.00918178
-0.0104967
-0.00870296
-0.0100084
-0.0107347
-0.00540903
-0.00723291
-0.0120512
-0.0103656
-0.00657169
-0.0103223
-0.00795855
-0.0114196
-0.0138925
-0.0138262
-0.00546332
-0.0110471
-0.0136576
-0.00889805
-0.012024
-0.00492513
-0.00699373
-0.0114127
-0.00756295
-0.00629728
-0.00768856
-0.00803099
-0.00916401
-0.00526647
-0.0089394
-0.012845
-0.0124231
-0.00731503
-0.00948743
-0.0115588
-0.0114368
-0.00660027
-0.0191617
-0.0141971
-0.015103
-0.0116708
-0.0146944
-0.0127598
-0.0156859
-0.0237371
-0.0229941
-0.024597
-0.0250784
-0.0232702
-0.0232064
-0.0243105
-0.0238581
-0.023188
-0.0275643
-0.0326582
-0.0310962
-0.0278546
-0.0294886
-0.0297921
-0.031554
-0.0256294
-0.0288438
-0.0310215
-0.0335328
-0.0286482
-0.0301452
-0.0314724
-0.0321745
-0.0211021
-0.0203202
-0.0200683
-0.0260214
-0.0225354
-0.0209851
-0.0242533
-0.0231207
-0.0226969
-0.0262571
-0.0257469
-0.0218957
-0.0236365
-0.0247489
-0.024107
-0.0249132
-0.0211775
-0.0216365
-0.0272637
-0.0302497
-0.0242047
-0.0251663
-0.0283969
-0.0283808
-0.0234273
-0.0312199
-0.0273563
-0.0266239
-0.0276273