/*--------------------------------*- C++ -*----------------------------------*\
| =========                 |                                                 |
| \\      /  F ield         | OpenFOAM: The Open Source CFD Toolbox           |
|  \\    /   O peration     | Version:  2506                                  |
|   \\  /    A nd           | Website:  www.openfoam.com                      |
|    \\/     M anipulation  |                                                 |
\*---------------------------------------------------------------------------*/
FoamFile
{
    version     2.0;
    format      ascii;
    arch        "LSB;label=32;scalar=64";
    class       volVectorField;
    location    "500";
    object      U;
}
// * * * * * * * * * * * * * * * * * * * * * * * * * * * * * * * * * * * * * //

dimensions      [0 1 -1 0 0 0 0];

internalField   nonuniform List<vector> 
57792
(
(0.00139719 0.00135993 0.999433)
(0.00244202 0.00211706 1.00007)
(0.00427792 0.00311718 0.998108)
(0.00242481 0.00211845 0.998746)
(0.00198843 0.00129871 0.999878)
(0.00323877 0.00108394 0.999294)
(0.00263546 0.00269144 0.998517)
(0.0032358 0.00253593 0.998959)
(0.00470586 0.00276299 1.00111)
(0.0076331 0.00164115 1.00297)
(0.00999928 0.0028942 0.997659)
(0.00823735 0.00187552 0.997218)
(0.00689031 0.00214967 1.00105)
(0.0100666 0.00315718 0.997744)
(0.00805185 0.00118407 0.999395)
(0.0104856 0.00207301 0.997393)
(0.00701494 0.00462315 0.994549)
(0.00854626 0.00359835 0.992003)
(0.00634494 0.00490596 0.987068)
(0.00457369 0.0034529 0.991639)
(0.0081949 0.00455919 0.989908)
(0.00781023 0.00298628 0.989753)
(0.00646061 0.00488812 0.989522)
(0.00662662 0.00408696 0.988471)
(0.0030499 0.00241807 0.997617)
(0.00513752 0.0019096 0.99633)
(0.00402978 0.00282203 0.994295)
(0.00303954 0.00225434 0.996746)
(0.0037593 0.00212691 0.997052)
(0.00432528 0.00242569 0.996863)
(0.00310329 0.00282867 0.994995)
(0.00368922 0.00285389 0.994973)
(0.0039457 0.00190962 1.00029)
(0.0058906 0.00338789 0.99698)
(0.00292297 0.00188461 0.998357)
(0.00534032 0.0019997 0.997598)
(0.0049029 0.00206828 0.998774)
(0.00410836 0.00201619 0.99702)
(0.00538674 0.00240723 0.998398)
(0.00471552 0.00257608 0.998013)
(0.00585519 0.00170876 0.99833)
(0.00704521 0.00237886 0.996531)
(0.00888118 0.0015787 0.994221)
(0.00578234 0.00240282 0.996582)
(0.00684373 0.00286084 0.998393)
(0.00769396 0.00149779 0.995147)
(0.0071085 0.00317552 0.998014)
(0.00916105 0.00307549 0.994443)
(0.00550436 0.00405864 0.994812)
(0.00338678 0.00288251 0.996652)
(0.00562215 0.00159976 0.995659)
(0.0038064 0.00325644 0.993634)
(0.00469604 0.00376247 0.996023)
(0.00406526 0.00256479 0.99707)
(0.00481736 0.00294407 0.994704)
(0.00517636 0.00267646 0.994698)
(0.00635306 0.00450938 0.995268)
(0.00464792 0.00387635 0.992264)
(0.00624842 0.00245347 0.99509)
(0.00892495 0.00290723 0.991698)
(0.00689418 0.00261066 0.991538)
(0.00636131 0.00354965 0.9928)
(0.00813448 0.00256204 0.99324)
(0.00667442 0.00254771 0.994306)
(0.00059527 0.000353803 1.0004)
(0.000861414 0.000440423 1)
(0.0019815 0.00140194 1.00068)
(0.00173313 0.00145007 0.999631)
(0.00106204 0.000878653 1.0001)
(0.00110159 0.000675724 1.00015)
(0.00194482 0.00093091 0.99982)
(0.00201409 0.00104344 0.999734)
(0.000881027 0.000334417 0.999979)
(0.000764372 0.000372627 0.999947)
(0.00269038 0.000989714 0.999842)
(0.00216387 0.00081808 0.999174)
(0.00122531 0.000481004 0.999857)
(0.000996992 0.000398337 0.999997)
(0.00188593 0.000612253 0.999817)
(0.00199962 0.000778182 1.00002)
(0.00359739 0.00198964 1.00244)
(0.0047297 0.00173577 1.00029)
(0.00697432 0.000449514 1.00419)
(0.00683667 0.00144084 0.999174)
(0.0043086 0.00141406 0.999712)
(0.00404518 0.000520383 1.00175)
(0.00737451 0.00151166 0.999711)
(0.00648046 0.00204014 1.00264)
(0.00272305 0.00176807 0.998615)
(0.00267136 0.00129467 0.998479)
(0.00492055 0.00136472 0.997113)
(0.00262407 0.00197385 0.997352)
(0.00284642 0.0020854 0.998243)
(0.00341621 0.00134453 0.998389)
(0.00351444 0.00195335 0.99735)
(0.00386526 0.00154291 0.997427)
(0.00146603 0.000794515 0.999698)
(0.00227869 0.00153028 1.00002)
(0.00196004 0.0016702 0.999102)
(0.00226121 0.00111686 0.998875)
(0.00181374 0.000704046 0.999829)
(0.00275106 0.00129017 0.999582)
(0.00215423 0.00113074 0.999348)
(0.0027326 0.00133489 0.999657)
(0.00114619 0.000605859 0.999944)
(0.00237044 0.000763554 0.999583)
(0.00239598 0.000964772 1.00031)
(0.00228804 0.00108609 1.00062)
(0.00185894 0.000717694 0.999905)
(0.0025549 0.000871008 1.00019)
(0.00277409 0.00128643 0.999347)
(0.0032969 0.0012722 0.999367)
(0.00409532 0.00108879 0.999771)
(0.00330602 0.00180016 0.998676)
(0.0029279 0.0010848 0.998979)
(0.00536957 0.00140475 0.997621)
(0.00396203 0.00144161 0.999177)
(0.00379815 0.00166704 0.998708)
(0.00390024 0.00177755 0.99833)
(0.00358365 0.00149291 0.998356)
(0.00409063 0.0016235 1.00011)
(0.00601216 0.00140153 0.997847)
(0.00352872 0.00116331 0.999205)
(0.00384143 0.00101574 1.00058)
(0.00536466 0.00150052 0.999425)
(0.00485293 0.00112887 0.999312)
(0.00368101 0.0009255 0.999893)
(0.00367537 0.00121089 0.998674)
(0.00912762 0.0137491 0.981387)
(0.00570986 0.0156852 0.989826)
(0.00594276 0.0102473 0.992772)
(0.00708856 0.00762263 0.988482)
(0.00643746 0.0130291 0.990052)
(0.0069201 0.013496 0.990775)
(0.00623632 0.010051 0.989513)
(0.00615738 0.00985127 0.992893)
(0.00325669 0.0161506 0.99653)
(0.00231373 0.0135121 1.00419)
(0.0019032 0.0063432 0.999185)
(0.00237499 0.00889529 0.99674)
(0.00170188 0.0107529 0.998855)
(0.00108451 0.011549 0.9995)
(0.00174494 0.00940329 0.997542)
(0.00167954 0.00754145 0.999091)
(0.0034933 0.00510655 0.997531)
(0.00188856 0.00352085 0.999292)
(0.0010257 0.00129219 0.999617)
(0.00183389 0.00243157 0.998292)
(0.0021012 0.00318919 0.998956)
(0.00195266 0.00343229 0.999084)
(0.00146726 0.00245853 0.998879)
(0.000911546 0.00185801 0.999395)
(0.00521386 0.00437704 0.992101)
(0.00274555 0.00578187 0.995184)
(0.00257763 0.00332278 0.99712)
(0.00306285 0.00310535 0.995229)
(0.00255492 0.00491049 0.99513)
(0.00278272 0.00510976 0.994696)
(0.00277636 0.00379977 0.995957)
(0.00224646 0.00354902 0.996738)
(0.003461 0.0127945 0.994392)
(0.00431654 0.00722264 0.996017)
(0.00439278 0.00763158 0.992633)
(0.00272532 0.00782411 0.995416)
(0.00395187 0.0100034 0.994707)
(0.00433985 0.00813508 0.994865)
(0.00422922 0.00888297 0.992171)
(0.0045628 0.00768247 0.992592)
(0.00360759 0.0134656 0.994855)
(0.00260224 0.00803847 0.994992)
(0.00175915 0.00615188 0.998112)
(0.00325108 0.00756379 0.99685)
(0.00357271 0.00903513 0.996441)
(0.0022719 0.0069522 0.996761)
(0.00382119 0.00886438 0.997344)
(0.00192793 0.00571341 0.997873)
(0.00491133 0.00538459 0.995695)
(0.00482416 0.00590613 0.99216)
(0.00239665 0.0059562 0.996449)
(0.00220575 0.00335197 0.997606)
(0.00434963 0.00532956 0.994359)
(0.00431151 0.00550545 0.994516)
(0.00255697 0.0041484 0.997123)
(0.00263117 0.00465511 0.99587)
(0.0031643 0.00523343 0.997462)
(0.00170112 0.00288827 0.998304)
(0.00230996 0.00544061 0.996935)
(0.00185419 0.00403964 0.998833)
(0.00253873 0.00380828 0.998075)
(0.00234884 0.00437368 0.997181)
(0.00210185 0.00519184 0.998432)
(0.00230629 0.00462194 0.997615)
(0.00411571 0.0144852 0.98253)
(0.00321565 0.0171372 0.988795)
(0.00422335 0.0144139 0.982485)
(0.0036407 0.00892443 0.987872)
(0.00260228 0.0140438 0.983215)
(0.0042251 0.016458 0.985528)
(0.00263543 0.010177 0.985293)
(0.00194169 0.0137897 0.985721)
(0.00295983 0.0179789 0.996106)
(0.00301656 0.0159821 1.00293)
(0.00324611 0.0178462 0.994184)
(0.00224471 0.00984692 0.996438)
(0.00340512 0.0166739 0.996741)
(0.00236812 0.0158523 0.999974)
(0.00152235 0.0134727 0.993941)
(0.00118543 0.0135416 0.997082)
(0.00688992 0.0138942 0.98219)
(0.00477429 0.0168826 0.988185)
(0.00983319 0.0150619 0.981256)
(0.00723846 0.00858986 0.988005)
(0.00605941 0.0141784 0.984392)
(0.00627167 0.0154203 0.985728)
(0.00720399 0.0109609 0.986358)
(0.00629836 0.0138909 0.987954)
(0.00328059 0.00578998 0.991799)
(0.00254888 0.00637886 0.994857)
(0.00500381 0.00560019 0.991497)
(0.0030708 0.00370272 0.994956)
(0.00281971 0.0061247 0.992372)
(0.00308942 0.00632684 0.993551)
(0.00356498 0.00459972 0.993457)
(0.00336112 0.00580246 0.993367)
(0.00358489 0.0166246 0.989544)
(0.00425701 0.014036 0.983678)
(0.00262372 0.00928726 0.988624)
(0.00287093 0.0096395 0.992333)
(0.00247212 0.012856 0.988059)
(0.00309036 0.0120293 0.988688)
(0.00291125 0.0101775 0.992112)
(0.00316387 0.0101642 0.990648)
(0.00249723 0.017681 0.994065)
(0.00260763 0.0102866 0.995077)
(0.00407757 0.0172977 0.992776)
(0.00450326 0.0154371 0.98573)
(0.00208601 0.0140949 0.991382)
(0.00229329 0.0127333 0.993866)
(0.00368849 0.0166298 0.988669)
(0.00442129 0.0161388 0.989616)
(0.00443069 0.0115814 0.985126)
(0.00389307 0.00655941 0.98963)
(0.00292418 0.00820829 0.991952)
(0.004481 0.00742362 0.990702)
(0.00457381 0.00940856 0.987142)
(0.00304685 0.00885226 0.990461)
(0.00449219 0.00914608 0.988051)
(0.00330723 0.00764213 0.992279)
(0.00393364 0.0129666 0.986109)
(0.00472693 0.00870816 0.990192)
(0.00255919 0.0085421 0.993504)
(0.00363269 0.0140585 0.99259)
(0.00436559 0.0122098 0.988896)
(0.00508287 0.00986405 0.988509)
(0.00298976 0.0129566 0.990185)
(0.00422401 0.00994935 0.992044)
(0.000834389 -0.000597756 0.999856)
(0.00103847 -0.000592792 0.999979)
(0.00193835 -0.00103141 1.00004)
(0.00162321 -0.000978749 0.999763)
(0.00130172 -0.000519482 1.00003)
(0.00134235 -0.000785416 0.999882)
(0.00175297 -0.000825032 0.999644)
(0.00192287 -0.000901445 0.999959)
(0.00104048 -0.00058073 1.00011)
(0.000875516 -0.000638155 1.00043)
(0.00194416 -0.000940485 1.00063)
(0.00180988 -0.00141636 0.999287)
(0.00108365 -0.000835444 0.999873)
(0.000876903 -0.000998993 1.00021)
(0.00193311 -0.00144126 0.999667)
(0.00217221 -0.0013373 1.00032)
(0.00312387 -0.00144641 1.00122)
(0.00355067 -0.00250547 1.00143)
(0.00529568 -0.00301478 1.00282)
(0.00581008 -0.00277499 0.998779)
(0.00611768 -0.00213835 1.00047)
(0.00430557 -0.00290524 1.00223)
(0.0063744 -0.0028322 0.999653)
(0.0068811 -0.00332668 1.00199)
(0.00241396 -0.00140348 0.998695)
(0.00259552 -0.00202889 0.998455)
(0.00372559 -0.00251048 0.997778)
(0.0024394 -0.00163618 0.997525)
(0.00300247 -0.00179559 0.997982)
(0.00344364 -0.00241784 0.997904)
(0.00246644 -0.00209868 0.997476)
(0.00414338 -0.00263016 0.997262)
(0.00110224 -0.00079716 0.999957)
(0.00346533 -0.00130144 1.0002)
(0.00252184 -0.00123067 0.999193)
(0.00224714 -0.00161286 0.999075)
(0.00210496 -0.000989123 0.999556)
(0.00317254 -0.0012649 0.999875)
(0.00248538 -0.00129365 0.999279)
(0.00320685 -0.00161235 0.999098)
(0.00124694 -0.00108976 1.00009)
(0.00299048 -0.00191666 0.999497)
(0.00241154 -0.00246425 1.0009)
(0.00281373 -0.00166335 1.00042)
(0.00197506 -0.00106881 1.00031)
(0.0033507 -0.00167581 0.999469)
(0.00243128 -0.00132008 1.0006)
(0.00291229 -0.00180147 0.999739)
(0.00362128 -0.00179988 0.999793)
(0.00216606 -0.001524 0.998969)
(0.00307752 -0.0017915 0.998592)
(0.00432975 -0.00240365 0.997917)
(0.00352001 -0.00258986 0.999307)
(0.00385199 -0.00186161 0.999038)
(0.00501702 -0.00219082 0.998239)
(0.00409318 -0.00200136 0.99823)
(0.0038324 -0.00177897 1.00074)
(0.00646301 -0.00301912 0.998508)
(0.00373866 -0.00189672 0.998762)
(0.00391179 -0.00203007 1.00124)
(0.00589138 -0.00277445 0.999658)
(0.00538052 -0.00329244 0.999025)
(0.00453733 -0.00237517 0.999379)
(0.00424834 -0.00197431 0.999185)
(0.00277216 0.0131396 0.980551)
(0.00401213 0.0137186 0.981251)
(0.00392678 0.0101051 0.982453)
(0.00295528 0.0080753 0.986451)
(0.00288708 0.0113723 0.984184)
(0.00364152 0.0129377 0.979539)
(0.00306614 0.00754288 0.986498)
(0.00390849 0.00990856 0.982858)
(0.00679049 0.0133956 0.981497)
(0.0092835 0.0140112 0.977959)
(0.00784705 0.0102694 0.979711)
(0.0071424 0.00824293 0.984974)
(0.00731483 0.011706 0.984459)
(0.00893498 0.0134295 0.978681)
(0.00814921 0.00888149 0.983435)
(0.00796002 0.0103677 0.981041)
(0.00561735 0.00843029 0.98364)
(0.0073704 0.00769236 0.98141)
(0.0066203 0.00682671 0.98415)
(0.00477585 0.00625968 0.9872)
(0.00585227 0.00711338 0.985176)
(0.00685197 0.00745326 0.980335)
(0.00534979 0.00573036 0.987983)
(0.00654256 0.0058675 0.98479)
(0.00310905 0.00570367 0.991254)
(0.0056652 0.00539333 0.98974)
(0.00372591 0.00513591 0.990916)
(0.0030632 0.00354738 0.993907)
(0.00369165 0.00567832 0.992441)
(0.00387551 0.00566018 0.991207)
(0.00324402 0.00405093 0.992816)
(0.00400343 0.00527669 0.992359)
(0.00424437 0.0115786 0.98373)
(0.00436872 0.00915075 0.98506)
(0.00337858 0.00795431 0.988797)
(0.00527029 0.00762668 0.988465)
(0.0048878 0.00958853 0.985059)
(0.004261 0.00887466 0.98479)
(0.00476503 0.00876799 0.98611)
(0.00381595 0.00861549 0.986578)
(0.00548556 0.0128549 0.979664)
(0.00591142 0.00758028 0.987041)
(0.00772689 0.00944383 0.9795)
(0.00514095 0.0103471 0.979613)
(0.00589048 0.0106336 0.981664)
(0.00643615 0.00799795 0.984791)
(0.00560713 0.0111682 0.9807)
(0.00669572 0.00877042 0.984003)
(0.00450961 0.00647594 0.987946)
(0.00377268 0.00567432 0.990261)
(0.00564831 0.00669235 0.987522)
(0.00405777 0.00526122 0.990712)
(0.00411053 0.00691416 0.987334)
(0.00420585 0.00704045 0.988938)
(0.00530495 0.00634287 0.988329)
(0.00460985 0.00610371 0.989258)
(0.0055403 0.00817424 0.984294)
(0.00551399 0.0057961 0.989144)
(0.0060295 0.00706541 0.987717)
(0.00720358 0.00773318 0.982427)
(0.00581003 0.00697718 0.985081)
(0.0056195 0.00693816 0.986195)
(0.0061824 0.00692781 0.985629)
(0.0061043 0.00718415 0.985817)
(0.00133738 0.0151069 0.977909)
(0.000657708 0.0122809 0.979794)
(0.000750904 0.0146687 0.978858)
(0.0012043 0.0103592 0.989225)
(0.00191711 0.0130611 0.985233)
(0.00127903 0.0135391 0.982657)
(0.00123879 0.0147419 0.987436)
(0.000743461 0.0136879 0.98581)
(-4.11073e-05 0.00955519 0.981257)
(-5.13461e-05 0.00728275 0.982579)
(-0.000480392 0.00936317 0.981498)
(-0.000573198 0.00695014 0.990856)
(4.41219e-05 0.00821588 0.987668)
(-0.000351985 0.00825133 0.984842)
(-0.000423671 0.00824311 0.988364)
(-0.000965304 0.0082345 0.98706)
(-0.000510447 0.0146402 0.979624)
(-0.0014374 0.0117244 0.980164)
(-0.00156363 0.0147523 0.978223)
(-0.00157919 0.0107005 0.988652)
(-0.000875271 0.0126462 0.986341)
(-0.0020635 0.0129618 0.98306)
(-0.00106748 0.0137488 0.988474)
(-0.00224343 0.0128271 0.986051)
(0.000777684 0.00658807 0.994367)
(-0.000434848 0.00501746 0.994601)
(-0.000910181 0.00690931 0.994481)
(7.66663e-05 0.00293552 0.997759)
(0.000485685 0.00499712 0.996982)
(-0.000645231 0.00638157 0.996718)
(7.47122e-05 0.00469427 0.998455)
(-0.000844928 0.00526167 0.997527)
(0.000451259 0.0108517 0.986907)
(0.000482219 0.0126293 0.98538)
(0.00145337 0.00877265 0.992717)
(0.000119902 0.00771835 0.992393)
(4.76481e-05 0.0108771 0.988022)
(0.000345338 0.0112764 0.988464)
(-0.000312168 0.0083158 0.989858)
(0.000279135 0.010313 0.991637)
(-4.62473e-05 0.0107124 0.983943)
(-0.000657612 0.00863607 0.991555)
(-0.00140745 0.0105273 0.984003)
(-0.000150638 0.0132818 0.982834)
(-0.000631958 0.0103333 0.986021)
(-0.000823704 0.00915603 0.988832)
(-0.000535796 0.0119051 0.979883)
(-0.000768182 0.0103506 0.986164)
(-9.23375e-05 0.0143606 0.987786)
(0.000765814 0.00931134 0.994798)
(-0.000674392 0.00739836 0.994244)
(-0.000764506 0.00947548 0.995019)
(-4.61083e-05 0.0103001 0.988787)
(-0.000390478 0.00936451 0.992928)
(-6.58524e-05 0.00940409 0.993055)
(-0.000654517 0.00776105 0.994831)
(-0.000707206 0.0134555 0.98627)
(-0.00188337 0.00915554 0.993497)
(-0.00134803 0.00760377 0.992606)
(-0.00187766 0.0104021 0.986943)
(-0.0013072 0.0111302 0.989074)
(-0.00138425 0.0104669 0.991918)
(-0.0012403 0.0108933 0.98816)
(-0.00140943 0.00850279 0.989907)
(0.00633133 -0.00553359 0.987031)
(0.00883224 -0.0057813 0.991787)
(0.00706002 -0.0050642 0.992905)
(0.00525257 -0.00467793 0.990474)
(0.00662843 -0.00629617 0.987957)
(0.00908374 -0.00548716 0.989721)
(0.00628402 -0.00412234 0.989405)
(0.00720234 -0.00517536 0.99138)
(0.00975005 -0.00512868 0.996243)
(0.00707662 -0.00493884 1.00259)
(0.00623776 -0.00337911 1.00109)
(0.00702917 -0.00355595 0.997121)
(0.00888608 -0.00499992 0.997674)
(0.0103388 -0.00491143 1.00081)
(0.00752242 -0.00320365 0.998517)
(0.00667103 -0.00325006 1.00136)
(0.00479051 -0.00338789 0.998358)
(0.0030949 -0.00269948 0.999924)
(0.00125172 -0.00118772 0.999357)
(0.00319128 -0.00229378 0.99923)
(0.00433031 -0.00298968 0.999146)
(0.0037941 -0.00228079 1.00005)
(0.00383895 -0.00261648 0.998277)
(0.00245543 -0.00180208 0.999691)
(0.00367599 -0.00323116 0.993759)
(0.00474834 -0.00328032 0.996658)
(0.00335646 -0.00288066 0.997552)
(0.00253815 -0.00212658 0.996838)
(0.00368781 -0.00295577 0.995055)
(0.00475892 -0.00349339 0.995601)
(0.0033684 -0.00283423 0.995722)
(0.00392282 -0.00280525 0.996767)
(0.00859699 -0.00559961 0.992102)
(0.00711195 -0.00485716 0.994738)
(0.00554169 -0.00413354 0.992132)
(0.00661056 -0.00455737 0.995979)
(0.00735388 -0.00367335 0.993765)
(0.00796391 -0.00460317 0.99203)
(0.00701119 -0.00426611 0.993828)
(0.00666929 -0.00439974 0.99329)
(0.0110406 -0.00581784 0.994343)
(0.00786378 -0.00396977 0.996436)
(0.00673836 -0.00265347 1.00009)
(0.00768898 -0.00448458 0.996598)
(0.00830098 -0.00463789 0.995875)
(0.0089086 -0.00446955 0.995848)
(0.00742016 -0.00440728 0.997679)
(0.0066411 -0.00367691 0.998934)
(0.00652304 -0.0045423 0.994121)
(0.00516632 -0.00388121 0.993126)
(0.00593919 -0.00284583 0.996241)
(0.00404305 -0.00334818 0.996846)
(0.00515168 -0.00385001 0.996153)
(0.00588 -0.00386466 0.994524)
(0.00451058 -0.00319047 0.997055)
(0.00609241 -0.00360829 0.994586)
(0.00614319 -0.00367122 0.996851)
(0.00397664 -0.00234556 0.998571)
(0.00641843 -0.00324429 0.9981)
(0.00458967 -0.00317772 1.00024)
(0.00624743 -0.00336858 0.997066)
(0.00520919 -0.00268257 0.997723)
(0.00580841 -0.00368343 0.997585)
(0.00523233 -0.00321597 0.99794)
(-0.000482864 0.0055204 0.987736)
(-0.00114674 0.00743454 0.986387)
(0.000133851 0.00615825 0.992697)
(-0.000792696 0.00526943 0.990059)
(-0.000716945 0.00592451 0.987576)
(-0.00113604 0.00684683 0.988999)
(-0.00156754 0.00581029 0.989008)
(-0.00144847 0.00649607 0.990675)
(-0.00213924 0.0098041 0.985213)
(-0.00266981 0.0129861 0.983294)
(-0.00149319 0.0095285 0.992214)
(-0.0024551 0.00948954 0.987196)
(-0.00206149 0.0108157 0.985306)
(-0.0030805 0.0110202 0.987552)
(-0.00294081 0.00897902 0.986727)
(-0.0030638 0.0106683 0.989615)
(0.00026104 0.00476104 0.996903)
(-0.000653326 0.00542876 0.996833)
(4.05532e-05 0.00204582 0.999195)
(-2.7382e-05 0.00360123 0.997753)
(-0.00043329 0.00473 0.997856)
(-0.00100224 0.00410754 0.99871)
(-0.000216483 0.00315194 0.997469)
(-0.00101847 0.00294459 0.999167)
(-0.0013673 0.00447335 0.992626)
(-0.00200908 0.00583914 0.992032)
(-0.000495304 0.00397835 0.996455)
(-0.00177531 0.00386326 0.993871)
(-0.0017901 0.00410053 0.992943)
(-0.00210887 0.00453083 0.99476)
(-0.00191233 0.00368834 0.993519)
(-0.00202389 0.00417672 0.995796)
(-0.00113523 0.00811883 0.987187)
(-0.000773659 0.00593323 0.993357)
(-0.00167999 0.00525916 0.990718)
(-0.00225867 0.00692432 0.990487)
(-0.00191378 0.00729175 0.987713)
(-0.00144457 0.00676168 0.990751)
(-0.00171751 0.00689588 0.989726)
(-0.00167336 0.00567877 0.992011)
(-0.0021462 0.00866109 0.989051)
(-0.00261224 0.00718176 0.991684)
(-0.00207089 0.00745333 0.99483)
(-0.00113585 0.00601659 0.994987)
(-0.00220484 0.00837167 0.990537)
(-0.00235234 0.00832402 0.990901)
(-0.00074208 0.0079331 0.992562)
(-0.00158129 0.0077366 0.993484)
(-0.000752885 0.00513343 0.993309)
(-0.00139359 0.00468799 0.99109)
(-0.00222157 0.00583692 0.990591)
(-0.000761091 0.00375414 0.995821)
(-0.000253322 0.00522945 0.994393)
(-0.00179099 0.00544943 0.993444)
(-0.000953753 0.00475974 0.995707)
(-0.00183248 0.00512085 0.994521)
(-0.00125126 0.00568003 0.995768)
(-0.0012854 0.00415588 0.997656)
(-0.00277556 0.0068965 0.993252)
(-0.00208994 0.00668465 0.995988)
(-0.00120217 0.00545885 0.996362)
(-0.00130419 0.00462253 0.996751)
(-0.00169875 0.00611721 0.993619)
(-0.00112031 0.00620844 0.994578)
(0.00967885 0.0150083 0.983477)
(0.00432841 0.0117348 0.998083)
(0.00626372 0.010428 0.995036)
(0.0046919 0.0157223 0.99094)
(0.00742862 0.0141695 0.991899)
(0.00595626 0.0117123 0.995598)
(0.00582035 0.0128469 0.992997)
(0.00365189 0.0112527 0.995846)
(0.00243972 0.00596951 1.00111)
(0.000523209 0.00161187 1.00026)
(0.000518001 0.00135658 0.999985)
(0.00178376 0.00305009 1.00071)
(0.0018956 0.00294772 1.0001)
(0.00105193 0.00166208 1.00046)
(0.00162405 0.00255309 0.999943)
(0.000320789 0.00194668 1.00026)
(0.00349668 0.00499899 0.99861)
(0.000610905 0.00136108 0.999656)
(0.000803025 0.00131892 0.999801)
(0.00157673 0.0032472 0.999599)
(0.00214179 0.00342422 0.99895)
(0.000932422 0.00187852 1.00025)
(0.00177663 0.00280738 0.999604)
(0.000474553 0.00130021 1.00016)
(0.00295374 0.0161525 0.996921)
(0.00263669 0.00670234 1.0026)
(0.00170556 0.0061718 1.0002)
(0.00285042 0.0137446 1.00447)
(0.00139923 0.012842 1.00216)
(0.00163042 0.0066896 1.002)
(0.00139467 0.0094103 1.0015)
(0.00206953 0.00527692 1.00133)
(0.00377397 0.00843534 0.999384)
(0.00366292 0.00806581 0.99853)
(0.0039173 0.0144424 0.997068)
(0.00170111 0.0058397 1.00066)
(0.00346318 0.00765929 0.999542)
(0.00210439 0.00902428 0.998284)
(0.00355365 0.0100655 0.999956)
(0.00303248 0.00997532 0.999123)
(0.00327403 0.00640565 1.00057)
(0.00158871 0.00363891 1.00084)
(0.00101305 0.00200449 1.00008)
(0.00345616 0.00595942 0.999524)
(0.00174975 0.00657578 1.00024)
(0.00112877 0.00350838 1.00003)
(0.0032009 0.00608354 0.999851)
(0.00185011 0.00337755 0.99887)
(0.0038446 0.00686766 0.998053)
(0.00265012 0.0120582 0.997297)
(0.00207309 0.00461713 1.00043)
(0.00176047 0.00515678 0.998677)
(0.00368851 0.00872856 0.998656)
(0.00199643 0.00844969 0.998939)
(0.00165519 0.00640005 0.998501)
(0.000519373 0.00605945 0.999701)
(0.00290766 0.00513887 0.998345)
(0.00134603 0.00304057 0.999756)
(0.00104961 0.00376829 1.00055)
(0.000337313 0.00182556 1.0002)
(0.00151452 0.00354124 0.998977)
(0.00159179 0.00383272 0.999485)
(0.00159586 0.002804 0.999466)
(0.00136354 0.00372426 0.999989)
(0.00170323 0.0012249 1.00017)
(0.00569519 0.00331209 0.998903)
(0.00435494 0.00405655 0.997577)
(0.00327369 0.00229196 1.001)
(0.00390987 0.00133778 1.00006)
(0.00456977 0.00311762 0.999035)
(0.00385379 0.00151557 0.999594)
(0.00498156 0.00376131 0.998734)
(0.0119229 0.0052409 0.994926)
(0.0181835 0.0038541 0.983196)
(0.0142441 0.00416856 0.983129)
(0.0208108 0.00270303 0.988749)
(0.0174594 0.00363406 0.991639)
(0.0166614 0.00313266 0.985275)
(0.0172383 0.00285075 0.988797)
(0.0159197 0.00297099 0.981381)
(0.00748597 0.00683826 0.99242)
(0.0107263 0.00438551 0.984151)
(0.00704394 0.00496057 0.985109)
(0.0113615 0.00450674 0.986344)
(0.010815 0.00384337 0.985974)
(0.00996286 0.00382347 0.98555)
(0.0101789 0.00353192 0.986944)
(0.00940673 0.00450727 0.98579)
(0.00605285 0.00243133 1.00288)
(0.0195246 0.00276292 0.99796)
(0.0139253 0.0038734 0.991259)
(0.0118871 -0.000128047 1.00354)
(0.0133472 0.00145548 1.00212)
(0.0142386 0.00208565 0.998911)
(0.0118997 0.00131933 1.00038)
(0.0153999 0.00269526 0.994053)
(0.00949568 0.00276111 0.997081)
(0.00749623 0.00369611 0.995247)
(0.00610674 0.00248941 1.00076)
(0.0163886 0.00173595 0.994443)
(0.00941829 0.00317507 0.997156)
(0.00684662 0.00332235 0.996856)
(0.0102564 0.00322879 0.998501)
(0.00834111 0.00371111 0.999222)
(0.00967284 0.00411347 0.995839)
(0.0171423 0.00294877 0.992745)
(0.0130072 0.00359622 0.984685)
(0.00788636 0.00497855 0.994698)
(0.0104495 0.00520496 0.99487)
(0.0127126 0.00410899 0.990087)
(0.00861456 0.00499504 0.99286)
(0.0137277 0.00311338 0.989008)
(0.00733688 0.00356794 0.995394)
(0.00683794 0.00191286 1.00042)
(0.0162776 0.00170571 0.994319)
(0.0124517 0.00250953 0.991692)
(0.0079658 0.00472347 0.995687)
(0.00910723 0.00339133 0.997402)
(0.0134797 0.00272901 0.9911)
(0.0114866 0.00169228 0.992802)
(0.00806873 0.00541121 0.993347)
(0.0130041 0.00448799 0.98892)
(0.0173457 0.00374175 0.989088)
(0.0127139 0.00393228 0.982328)
(0.0089567 0.00256948 0.987903)
(0.0134682 0.00277692 0.991171)
(0.0138356 0.00326525 0.986893)
(0.0166305 0.00579397 0.98802)
(-0.14301 -0.0983096 1.39424)
(-0.117371 -0.072293 1.34467)
(-0.0487807 -0.161256 1.33053)
(-0.0211459 -0.0796244 1.60894)
(-0.109937 -0.196473 1.38655)
(-0.183576 -0.287869 1.19614)
(0.0573243 -0.00855851 1.45767)
(-0.0130769 -0.159811 1.32012)
(-0.0695221 -0.0500225 1.15003)
(-0.0561381 -0.0613016 1.03393)
(-0.0552315 -0.0738772 1.10442)
(-0.0466596 -0.0623228 1.08358)
(-0.0742249 -0.0495609 1.13438)
(-0.0798201 -0.0543763 1.12926)
(-0.0555055 -0.0709976 1.10374)
(-0.0601119 -0.0670559 1.10116)
(-0.10691 -0.167727 1.2417)
(-0.0442911 -0.107914 1.23511)
(-0.0832494 -0.164019 1.2065)
(-0.101736 -0.132424 1.22779)
(-0.0782006 -0.170719 1.31051)
(-0.0768223 -0.179786 1.35502)
(-0.0944924 -0.158068 1.18347)
(-0.0981698 -0.182146 1.24695)
(-0.0582124 -0.0665944 1.52978)
(-0.0388752 -0.0559276 1.15786)
(-0.0864812 -0.108986 1.19306)
(-0.0434349 -0.0526315 1.29961)
(-0.130103 -0.144701 1.37154)
(-0.15906 -0.182102 1.2953)
(-0.0722252 -0.0414429 1.19434)
(-0.055362 -0.141181 1.19982)
(-0.091875 -0.0761401 1.33139)
(-0.0701807 -0.166158 1.35897)
(-0.100206 -0.171489 1.44514)
(-0.0690179 -0.0610736 1.2622)
(-0.0825344 -0.0287458 1.3021)
(-0.126609 -0.142589 1.41491)
(-0.0767003 -0.00634549 1.28524)
(-0.128212 -0.174407 1.386)
(-0.0677339 -0.14248 1.32094)
(-0.0730452 -0.0971058 1.24187)
(-0.0746585 -0.115399 1.25604)
(-0.0892131 -0.169594 1.41253)
(-0.0711325 -0.0513871 1.28921)
(-0.102518 -0.0634909 1.23401)
(-0.0552488 -0.117213 1.33569)
(-0.0829441 -0.072347 1.28293)
(-0.0700526 -0.162519 1.23292)
(-0.0233373 -0.0542371 1.34249)
(-0.0784562 -0.0608583 1.23402)
(-0.0830761 -0.13881 1.16694)
(-0.0737329 -0.142613 1.26161)
(-0.037451 -0.133833 1.33312)
(-0.0847253 -0.151297 1.34065)
(-0.130236 -0.114895 1.4328)
(-0.0695379 -0.176878 1.26858)
(-0.0715044 -0.164173 1.2263)
(-0.0501822 -0.0842527 1.19697)
(-0.0659136 -0.102409 1.23538)
(-0.0854893 -0.143099 1.38843)
(-0.0806287 -0.148735 1.40989)
(-0.0571873 -0.0698449 1.23763)
(-0.0668573 -0.102557 1.23169)
(0.120477 -0.16923 1.23655)
(0.0901121 -0.0982741 1.35054)
(0.158592 -0.0166025 1.20883)
(0.0765487 0.00466224 1.42709)
(0.217774 -0.109226 1.27209)
(0.295572 -0.181021 1.09962)
(0.019447 0.0777571 1.29947)
(0.159145 0.00671796 1.19451)
(0.0453152 -0.0717325 1.2324)
(0.044652 -0.0380718 1.11288)
(0.0750285 -0.048721 1.18007)
(0.0669383 -0.0429278 1.13687)
(0.0516223 -0.063305 1.22401)
(0.0562858 -0.0607614 1.22094)
(0.0698451 -0.0533842 1.17189)
(0.0667561 -0.0544699 1.17407)
(0.14621 -0.064796 1.14394)
(0.095174 -0.0309765 1.21239)
(0.133303 -0.0614825 1.15328)
(0.129195 -0.0678479 1.16109)
(0.160992 -0.0412177 1.20777)
(0.150344 -0.0370022 1.2417)
(0.152915 -0.0624521 1.12497)
(0.168433 -0.0598265 1.16532)
(0.0865654 -0.0160444 1.43205)
(0.065701 -0.033293 1.18718)
(0.110393 -0.056362 1.14162)
(0.0512423 -0.0250848 1.24508)
(0.156097 -0.0790113 1.2742)
(0.176196 -0.0948972 1.22244)
(0.057907 -0.041776 1.13899)
(0.135169 -0.0260355 1.14927)
(0.089455 -0.0798826 1.34692)
(0.158868 -0.0404233 1.23545)
(0.151865 -0.0575972 1.3369)
(0.0655475 -0.0395178 1.24313)
(0.0430838 -0.0579924 1.26536)
(0.126218 -0.0989688 1.28206)
(0.0176662 -0.0495988 1.26487)
(0.155605 -0.0984433 1.2643)
(0.135733 -0.0664649 1.35341)
(0.0911471 -0.0372756 1.22722)
(0.0844134 -0.0584589 1.25344)
(0.144592 -0.0585338 1.27269)
(0.0736692 -0.0609287 1.28121)
(0.0509016 -0.0586501 1.24476)
(0.116048 -0.0542099 1.29788)
(0.0788001 -0.0594018 1.26077)
(0.1538 -0.0379542 1.1498)
(0.0690743 0.0143632 1.26329)
(0.0721531 -0.0414395 1.21864)
(0.138815 -0.0507611 1.11203)
(0.135751 -0.0384398 1.18108)
(0.130246 -0.00789012 1.24482)
(0.153191 -0.0426114 1.24472)
(0.126356 -0.0805434 1.31525)
(0.157305 -0.0442416 1.17661)
(0.158465 -0.038942 1.16361)
(0.0794225 -0.0381872 1.20033)
(0.0837517 -0.0432863 1.21503)
(0.135961 -0.0486255 1.27538)
(0.147382 -0.0382867 1.29908)
(0.0803514 -0.0352396 1.20668)
(0.100447 -0.0333267 1.21632)
(0.26149 -0.205982 1.5962)
(0.145029 -0.115814 1.19515)
(0.249381 -0.0869 1.39504)
(0.248087 -0.126258 1.33394)
(0.176062 -0.114194 1.47229)
(0.103531 -0.150088 1.36716)
(0.24275 -0.120714 1.27951)
(0.186281 -0.11295 1.39431)
(0.06026 -0.044218 1.04581)
(0.012236 -0.00597527 1.0032)
(0.0401584 -0.014268 1.02962)
(0.0318252 -0.0149817 1.01279)
(0.0442234 -0.0148628 1.02783)
(0.0301183 -0.0142484 1.02547)
(0.043369 -0.0128694 1.03354)
(0.0356232 -0.0158013 1.02147)
(0.215663 -0.0254201 1.3295)
(0.103524 0.0021083 1.10233)
(0.179617 -0.0538429 1.25226)
(0.197302 -0.0104126 1.20876)
(0.1665 0.0496422 1.29864)
(0.0899764 0.0378371 1.23996)
(0.20007 -0.00926698 1.15979)
(0.118034 -0.0339983 1.24412)
(0.244275 -0.0788897 1.25371)
(0.0880929 -0.0218833 1.06748)
(0.212546 -0.00187343 1.20792)
(0.225336 -0.0321721 1.23642)
(0.230488 -0.0377968 1.26316)
(0.176867 -0.0139514 1.26213)
(0.179272 -0.0275135 1.11821)
(0.202698 3.15749e-05 1.24719)
(0.111248 -0.0488663 1.15336)
(0.200596 -0.00828964 1.37115)
(0.230348 -0.0990943 1.3167)
(0.0935885 -0.0321531 1.09637)
(0.0998579 -0.0430597 1.14209)
(0.235559 -0.0722225 1.3209)
(0.0979694 -0.0513245 1.1098)
(0.171434 -0.0533983 1.33718)
(0.0715618 -0.0503417 1.144)
(0.0854173 -0.0328572 1.10188)
(0.0682824 -0.0160418 1.09549)
(0.124968 -0.0298244 1.30426)
(0.0954662 -0.0476929 1.13662)
(0.113201 -0.026691 1.09176)
(0.101052 -0.0309876 1.1281)
(0.0992259 -0.00428251 1.11303)
(0.229303 -0.032488 1.24829)
(0.233717 -0.0825407 1.214)
(0.106274 -0.00819182 1.10183)
(0.206423 0.00665897 1.15942)
(0.229207 -0.031819 1.28861)
(0.202416 -0.0363798 1.27384)
(0.192979 -0.0118187 1.27213)
(0.192706 -0.0203953 1.29705)
(0.159686 -0.0321645 1.33699)
(0.169804 0.0233227 1.25123)
(0.0969417 -0.0219266 1.07346)
(0.0885716 -0.0146375 1.07816)
(0.18011 0.00901818 1.28475)
(0.148142 0.0149238 1.28654)
(0.0918058 -0.00760246 1.10589)
(0.095982 -0.00907502 1.07685)
(-0.0072098 0.0433554 1.18586)
(-0.0664753 0.0758454 1.37668)
(-0.0326136 0.0695953 1.20034)
(-0.0454832 0.110032 1.14623)
(-0.0172124 0.0255146 1.10722)
(-0.0701691 0.123347 1.2767)