/*--------------------------------*- C++ -*----------------------------------*\
| =========                 |                                                 |
| \\      /  F ield         | OpenFOAM: The Open Source CFD Toolbox           |
|  \\    /   O peration     | Version:  2506                                  |
|   \\  /    A nd           | Website:  www.openfoam.com                      |
|    \\/     M anipulation  |                                                 |
\*---------------------------------------------------------------------------*/
FoamFile
{
    version     2.0;
    format      ascii;
    arch        "LSB;label=32;scalar=64";
    class       volVectorField;
    location    "600";
    object      U;
}
// * * * * * * * * * * * * * * * * * * * * * * * * * * * * * * * * * * * * * //

dimensions      [0 1 -1 0 0 0 0];

internalField   nonuniform List<vector> 
54912
(
(0.000496064 -4.13717e-05 0.998501)
(0.00219161 0.00255199 0.984046)
(-0.00117184 -0.001276 0.999573)
(0.000983379 0.00633664 0.995451)
(-0.00171333 0.00561198 0.994361)
(-0.00158407 0.00365222 0.993599)
(0.000100483 0.00357653 0.998949)
(0.0018949 0.00171277 0.995456)
(0.00485329 0.00435731 0.96346)
(0.00278098 -0.00277939 0.95416)
(-0.00118744 -0.00103823 0.964943)
(0.0101055 0.0202401 0.959891)
(-0.00124046 0.0144214 0.953553)
(-0.00390478 -0.00265928 0.954685)
(0.00418819 0.0185322 0.966262)
(0.0035173 0.000822968 0.963474)
(0.000278777 -0.00117851 0.998353)
(0.00340825 0.0021388 0.9878)
(0.00190977 -5.26179e-05 0.998525)
(0.00472908 0.00806787 0.995834)
(-0.000902124 0.00669812 0.993684)
(0.00228645 0.00589288 0.992669)
(0.00090451 0.00515846 0.998144)
(0.00450146 0.0029361 0.997835)
(0.00234539 0.0162862 0.991452)
(0.0119912 0.03132 0.970997)
(0.00684522 0.0172714 0.991491)
(0.00670449 0.0287671 0.980981)
(0.00397754 0.0261023 0.979544)
(0.0073391 0.0226195 0.978245)
(0.00691 0.0207418 0.986123)
(0.0104076 0.0234831 0.983731)
(0.00092777 0.0134529 0.97809)
(-0.000640983 0.00445377 0.996053)
(-0.000178545 0.01413 0.988137)
(0.00268885 0.0260891 0.969001)
(0.00203214 0.0110932 0.99181)
(0.00168165 0.00713973 0.990202)
(0.0034254 0.0179125 0.978786)
(0.00560879 0.0132375 0.988392)
(0.0012527 0.00612087 0.976077)
(0.00498401 0.0210485 0.965875)
(0.00297254 0.00630569 0.973111)
(0.000920845 0.00366169 0.990394)
(0.0052778 0.00368012 0.980601)
(0.00420296 0.0151309 0.967366)
(0.00129725 -0.000411695 0.989226)
(-0.00168824 0.0124969 0.979449)
(0.000649328 0.00416932 0.997216)
(-5.08839e-05 0.0104223 0.995547)
(0.00793803 0.023327 0.979212)
(0.00310949 0.0135263 0.99311)
(0.00229607 0.00614978 0.996621)
(0.00238793 0.0103928 0.990214)
(0.00272276 0.0132204 0.98994)
(0.00510431 0.01934 0.983488)
(0.00169425 0.00183455 0.997062)
(0.00635411 0.0132828 0.990356)
(0.0101311 0.0174484 0.9718)
(0.00423688 0.00210452 0.980454)
(0.00302308 0.00904022 0.991292)
(0.00636302 0.0147756 0.984612)
(0.00185297 0.0127112 0.983213)
(0.00589712 0.0169856 0.979444)
(-0.000690147 0.00060475 1.0001)
(-9.38305e-05 0.000228025 0.99992)
(-0.000216087 0.000888099 1.00008)
(-0.000502887 0.00464033 0.998628)
(0.000118002 0.00144263 0.998386)
(0.000241649 0.000626276 1.00009)
(3.97823e-05 0.00287476 0.998434)
(2.43454e-05 0.00217829 0.99967)
(-6.91426e-05 0.000306368 1.00004)
(0.000175828 0.00181394 0.999975)
(1.50288e-06 0.00134021 1.00052)
(0.00208635 0.00701475 0.99809)
(8.86065e-05 0.00197714 0.998797)
(0.000108581 0.00106184 0.999854)
(0.000777972 0.00363066 0.999385)
(0.000751061 0.00358031 0.999376)
(-1.76393e-05 0.00115332 1.00006)
(7.45575e-05 0.00179946 1.00049)
(0.000322952 0.00198587 1.00041)
(0.00309652 0.00949986 0.998326)
(0.00137277 0.00488043 0.999399)
(8.27003e-05 0.00167972 0.999928)
(0.00100118 0.00618727 0.999406)
(0.00183834 0.00544291 1.00008)
(0.00163148 0.0125604 0.994819)
(0.00519487 0.0149464 0.99336)
(0.00559314 0.0172592 0.993637)
(0.00624226 0.0229233 0.988123)
(0.00467417 0.0182599 0.989149)
(0.00666285 0.0160959 0.991763)
(0.00590926 0.019696 0.989548)
(0.00657301 0.0207687 0.991148)
(5.63162e-05 0.00143436 0.998986)
(0.000703486 0.00370994 0.999344)
(0.00188241 0.00825737 0.99486)
(0.00336856 0.00835998 0.995854)
(0.000441833 0.00354173 0.998642)
(0.000720041 0.00355102 0.998704)
(0.00111066 0.00525322 0.998283)
(0.00160385 0.00568897 0.998829)
(0.000303954 0.000573359 1.00002)
(0.00327029 0.00821233 0.997167)
(-0.000124631 0.000947992 0.999943)
(0.000163288 0.000878176 1.00015)
(0.000433066 0.0021135 0.999595)
(0.000945933 0.00419332 0.998662)
(-1.37215e-05 0.000861774 1.00016)
(0.00082776 0.00418725 0.998877)
(0.00051089 0.00434754 0.998226)
(0.00178161 0.0110251 0.99507)
(0.00371842 0.0111081 0.996219)
(0.00267973 0.0141569 0.994071)
(0.00136467 0.00690829 0.998272)
(0.00184732 0.00938384 0.996568)
(0.00408572 0.0118217 0.995523)
(0.00328383 0.0119301 0.994714)
(0.00120432 0.0028722 0.999713)
(0.00430369 0.0127721 0.996927)
(0.00367684 0.010987 0.996938)
(0.00100446 0.00464666 0.999491)
(0.00146673 0.00569036 0.998649)
(0.00269391 0.00782415 0.998696)
(0.000929987 0.00549782 0.999203)
(0.00258686 0.00759589 0.999241)
(-0.000520063 -0.000541705 0.999925)
(0.000200835 -0.000911809 1.00004)
(0.000215631 -0.000552643 1.00004)
(-0.00100371 -0.00378817 0.998071)
(-0.000947581 -0.00198964 0.999496)
(-2.839e-05 -0.000583623 1.00004)
(-0.000167876 -0.00180761 0.999409)
(0.000102476 -0.001263 1.00001)
(0.000163594 -0.0014338 1.00006)
(0.000681306 -0.00260003 1.00027)
(0.000444665 -0.00204893 1.00018)
(0.00283957 -0.00966415 0.998908)
(-0.000478088 -0.00418975 0.998551)
(5.68301e-05 -0.00221291 0.999945)
(-0.000803711 -0.00521611 0.999262)
(0.000751056 -0.0029975 1.00094)
(0.000133984 -0.000419914 1.00008)
(0.000331391 -0.00129834 1.00002)
(-0.000249354 -1.79412e-05 0.999993)
(0.001205 -0.00372743 0.998957)
(-9.97703e-05 -0.00229763 0.999954)
(-0.000108786 -0.00108604 0.999923)
(-0.000153869 -0.00141607 0.999837)
(-0.000318924 -0.000692798 1.00022)
(-0.000357988 -0.0116042 0.994041)
(0.00519547 -0.0195535 0.993925)
(0.00404362 -0.0119317 0.995746)
(0.00237547 -0.0239189 0.988438)
(0.00152142 -0.018318 0.991804)
(0.00366095 -0.0153043 0.994328)
(0.00322775 -0.0183045 0.990678)
(0.00497056 -0.0188569 0.992676)
(-0.000729748 -0.00278824 0.999142)
(-0.000238697 -0.00271366 0.999699)
(-0.000458179 -0.0080562 0.996865)
(0.000568953 -0.0111806 0.994647)
(-0.000727076 -0.00337626 0.999524)
(-0.000518329 -0.00285236 0.999334)
(0.00155462 -0.00682762 0.998943)
(0.000806073 -0.00465854 0.998783)
(-0.000133759 -0.00117279 0.999996)
(0.000973863 -0.00972938 0.997865)
(-9.73693e-05 -0.00188038 1.00005)
(1.5634e-05 -0.000736129 0.999935)
(0.000194614 -0.00225517 1.0005)
(-0.00108736 -0.00409025 0.998793)
(0.000224466 -0.00108812 1.00015)
(-0.000346155 -0.00240993 0.998769)
(4.65446e-05 -0.00204339 0.999372)
(0.000842499 -0.00751067 0.996604)
(0.000716112 -0.0113343 0.996885)
(0.00175362 -0.00796427 0.996586)
(0.00195277 -0.00404456 0.999726)
(0.00159636 -0.0067323 0.998769)
(0.00127315 -0.00749678 0.997578)
(0.000739255 -0.00918282 0.995558)
(1.69905e-05 -0.000990455 1.00049)
(0.0019921 -0.00901939 0.996916)
(0.00194551 -0.00879984 0.999874)
(0.000419301 -0.00229131 1.00041)
(-0.000206003 -0.00223705 0.999837)
(0.000940426 -0.0057279 0.997814)
(-0.000753527 -0.0032263 0.999095)
(0.00190992 -0.008768 0.996456)
(0.0133936 -0.00608998 0.954109)
(0.00730164 -0.00833617 0.962533)
(0.0206233 -0.0054197 0.942454)
(0.01219 -0.0142303 0.959894)
(0.0124712 -0.00845293 0.95333)
(0.0107167 -0.0044631 0.957015)
(0.0166047 -0.010258 0.947976)
(0.0141942 -0.00824472 0.94891)
(0.00173377 -0.0097743 0.971576)
(-0.00185561 -0.0088171 0.979417)
(0.00589918 -0.0109797 0.965272)
(9.21144e-06 -0.016874 0.978977)
(0.00119741 -0.010168 0.972605)
(-3.91743e-05 -0.00706361 0.974669)
(0.00448779 -0.0130788 0.969336)
(0.00185648 -0.0134059 0.972498)
(0.0289506 -0.00326582 0.935595)
(0.016186 -0.00701679 0.953648)
(0.0232732 -0.0083449 0.944543)
(0.0153301 -0.0205193 0.956829)
(0.0208924 -0.00823778 0.94643)
(0.0185151 -0.00346897 0.944614)
(0.0221568 -0.0127074 0.944273)
(0.0181495 -0.0129632 0.946657)
(0.00873417 -0.0234161 0.968931)
(0.0021986 -0.0248581 0.976592)
(0.0107497 -0.0280369 0.968032)
(0.00557402 -0.0296634 0.977942)
(0.0053251 -0.0270489 0.969773)
(0.00609923 -0.0231691 0.972128)
(0.00888396 -0.0312963 0.967242)
(0.00649727 -0.031061 0.96803)
(0.00708749 -0.0106862 0.96373)
(0.017921 -0.00804105 0.948484)
(0.00987099 -0.0196809 0.961567)
(0.00420562 -0.0187555 0.971158)
(0.0112415 -0.0147088 0.958763)
(0.00878244 -0.0101021 0.955597)
(0.00541521 -0.019766 0.970117)
(0.0100202 -0.0142824 0.962938)
(0.00364026 -0.00573467 0.966902)
(0.00365605 -0.0159911 0.973329)
(0.00670203 -0.00849148 0.961024)
(0.0131891 -0.00570548 0.950067)
(0.00789359 -0.0107582 0.961546)
(0.00417577 -0.0126856 0.967095)
(0.0122985 -0.0103016 0.954142)
(0.00949291 -0.0100562 0.958845)
(0.0206491 -0.0095227 0.94473)
(0.0125125 -0.0212587 0.959191)
(0.00527009 -0.0225641 0.967133)
(0.0151749 -0.0243398 0.957452)
(0.0194224 -0.0126473 0.951055)
(0.0105634 -0.0204013 0.959768)
(0.0131504 -0.017959 0.960334)
(0.00494486 -0.0232566 0.967784)
(0.0198337 -0.00839992 0.946906)
(0.0117913 -0.0245086 0.959707)
(0.0031407 -0.0211868 0.971926)
(0.00932712 -0.0118433 0.959285)
(0.0107556 -0.0114297 0.954827)
(0.0113532 -0.0147554 0.960239)
(0.0121215 -0.0104846 0.956134)
(0.00965712 -0.0166984 0.966977)
(0.0651401 -0.0359411 0.938332)
(0.0690009 -0.0317354 0.962124)
(0.0570598 -0.0448185 0.956542)
(0.0368744 -0.0377473 0.954449)
(0.0691326 -0.0344432 0.938832)
(0.0749094 -0.0361661 0.958764)
(0.0400634 -0.0396899 0.943866)
(0.0555375 -0.0336159 0.944751)
(0.0619423 -0.0363808 0.981705)
(0.0358866 -0.0395655 0.983257)
(0.0386516 -0.0398338 0.994642)
(0.0232028 -0.0274883 0.976621)
(0.0518692 -0.0377528 0.982794)
(0.0479132 -0.0429735 0.995233)
(0.0339255 -0.0333224 0.979582)
(0.0350252 -0.0300584 0.990972)
(0.0509514 -0.0446852 0.984456)
(0.0384208 -0.0390991 0.997113)
(0.0350023 -0.0582493 1.0008)
(0.0264979 -0.0448642 0.982325)
(0.0517966 -0.046305 0.97711)
(0.046923 -0.0479063 0.996684)
(0.0338685 -0.052021 0.985526)
(0.0353452 -0.0463842 0.984658)
(0.0188385 -0.0419324 0.967283)
(0.0133464 -0.0312069 0.976657)
(0.0126879 -0.0451491 0.976632)
(0.00334314 -0.043374 0.974072)
(0.0191095 -0.0425378 0.966305)
(0.0163322 -0.0364623 0.973554)
(0.0138807 -0.0422843 0.978923)
(0.0153507 -0.042824 0.977709)
(0.0653954 -0.0359581 0.96519)
(0.0616302 -0.0399934 0.956295)
(0.0354189 -0.0406234 0.952311)
(0.0321791 -0.0360128 0.968283)
(0.0382094 -0.0405123 0.956249)
(0.0412591 -0.0437803 0.960183)
(0.0350729 -0.0355351 0.965572)
(0.0350011 -0.0411806 0.959118)
(0.0650523 -0.0357911 0.983576)
(0.0335485 -0.0352139 0.978387)
(0.0489294 -0.0379796 1.00031)
(0.0649573 -0.0305753 0.980892)
(0.0411072 -0.0379257 0.975053)
(0.0331065 -0.0395888 0.975917)
(0.058591 -0.0348089 0.984868)
(0.0494133 -0.0397293 0.985695)
(0.0337955 -0.0579403 0.956555)
(0.0252724 -0.0407374 0.966097)
(0.0193807 -0.0364656 0.973098)
(0.0153938 -0.0441357 0.982913)
(0.0345289 -0.0465699 0.962892)
(0.0263633 -0.0425499 0.958965)
(0.0338299 -0.0449243 0.966496)
(0.0202468 -0.0387607 0.972422)
(0.0438672 -0.0393952 0.964312)
(0.0253763 -0.0451921 0.975914)
(0.024167 -0.0370613 0.980809)
(0.0332874 -0.0351176 0.995543)
(0.0335688 -0.0500875 0.978651)
(0.0353807 -0.0460607 0.970954)
(0.0334538 -0.0345704 0.978385)
(0.0287498 -0.035121 0.980358)
(0.0258544 -0.00224567 0.953487)
(0.0320086 0.00999845 0.932647)
(0.0296374 0.0173269 0.94417)
(0.0162527 0.0193451 0.947626)
(0.0232635 0.00584877 0.942494)
(0.0272936 0.00609728 0.942261)
(0.0206194 0.020375 0.948498)
(0.0253472 0.0172715 0.943715)
(0.0264217 0.00659373 0.93036)
(0.0171334 0.00308134 0.943692)
(0.0233487 0.010687 0.937692)
(0.0098408 0.0128527 0.954467)
(0.0183005 0.00533391 0.942744)
(0.0220558 0.00342295 0.936711)
(0.0126971 0.0129742 0.948079)
(0.017421 0.00868818 0.945022)
(0.0351935 0.02716 0.936664)
(0.0312197 0.0192811 0.934299)
(0.0348812 0.0309014 0.930085)
(0.0250179 0.0313398 0.945789)
(0.032331 0.0243118 0.937347)
(0.033995 0.0222551 0.931958)
(0.0291458 0.0348329 0.939374)
(0.0308422 0.0281615 0.936974)
(0.0154812 0.0298781 0.955346)
(0.0115939 0.0239679 0.962398)
(0.0156328 0.0331052 0.957977)
(0.0103794 0.032853 0.970694)
(0.0147901 0.0263049 0.961813)
(0.0161837 0.0251515 0.96103)
(0.0126002 0.0355164 0.965569)
(0.0149998 0.0307171 0.962943)
(0.0236119 0.00631302 0.938329)
(0.0283317 0.0174349 0.942655)
(0.0174311 0.0188131 0.951331)
(0.0135692 0.0160943 0.952621)
(0.0209615 0.0151192 0.942064)
(0.0225957 0.0173659 0.945842)
(0.0173891 0.0170944 0.947554)
(0.0189255 0.0171383 0.949463)
(0.0265975 0.00613451 0.934513)
(0.0158603 0.0144899 0.949345)
(0.026877 0.0107455 0.931996)
(0.0317909 0.016582 0.939892)
(0.0231368 0.01353 0.939795)
(0.0197542 0.0126041 0.942363)
(0.0288956 0.0143875 0.933807)
(0.0249127 0.0134005 0.93781)
(0.0286125 0.0290995 0.942362)
(0.0188646 0.0327009 0.95356)
(0.0130064 0.0236673 0.957588)
(0.02013 0.0352268 0.953565)
(0.0246854 0.0277361 0.946972)
(0.0206909 0.0265866 0.949934)
(0.0224352 0.0264545 0.948999)
(0.0198012 0.0261798 0.953925)
(0.0315191 0.0237852 0.940201)
(0.0223989 0.0311978 0.949814)
(0.0161805 0.0212068 0.952414)
(0.0256399 0.0172861 0.939728)
(0.0281558 0.0239325 0.93907)
(0.0250629 0.0252231 0.947292)
(0.0226874 0.0221734 0.944447)
(0.0198807 0.0215992 0.950201)
(0.141381 0.0661211 0.92762)
(0.149568 0.0848348 0.91623)
(0.0737221 0.0727578 0.922274)
(0.0656473 0.0546487 0.948758)
(0.103153 0.0784142 0.925062)
(0.107585 0.0869148 0.915392)
(0.0736022 0.0625349 0.948946)
(0.0790889 0.079628 0.918697)
(0.152572 0.109155 0.909101)
(0.086021 0.122737 0.889571)
(0.0139301 0.0805173 0.875247)
(0.0313023 0.0539172 0.926378)
(0.0709817 0.124594 0.889992)
(0.0142603 0.107136 0.857473)
(0.052451 0.0847922 0.917159)
(0.026803 0.0929738 0.893422)
(0.0379312 0.0597263 0.932648)
(0.0272071 0.0497273 0.925863)
(0.0329187 0.0430482 0.931099)
(0.0262882 0.0409227 0.944344)
(0.0261202 0.0585052 0.938134)
(0.0281212 0.054005 0.927312)
(0.0270168 0.0454607 0.945345)
(0.0321101 0.0459997 0.932382)
(0.033661 0.044611 0.966102)
(0.0246346 0.0402769 0.963726)
(0.0192538 0.0399302 0.96085)
(0.0149369 0.0352832 0.9744)
(0.0221417 0.0446904 0.966454)
(0.0241453 0.0433629 0.966767)
(0.018708 0.0399513 0.971212)
(0.0210425 0.0421875 0.963914)
(0.0897963 0.0875293 0.910489)
(0.054451 0.0758172 0.931364)
(0.0458649 0.0645074 0.95704)
(0.0372192 0.0617102 0.952332)
(0.0568655 0.0682457 0.940013)
(0.0512104 0.074599 0.935709)
(0.0574909 0.0631177 0.937506)
(0.0542071 0.0597223 0.947104)
(0.0966099 0.10851 0.890309)
(0.0249391 0.0559902 0.942347)
(0.00673878 0.0712207 0.893817)
(0.0356453 0.0741671 0.920198)
(0.068851 0.0823481 0.902312)
(0.0326696 0.0727627 0.929417)
(0.0626211 0.0810161 0.900746)
(0.0242531 0.0831593 0.922967)
(0.0488535 0.0606353 0.948717)
(0.0351558 0.0494454 0.967078)
(0.0333748 0.0500528 0.957886)
(0.0202304 0.0407536 0.96086)
(0.0383709 0.0502487 0.949433)
(0.0440169 0.0554657 0.954539)
(0.0271927 0.0521136 0.952916)
(0.0255253 0.0511418 0.956507)
(0.0383155 0.066075 0.932472)
(0.0255941 0.0467859 0.949279)
(0.0316645 0.0542548 0.952933)
(0.00729124 0.058736 0.930375)
(0.0271772 0.0567071 0.941798)
(0.0314827 0.0505897 0.942523)
(0.0261005 0.0581191 0.944002)
(0.0265981 0.0481285 0.941915)
(0.0744581 -0.0271149 0.929178)
(0.0641647 -0.0338468 0.947071)
(0.0589158 -0.0285788 0.91891)
(0.0333688 -0.0439248 0.942606)
(0.0572305 -0.0312149 0.941081)
(0.0608894 -0.0313409 0.92863)
(0.0426785 -0.0367132 0.934792)
(0.0502945 -0.0366627 0.932599)
(0.0568136 -0.0471617 0.962941)
(0.0384298 -0.0435727 0.988832)
(0.0386009 -0.0489953 0.959503)
(0.0234016 -0.0481664 0.970351)
(0.0428826 -0.0509443 0.977214)
(0.0497151 -0.0499569 0.971199)
(0.0308245 -0.0497073 0.967202)
(0.0379594 -0.0545491 0.964565)
(0.0484658 -0.0328679 0.917349)
(0.0339407 -0.0462048 0.946827)
(0.0305563 -0.0428772 0.933479)
(0.0213156 -0.0479621 0.948538)
(0.0377821 -0.0438177 0.932056)
(0.0387328 -0.0425596 0.924646)
(0.0245364 -0.0463595 0.942945)
(0.0310231 -0.0441744 0.934265)
(0.0186335 -0.0464386 0.956756)
(0.00563392 -0.0459182 0.969447)
(0.0117286 -0.0469358 0.961136)
(-0.00202567 -0.0404327 0.968853)
(0.0169421 -0.0466471 0.969695)
(0.017325 -0.0443368 0.963994)
(0.00639654 -0.0466118 0.968791)
(0.0100127 -0.0462161 0.96393)
(0.0482964 -0.0448497 0.955217)
(0.0430799 -0.0381217 0.935946)
(0.0300852 -0.0434939 0.956065)
(0.0297999 -0.0506336 0.967489)
(0.0389887 -0.0480402 0.948504)
(0.0333682 -0.0454936 0.944359)
(0.0371885 -0.0536001 0.9558)
(0.0318167 -0.044298 0.952892)
(0.0529074 -0.0437611 0.944669)
(0.030527 -0.051162 0.96283)
(0.0460804 -0.0516083 0.942825)
(0.0436713 -0.0399775 0.928315)
(0.0475816 -0.0495982 0.94702)
(0.0324146 -0.0598722 0.961191)
(0.0526979 -0.0391069 0.932378)
(0.0418766 -0.0520671 0.949595)
(0.0381915 -0.0386846 0.932767)
(0.0246959 -0.0449113 0.948515)
(0.0167176 -0.0487597 0.965362)
(0.0154088 -0.0485464 0.956915)
(0.0343502 -0.0410894 0.936539)
(0.0299271 -0.0454022 0.949048)
(0.0270314 -0.0480171 0.9514)
(0.0199551 -0.0523455 0.96403)
(0.0416593 -0.0401329 0.930296)
(0.0204884 -0.0475814 0.951139)
(0.0216056 -0.0503133 0.962458)
(0.0328055 -0.0521583 0.944472)
(0.0273245 -0.0510676 0.943393)
(0.0297281 -0.0480838 0.947181)
(0.0264591 -0.0501389 0.955137)
(0.0241355 -0.0494543 0.955719)
(0.00521206 0.00868133 0.999801)
(0.0248644 0.0252284 0.987352)
(0.0241655 0.0228917 0.989142)
(0.00982609 0.0174806 0.993918)
(0.00525067 0.014087 0.998333)
(0.0166666 0.0241527 0.99193)
(0.00794027 0.0184214 0.995727)
(0.0151573 0.0223053 0.990468)
(0.050588 0.0511655 0.956828)
(0.120405 0.124177 0.872266)
(0.165134 0.10621 0.907178)
(0.0477317 0.0545717 0.937618)
(0.0426671 0.0499996 0.950071)
(0.0975479 0.10245 0.938793)
(0.0454408 0.0531842 0.942009)
(0.056543 0.100682 0.924937)
(0.0681407 0.0425432 0.96706)
(0.156702 0.0792823 0.920739)
(0.148157 0.0626482 0.931799)
(0.0696759 0.0539169 0.951168)
(0.0733465 0.0494843 0.960458)
(0.10033 0.0699865 0.945714)
(0.0735724 0.0494111 0.956637)
(0.0948596 0.0734464 0.942184)
(0.0124397 0.0242341 0.98727)
(0.028593 0.0400376 0.969858)
(0.0349646 0.0432692 0.971364)
(0.015336 0.0336549 0.979199)
(0.0118345 0.0273343 0.985651)
(0.0212535 0.0414796 0.975454)
(0.0135469 0.0319111 0.983478)
(0.0213295 0.0392587 0.975881)
(0.0232052 0.0279553 0.985292)
(0.0303746 0.0296543 0.985444)
(0.00914012 0.0213063 0.99237)
(0.0247908 0.0313885 0.975091)
(0.0254327 0.0319861 0.982449)
(0.0239909 0.0349068 0.986798)
(0.0274621 0.0317338 0.977764)
(0.0205458 0.0355322 0.98745)
(0.0466525 0.0496547 0.971867)
(0.0359109 0.0636611 0.957231)
(0.0974362 0.077428 0.946263)
(0.0485054 0.0432836 0.979215)
(0.0328938 0.0443698 0.969486)
(0.0471846 0.0605331 0.961133)
(0.061535 0.0482811 0.963309)
(0.0658661 0.0547987 0.955905)
(0.0334584 0.0339783 0.982487)
(0.0106241 0.0254645 0.990753)
(0.0269654 0.0379611 0.9735)
(0.0347765 0.0419345 0.972844)
(0.0321935 0.0324621 0.981526)
(0.0204582 0.0302567 0.981483)
(0.0354039 0.0387076 0.976757)
(0.0266585 0.0396507 0.979737)
(0.0398065 0.0447906 0.970454)
(0.0472252 0.0521838 0.963045)
(0.0349105 0.0564949 0.957987)
(0.0853672 0.0866529 0.935655)
(0.0550273 0.0553114 0.964454)
(0.0430163 0.0585406 0.96596)
(0.0642146 0.0556665 0.948297)
(0.0662145 0.0551859 0.947264)
(0.00241591 -0.00702776 0.99777)
(0.007628 -0.0195601 0.993418)
(0.00663339 -0.0140761 0.99442)
(0.00237654 -0.0152771 0.994824)
(0.00200055 -0.0115281 0.99768)
(0.00349829 -0.0149211 0.996992)
(0.00368128 -0.0137179 0.996391)
(0.00567542 -0.0167253 0.996947)
(0.0189419 -0.0301132 0.995337)
(0.0305396 -0.0469641 0.994758)
(0.0293827 -0.0376192 1.00546)
(0.0254934 -0.0452306 0.979964)
(0.0189731 -0.0381569 0.990073)
(0.0240607 -0.0426534 0.995145)
(0.0251573 -0.0367592 0.992228)
(0.0272886 -0.0426663 0.992633)
(0.0153239 -0.0192529 0.988732)
(0.0348208 -0.0311342 1.00079)
(0.0319695 -0.0306587 0.990967)
(0.0204482 -0.0259546 0.983025)
(0.0163527 -0.0234724 0.989492)
(0.0269471 -0.0282246 0.995598)
(0.019697 -0.0263813 0.981234)
(0.0238966 -0.0314089 0.987547)
(0.0018423 -0.025452 0.987607)
(0.00753869 -0.0404966 0.977802)
(0.0100052 -0.0283315 0.97985)
(0.00162767 -0.0349483 0.976385)
(0.00239092 -0.0308674 0.98695)
(0.0102886 -0.0327416 0.984848)
(0.0046407 -0.0343455 0.978091)
(0.0121076 -0.0355959 0.981218)
(0.00816467 -0.0237725 0.993361)
(0.00658386 -0.0185328 0.993366)
(0.00323682 -0.0207656 0.993989)
(0.0100125 -0.0351114 0.987749)
(0.00980386 -0.0278767 0.99045)
(0.00720409 -0.0225463 0.995453)
(0.00977257 -0.0279581 0.987699)
(0.00672553 -0.0246184 0.992362)
(0.0140231 -0.0257077 0.996343)
(0.0180949 -0.0366661 0.983253)
(0.0253759 -0.0352931 1.00168)
(0.0107189 -0.0231735 0.993179)
(0.012293 -0.0278395 0.992135)
(0.0174741 -0.0308969 0.99149)
(0.0169097 -0.0243365 0.995262)
(0.0191507 -0.0307665 0.991532)
(0.00895788 -0.0217565 0.991711)
(0.00390909 -0.0225273 0.989069)
(0.0114651 -0.0365086 0.980752)
(0.0120894 -0.0270479 0.978672)
(0.00875919 -0.0215647 0.986898)
(0.0107679 -0.0254072 0.99037)
(0.0105725 -0.0260111 0.987495)
(0.0109195 -0.0311077 0.988501)
(0.0118086 -0.0228443 0.993634)
(0.0181445 -0.031288 0.980014)
(0.018845 -0.0386361 0.980596)
(0.026423 -0.0344003 0.992388)
(0.0146893 -0.0280319 0.989211)
(0.0182546 -0.0310173 0.988911)
(0.0241299 -0.0296761 0.98985)
(0.0255618 -0.0373021 0.983297)
(-0.0461213 -0.0305908 1.00347)
(-0.0570462 -0.030177 1.00827)
(-0.0285786 -0.0154711 0.992933)
(-0.0367437 -0.0212968 0.980823)
(-0.0480811 -0.0316567 0.994671)
(-0.0382533 -0.0311111 1.00234)
(-0.0393855 -0.0178437 0.985725)
(-0.0303681 -0.0212291 0.991689)
(-0.0663821 -0.0283538 1.00204)
(-0.0706841 -0.03231 0.995862)
(-0.0359476 -0.0240938 0.995274)
(-0.0481902 -0.0360241 0.976639)
(-0.05761 -0.0313172 0.984143)
(-0.0535969 -0.0302581 0.997725)
(-0.0458488 -0.0317249 0.988091)
(-0.0400411 -0.0296634 0.988613)
(-0.0147252 -0.00913435 0.996325)
(-0.0144088 -0.0135633 0.991777)
(-0.00245494 -0.00508869 0.997107)
(-0.0087346 -0.0108939 0.99419)
(-0.0130338 -0.0129195 0.996212)
(-0.0123973 -0.01167 0.99675)
(-0.00980237 -0.0108755 0.994589)
(-0.00649755 -0.0104123 0.99726)
(-0.0251466 -0.0256427 0.974543)
(-0.0289082 -0.0328284 0.97443)
(-0.0130855 -0.0174726 0.988701)
(-0.0140316 -0.0279212 0.9788)
(-0.0232712 -0.0299129 0.975439)
(-0.0225804 -0.0260644 0.977953)
(-0.0148512 -0.024362 0.982491)
(-0.0141972 -0.0250842 0.984113)
(-0.0533816 -0.0311239 0.991659)
(-0.0265622 -0.0197458 0.988964)
(-0.0335169 -0.0261879 0.977571)
(-0.035674 -0.0336945 0.976586)
(-0.0463589 -0.0239452 0.989014)
(-0.0324405 -0.0217935 0.989398)
(-0.0433332 -0.0311075 0.977581)
(-0.0360447 -0.0226998 0.980545)
(-0.0453603 -0.0313007 1.00266)
(-0.0376042 -0.0260855 0.977975)
(-0.0275708 -0.0217374 0.996513)
(-0.025142 -0.0187214 0.994705)
(-0.0354663 -0.0262072 0.991579)
(-0.0346795 -0.0262064 0.988811)
(-0.034069 -0.0195605 0.996237)
(-0.0280293 -0.0227725 0.988531)
(-0.0209582 -0.015652 0.990994)
(-0.0245289 -0.0207513 0.97941)
(-0.025993 -0.0298295 0.978654)
(-0.0144652 -0.0165426 0.989749)
(-0.0189888 -0.0140663 0.987153)
(-0.0237319 -0.0216027 0.985016)
(-0.0176645 -0.0199188 0.987157)
(-0.0227782 -0.0236089 0.983839)
(-0.0168279 -0.0139216 0.993804)
(-0.0118207 -0.0171266 0.991658)
(-0.0253748 -0.0287034 0.982795)
(-0.0172321 -0.0191566 0.991955)
(-0.0163258 -0.0169699 0.99271)
(-0.0184644 -0.0185195 0.989011)
(-0.0227167 -0.021406 0.986721)
(-0.0207047 -0.0226122 0.983867)
(-0.0331454 -0.0311588 0.929982)
(-0.0516893 -0.0386482 0.944158)
(-0.0479546 -0.025402 0.938581)
(-0.0288829 -0.031496 0.945804)
(-0.0334517 -0.0330311 0.933133)
(-0.0517997 -0.0324848 0.931479)
(-0.02931 -0.0302808 0.940115)
(-0.0407037 -0.0340766 0.935761)
(-0.0647213 -0.0373622 0.966542)
(-0.0749037 -0.0298885 0.991652)
(-0.0741657 -0.0388153 0.995746)
(-0.0512623 -0.0363037 0.974617)
(-0.0658915 -0.037596 0.966572)
(-0.0800104 -0.0326706 0.982818)
(-0.0549624 -0.0367333 0.965986)
(-0.0650812 -0.0279087 0.985835)
(-0.0549856 -0.0244767 0.96256)
(-0.0656882 -0.0393974 1.00105)
(-0.0518837 -0.0340448 0.998279)
(-0.043733 -0.0226389 0.975178)
(-0.0584666 -0.0269629 0.972058)
(-0.0608519 -0.0324537 0.997161)
(-0.0433029 -0.0235437 0.967414)
(-0.0489004 -0.0299912 0.994978)
(-0.0210675 -0.0321343 0.9638)
(-0.030042 -0.0341484 0.972745)
(-0.0273687 -0.0272717 0.97071)
(-0.0160593 -0.0298003 0.975194)
(-0.0208862 -0.0312197 0.966746)
(-0.0272557 -0.0299988 0.969621)
(-0.0184299 -0.0309297 0.969204)
(-0.0247565 -0.0281956 0.973338)
(-0.049684 -0.0387016 0.947843)
(-0.0520683 -0.0306635 0.947168)
(-0.0266799 -0.0325707 0.950027)
(-0.0382007 -0.0360961 0.960875)
(-0.0409881 -0.0362546 0.951507)
(-0.0484717 -0.0385315 0.946638)
(-0.0381018 -0.0353483 0.957498)
(-0.0327282 -0.0361165 0.951619)
(-0.0672553 -0.037519 0.950293)
(-0.0428158 -0.0383323 0.970875)
(-0.0734525 -0.0321004 0.994058)
(-0.0604142 -0.0287457 0.957623)
(-0.0580672 -0.0343705 0.956563)
(-0.054509 -0.0363821 0.962149)
(-0.0608667 -0.0369821 0.958443)
(-0.0658308 -0.0308702 0.971832)
(-0.0394608 -0.0294413 0.949743)
(-0.0292765 -0.0320326 0.95402)
(-0.0358074 -0.0346815 0.962753)
(-0.0342579 -0.030637 0.962107)
(-0.0422128 -0.0290198 0.956255)
(-0.0392866 -0.032608 0.957082)
(-0.0367786 -0.0272604 0.959317)
(-0.0293736 -0.034732 0.959993)
(-0.0538849 -0.0277906 0.96119)
(-0.0423152 -0.0278349 0.973211)
(-0.0430026 -0.0326166 0.973182)
(-0.0585649 -0.0289651 0.994671)
(-0.0531527 -0.0320707 0.967496)
(-0.0419225 -0.0284209 0.972639)
(-0.0470169 -0.0331144 0.963627)
(-0.0472532 -0.0289541 0.97237)
(0.0172399 -0.00677658 0.948519)
(0.0224978 -0.00630384 0.939709)
(0.0216474 -0.0145736 0.936706)
(0.0155917 -0.0171729 0.955656)
(0.019931 -0.00864823 0.939108)
(0.0209416 -0.00710259 0.932655)
(0.0169964 -0.0163448 0.952568)
(0.0193004 -0.012121 0.943451)
(0.0299159 -0.0057422 0.935054)
(0.0260863 -0.00568551 0.944858)
(0.0299683 -0.0129478 0.936416)
(0.0168701 -0.0187373 0.952998)
(0.0247443 -0.0143108 0.939058)
(0.0284772 -0.01283 0.938856)
(0.0233265 -0.0141657 0.946418)
(0.0269772 -0.0126337 0.94247)
(0.0231976 -0.0234596 0.933874)
(0.0312134 -0.0220712 0.933027)
(0.0310332 -0.0316231 0.923268)
(0.0227197 -0.0358622 0.939314)
(0.0226021 -0.0325746 0.94085)
(0.0276156 -0.0278521 0.929604)
(0.0246998 -0.0376244 0.935518)
(0.0277656 -0.0305726 0.933641)
(0.0113339 -0.0271703 0.965017)
(0.0129257 -0.028616 0.965237)
(0.0147189 -0.0349975 0.954337)
(0.00785594 -0.0331344 0.972854)
(0.0087992 -0.0334905 0.961856)
(0.0111801 -0.0350665 0.958382)
(0.00865173 -0.0335725 0.96986)
(0.0139852 -0.0349326 0.961158)
(0.0247658 -0.00900773 0.940176)
(0.0230996 -0.0201134 0.940825)
(0.0151594 -0.0218909 0.952702)
(0.0147516 -0.0259446 0.953091)
(0.0219856 -0.0139502 0.947018)
(0.0205759 -0.0179066 0.943262)
(0.0203017 -0.0155608 0.949446)
(0.0173266 -0.0199899 0.947757)
(0.0282008 -0.00717428 0.931725)
(0.0159661 -0.0270553 0.951424)
(0.0294177 -0.0189077 0.934105)
(0.0239341 -0.0164676 0.93159)
(0.0248473 -0.0116321 0.936584)
(0.0203681 -0.0234196 0.945925)
(0.026245 -0.0137681 0.936)
(0.0229544 -0.023422 0.945855)
(0.0187297 -0.0258165 0.947291)
(0.011883 -0.0270676 0.963586)
(0.0157405 -0.0279823 0.961709)
(0.0164311 -0.0388879 0.952421)
(0.0153711 -0.0264724 0.949987)
(0.0167048 -0.0220156 0.955526)
(0.0137015 -0.036194 0.952078)
(0.0136543 -0.0330463 0.957537)
(0.0221753 -0.0206252 0.939165)
(0.0205426 -0.0356819 0.945667)
(0.0172877 -0.0273228 0.956287)
(0.0282743 -0.0230121 0.940188)
(0.0216631 -0.031118 0.942274)
(0.0181039 -0.0318693 0.94755)
(0.0242225 -0.0286658 0.945763)
(0.0201358 -0.0273106 0.950263)
(-0.0787917 -0.279266 2.19709)
(0.0166881 -0.0179381 2.22718)
(0.0305166 0.0382815 1.81099)
(-0.0290755 0.110253 1.14615)
(0.112438 -0.241351 2.04063)
(-0.135189 -0.128757 1.75864)
(0.0313055 -0.199226 2.00603)
(0.0704554 -0.00402105 1.91604)
(0.104785 -0.102087 2.30675)
(0.0933317 -0.153782 2.40669)
(0.199805 -0.127227 2.19215)
(-0.00719901 -0.022363 1.25442)
(0.119096 -0.117606 2.22406)
(0.29616 -0.146642 2.00795)
(0.0608627 -0.0569769 2.20762)
(0.121255 -0.0856962 2.17388)
(0.0667311 0.07707 1.62295)
(0.163827 -0.0238256 2.1085)
(-0.0581673 -0.0676898 1.89783)
(0.0484809 0.0907526 1.37091)
(0.05998 0.0544867 1.95842)
(0.172873 0.0182044 1.9729)
(0.0382882 0.238448 1.76232)
(-0.0123584 0.134535 1.98546)
(0.0133314 0.0826365 1.10983)
(-0.00379807 0.0991173 1.10443)
(-0.000751327 0.100817 1.09985)
(-0.00123005 0.0768903 1.04102)
(0.0130318 0.0712392 1.08451)
(0.0201132 0.091957 1.1188)
(0.0222047 0.0833294 1.06433)
(-0.0052925 0.0858347 1.10131)
(0.112 -0.0881512 2.11063)
(0.0294056 0.0108886 1.96987)
(0.0664695 0.0603465 1.1493)
(0.0861684 -0.00646574 1.25461)
(0.0594666 -0.0369726 2.12514)
(0.0429814 -0.0243029 1.94623)
(-0.00120391 0.00564897 1.40711)
(-0.00914291 -0.00294737 1.35832)
(0.0932055 -0.0759044 1.92493)
(0.0517205 -0.0122277 1.51102)
(0.208228 -0.0234666 2.01912)
(0.000367332 0.0714184 1.78813)
(0.0726354 -0.0322912 2.09892)
(0.0278521 -0.0617688 2.23382)
(0.165033 0.0761856 1.91221)
(0.0363845 -0.00928461 2.1915)
(0.0242183 0.000187864 1.91581)
(0.0900809 0.0735231 1.10589)
(0.128943 0.0189755 1.16849)
(-0.0770211 0.176494 1.11336)
(0.0114531 0.0196327 1.33599)
(0.0298073 -0.0177041 1.2487)
(0.0203667 -0.0268194 1.23719)
(0.0273335 -0.0452997 1.23144)
(0.0486975 0.0795512 1.86077)
(0.0372053 0.038061 1.34101)
(0.0262569 -0.0629145 1.31441)
(0.0571099 0.028069 2.13001)
(0.0360696 0.0366281 2.00446)
(0.213927 -0.0752959 1.44486)
(0.00619992 0.035802 2.15104)
(-0.00929463 -0.0952352 1.46893)
(-0.00413255 -0.00397122 0.99875)
(-0.00945624 -0.00672276 0.995015)
(-0.0130249 -0.00811643 0.996311)
(-0.0108986 -0.0078123 0.994932)
(-0.00582348 -0.00515494 0.999157)
(-0.00953307 -0.00680451 0.998135)
(-0.00830425 -0.00927552 0.996689)
(-0.00975898 -0.00901981 0.995571)
(-0.0151761 -0.00501514 0.990091)
(-0.0180131 0.000254604 0.98297)
(-0.0223843 -0.00416789 0.985525)
(-0.0165871 -0.00686205 0.982049)