/*--------------------------------*- C++ -*----------------------------------*\
| =========                 |                                                 |
| \\      /  F ield         | OpenFOAM: The Open Source CFD Toolbox           |
|  \\    /   O peration     | Version:  2506                                  |
|   \\  /    A nd           | Website:  www.openfoam.com                      |
|    \\/     M anipulation  |                                                 |
\*---------------------------------------------------------------------------*/
FoamFile
{
    version     2.0;
    format      ascii;
    arch        "LSB;label=32;scalar=64";
    class       volScalarField;
    location    "1300";
    object      p;
}
// * * * * * * * * * * * * * * * * * * * * * * * * * * * * * * * * * * * * * //

dimensions      [0 2 -2 0 0 0 0];

internalField   nonuniform List<scalar> 
54912
(
11790.4
-653.422
2588.78
955.928
2512.34
3787.16
4286.89
7808.45
283.796
402.223
691.743
147.796
473.101
490.537
446.219
509.759
1513.67
-2664.17
747.064
-2237.22
2684.8
-1598.85
8642.82
-6385.29
986.278
-530.556
220.09
-258.597
476.605
-1223.71
1063.31
-51.0023
-118.138
4637.28
-1756.33
508.727
-254.959
4372.32
-493.67
-1313.73
-38.7885
628.738
766.903
5830.89
-229.72
504.984
-1424.8
-53.0322
1747.38
-2389.64
20.7406
1850.28
1128.93
-866.81
219.158
-1209.08
3954.7
-3633.46
490.556
316.228
696.561
-3975.7
-862.911
-13.0296
442.9
-3157.04
1592.02
17.7633
-939.982
-2875.41
-2346.81
1757.01
-2474.15
-1673.71
1656.21
-1827.45
-2122.75
44.2947
-1205.96
3072.43
692.587
539.734
1292.49
1531.8
98.1063
-545.777
2218.93
2540.97
1641.42
-102.866
1055.85
419.656
888.857
53.088
1107.99
1187.21
-5153.68
-279.497
-2672.27
-131.639
-895.716
883.652
-820.273
-1461.42
-6846.44
-210.625
548.171
-712.559
-2394.4
-344.952
1146.42
1766.55
-742.266
465.13
1507.54
1125.79
960.303
434.604
1449.11
688.917
-504.988
1283.22
358.885
2071.87
-929.299
1180.47
615.102
-551.21
2334.04
5150.48
11145.9
3572.02
442.56
5690.48
4634.3
-766.574
5297.05
-4229.57
2379.62
-2311.46
-2354.85
2346.35
2032.81
-887.599
12021.2
2625.32
4824.73
5136.92
884.933
5752.21
2866.72
-398.222
-402.713
95.4595
1910.3
516.882
-60.5737
202.82
218.002
921.335
-1986.95
2935.79
-623.512
-1063.02
3106.77
-899.834
1398.19
1207.77
4899.38
-1135.88
811.464
3371.04
203.183
-658.983
6553.6
-2040.5
4057.43
-382.898
-732.605
342.228
-645.65
785.61
545.374
866.6
1392.45
1355.69
-754.692
-1536.76
-2546.73
1862.27
1395.04
2163.65
93.9468
314.851
36.9982
284.55
213.176
216.999
241.772
272.757
476.71
730.852
493.678
423.657
568.258
586.484
538.832
613.008
108.909
412.148
214.636
416.541
263.898
291.987
207.001
313.371
324.633
415.709
586.025
430.416
371.819
446.823
352.682
446.398
387.044
204.469
353.79
421.869
435.279
349.429
426.751
390.963
426.053
455.186
416.851
196.898
487.497
501.75
321.623
402.485
218.073
319.181
436.704
429.121
247.702
348.46
381.088
405.21
273.418
470.71
456.48
425.665
337.177
388.511
384.203
482.624
591.346
2181.46
2184.66
1442.63
1342.15
1576
1255.08
1671.97
3181.63
3525.9
4528.29
2551.7
3154.26
3244.23
2954.95
3219.7
4468.95
5969.95
8753.52
3516.88
4908.07
5915.95
4993.15
6425.08
937.527
1729.96
2651.13
653.484
1568.13
1936.19
2367.74
2596.46
2263.93
2785.27
1608.64
2071.77
2176.7
1954.33
1924.41
1965.87
2643.76
2395.27
4018.4
3190.15
2716.48
3016.75
3475.17
3556.04
3008.25
1832.93
2157.58
2990.91
3085.73
2358.01
3106.74
2577.35
3491.48
3619.42
2672.43
4292.01
3928.58
3430.65
3646.44
3229.39
149.919
64.3353
-34.4714
-26.18
177.501
100.22
11.4526
45.9457
89.9294
101.678
20.8868
163.03
155.519
61.5195
119.35
106.317
-199.417
-15.5562
-283.669
-490.683
-191.774
-166.929
-504.971
-263.344
-531.708
-272.814
-297.632
-543.736
-388.75
-394.988
-271.045
-244.147
114.209
58.407
13.2023
7.02098
105.056
148.791
106.138
13.7854
28.1544
42.0941
-6.38763
-34.906
94.0688
116.496
14.2553
65.6879
-228.277
-236.272
-106.484
-602.153
-197.643
-149.022
-212.564
-213.955
-144.874
-398.74
-65.3302
3.60059
-159.152
-166.477
-20.3498
-94.8932
1438.47
2221.96
-1594.27
-218.5
-150.688
337.655
-1584.51
-2194.25
1274.7
-385.307
-1970.87
-806.641
1146.24
-625.11
-575.441
-1458.03
-3260.54
-2489.77
-866.07
-1224.55
-2320.95
-1807.31
-1427.92
-1191.48
-1199.87
-443.298
-966.21
95.8856
-664.496
-657.327
-215.375
-376.415
475.84
-1549.2
-328.371
-526.884
-1344.55
-1474.77
-840.96
-785.671
-252.565
-841.014
-2203.92
-2733.01
-1431.88
-1074.1
-2404.52
-1485.55
-2148.77
-922.114
-565.224
-820.421
-1930.4
-1251.1
-740.284
-950.121
-2717.56
-822.274
-700.337
-2088.66
-2097.69
-957.634
-1625.83
-1493.39
293.391
1852.75
253.447
1214.61
890.384
982.052
893.282
886.478
4343.37
6532.03
3456.71
4732.1
4866.65
4902.77
4655.11
4656.1
-214.647
1275.39
106.574
138.277
829.498
929.136
354.874
476.997
792.793
2626.86
252.028
633.291
1306.3
1488.05
417.051
669.777
2649.03
914.154
1627.05
2989.08
2379.14
1432.86
2962.37
1991.83
2831.07
3458.78
2596.61
1061.2
2572.67
3335.61
1514.64
2324.96
893.71
979.65
2167.04
432.217
446.942
1082.59
1569.7
1855.49
704.132
678.443
2496.78
2425.56
1297.56
1478.66
2151.12
1832.26
2230.96
1726.21
2738
1726.92
1649
2232.84
3924.42
2738.18
1022.3
841.137
2014.36
584.699
293.892
974.13
806.884
1534.19
2335.9
1360.84
1677.3
-572.989
3958.2
1630.83
2519.85
3626.59
53.2447
449.984
-1305.71
-451.591
946.691
-499.102
863.257
-664.678
1253.15
3345.42
2371.6
585.632
2230.23
1302.94
1475.9
-164.305
622.155
182.375
1779.17
1229.07
898.531
598.359
1307.26
1158.52
4094.27
2269.35
57.1936
266.232
-361.746
251.073
852.663
-36.9735
921.541
-331.217
23.4647
2350.42
1216
-5.32436
805.839
32.8533
-8487.83
1043.52
-1889.81
-564.959
-8708.69
-86.0004
-9681.47
1088.72
5393.87
8769.54
6194.97
4420.23
4607.68
6871.62
4434.38
6186.33
2132.69
4846.84
3368.41
2112.01
3171.33
3523.07
2913.33
3437.51
655.475
2362.92
1751.45
1109.03
1176.66
2603.1
1074.15
2210.29
410.63
1074.36
1852.21
2882.5
1310.37
1847.63
1950.99
2172.28
1721.09
3844.09
5022.68
2021.57
2205.87
3496.85
2636.28
3060.94
1512.19
2547.93
2796.52
2081.31
1643.22
2249.61
2068.16
2412.44
2610.11
2620.61
3659.76
4457.75
2721.38
2870.42
3173.43
3086.02
12.2892
205.148
1743.13
1343.42
669.595
614.555
1336.76
1337.95
202.027
238.682
3215.14
1218.78
528.94
673.236
1385.23
1467.82
2346.21
3648.61
7477.16
-1500.93
2575.7
1313.3
3756.48
4261.43
2210.37
2433.63
2009.87
2169.75
2244.3
2326.68
2171.98
2553.76
955.953
1577.35
1821.11
2074.06
967.112
1314.88
1535.52
1895.07
598.666
1562.37
2818.7
1685.2
1159.98
2212.01
1365.62
2823.36
3154.53
2437.38
1299.55
2565.17
3217.65
2601.63
3073.3
2299.69
3092.77
2875.85
1839.83
3636.72
3405.17
3853.09
4085.13
831.527
463.242
660.399
598.626
827.707
516.234
504.344
772.52
616.481
558.144
-27.3207
-71.4294
1162.9
557.122
11.7831
728.874
253.789
657.766
-49.3259
-414.214
961.387
617.343
172.758
776.733
390.744
1324.02
1788.65
1906.26
1947.61
1536.92
1776.88
1779.08
2067.08
768.407
717.933
957.055
1461.2
895.161
787.247
1284.09
1033.88
645.985
1463.32
294.926
634.748
799.408
1141.87
569.438
675.469
865.269
1174.7
1769.83
1624.97
1060.21
1186.91
1397.31
1436
741.012
1508.93
1718.51
814.738
906.724
1265.24
947.543
1025.21
2.18039
98.2566
17.3799
253.893
67.2399
-8.99292
173.555
115.88
96.9826
76.8741
2.79174
339.675
122.139
-30.5539
176.849
130.175
57.8072
17.5683
-35.5577
181.498
103.912
35.401
188.104
-22.7705
233.18
500.344
134.94
322.113
271.137
343.058
272.13
193.401
91.1416
89.3905
274.177
339.191
119.596
154.807
271.56
261.343
11.3228
293.975
15.663
19.6368
161.787
172.696
89.0535
115.784
181.333
275.683
413.973
200.229
273.056
336.166
264.244
368.619
114.441
160.252
378.933
78.1026
184.932
251.451
168.673
252.342
10707.8
8531.96
9093.71
7713.2
9682.74
9146.49
8702.36
8228.67
7040.2
4852
5281.19
4833.68
5112.67
5749.74
3509.42
4067.54
6493.37
3465.39
-732.446
3955.37
5242.06
3741.45
4312.73
2368.7
4493.24
4082.15
3659.09
5002.81
5086.17
4147.97
5403.53
5239.49
7105.91
7398.36
6666.2
5171.37
5879.81
6483.68
6907.17
7032.11
7803.41
5042.81
5389.67
7160.99
6052.65
4190.38
7125.27
5609.39
5917.34
4108.03
3367.19
3259.39
7214.78
5700.26
4686.79
4334.9
5503.78
4174.54
4704.71
4226.62
4133.29
5533.73
4140.24
4981.33
1640.39
833.837
2711.92
1422.5
4309.03
1103.43
4256.55
4478.21
2228.08
852.993
1130.28
1562.63
1906.25
1343.9
1818.71
1258.67
2188.64
786.551
-86.5741
1630.22
1741.66
1151.78
1421.14
1179.64
1988.87
2040.01
2146.26
1999.4
2292.34
2176.55
2117.43
2237.52
2048.27
3031.22
1509.76
2182.67
1695.65
3351.58
2651.63
3124.54
2383.02
1853.65
1263.78
3136.97
2235.48
1909.68
2251.52
2135.25
2892.29
948.959
2071.43
2588.73
3224.97
3080.98
2803.15
2324.13
2602.56
2108.75
1855.29
1292.09
2340.37
2215.26
2164.39
1766.17
-94.0671
720.406
678.275
1055.83
720.353
673.284
807.856
721.453
868.751
813.098
867.946
1152.84
1127.22
958.888
1005.05
846.061
594.926
751.443
328.832
765.794
667.154
640.217
747.048
391.514
1822.47
1590.95
1275.45
1637.53
1848.24
1683.52
1623.12
1466.1
971.102
857.533
1715.91
1653.13
1178.11
1110.08
1517.63
1494.58
749.543
1455.61
889.109
733.561
1056.93
1046.57
985.411
960.793
881.232
1692.36
1571.89
1057.23
1084.53
1451.89
1157.81
1413.92
746.465
911.193
1202.53
809.409
779.263
1043.51
948.627
1122.19
-3156.69
1469.62
1978.24
12.9797
14187.2
11639.3
1557.48
6027.63
5387.1
3753.98
3660.13
4373.76
4216.2
3336.74
4735.06
3567.9
-1063.22
2536.14
155.249
-2648.8
10238.7
7850.81
2350.41
397.071
8191.67
5521.08
4468.46
9428.18
10870.6
9459.69
9117.65
8397.93
2360.33
12204.5
9984.71
6300.39
4928.02
6303.05
5985.95
8981.61
2008.33
5302.71
1225.95
13498.9
2727.28
1194.84
2552.11
1530.16
3968.71
6568.76
6319.24
3859.71
-2446.47
6863.34
4598.29
7440.52
6516.81
5993.37
6282.58
1756.78
4098
5441.71
4052.23
3756.36
9924.79
10341.2
9122.56
8881.89
9901.74
8252.62
9008.28
8203.65
9553
6492.1
5616.31
4293.46
7373.58
6631.14
6013.29
5891.52
10542.2
7378.73
11493.3
8926.86
9092.37
8783.78
9441.26
9095.33
7648.31
4152.61
7020.92
4793.89
5998.33
5314.91
5697.96
5756.21
9015.45
8528.05
8355.83
6294.78
7582.54
7855.8
7134.92
8313.62
7778.83
6418.34
7018.18
7812.5
7241.1
6759.68
7467.32
7036.46
9533.53
8564.81
5839.43
8158.72
10099
8063.16
8356.59
6072.27
8790.4
7664.43
5252.35
6340.9
7487.48
7907.03
7319.65
6198.5
-148.521
2925.82
1745.01
3067.04
2963.53
3139.81
2400.28
2524
2813.8
3753.84
2151.37
2866.22
2752.62
2753.26
2826.18
2442.22
1213.07
1176.08
97.151
1700.35
1387.75
784.274
1275.48
1177.19
4190.14
3183.81
2671.4
3552.26
3950.51
3725.57
3394.58
3383.18
3038.59
1981.55
3596.47
3208.11
3038.7
2813.46
2829.45
2665.6
2705.61
2784.36
1801.71
1990.97
2696.62
2096.36
1974.19
2448.38
1630.13
3411.03
3256.3
2091.94
2557.62
2767.54
2537.66
3011.77
1989.42
2303.05
2735.18
1770.16
1859.82
2429.09
2026.74
1851.44
10457.2
7424.46
6605.05
8830.59
8528.43
7880.98
8499.69
7685.34
5217.29
4726.11
4119.57
4136.88
4863.1
5128.47
4764.91
4298.06
4889.89
3741.61
1262.01
3723.39
4576.4
3639.17
4501.26
3274.56
6661.83
3845.66
4730.45
4256
5110.03
5037.4
4485.38
4521.06
5840.26
6540.26
6555.43
4944.9
6158.12
7134.21
6176.76
6269.29
5099.56
5168.2
4454.61
6073.12
5315.69
3684.95
6996.97
4557
6343.4
6248.02
3987.58
4370
6249.76
5950.14
5301.47
4700.51
5552.69
4540.84
4039.83
3909.5
4705.18
4831.87
4214.77
3451.22
-3358.6
3660.75
4581.3
4761.27
-5064.68
12688.3
2643.78
11371.4
4902.04
18866.4
3907.14
3324.68
-16335.3
20868.7
6866.91
10177.1
3697.09
7331.14
9328.78
4535.1
3389.72
6890.86
4737.53
7014.56
1934.28
2880.99
2056.68
1811.38
1269.83
2077.44
1300.91
2471.05
-5364.49
3040.1
3639.34
4746.58
2331.62
5144.36
1670.94
1797.4
19601.6
5259.66
3334.5
2469.36
9933.5
7947.78
3382.5
-810.369
4766.24
1448.2
1743.52
2406.36
3113.74
1732.54
2514.45
304.725
3836.08
3821.38
3208.39
4045.71
3671.05
5683.52
3671.03
5387.24
1124.89
786.062
-939.579
-1847.17
743.728
3141.95
-4370.8
-591.931
887.594
6516.41
1518.71
6552.24
3307.96
5253.72
621.151
1209.28
1191.69
1977.46
-411.237
-119.572
962.213
583.127
153.751
783.807
572.853
2618.65
47.1995
-241.958
702.477
219.034
214.67
425.18
172.328
335.344
-76.7664
3269.28
-308.352
-918.314
2182.34
-1535.61
2660.86
2066.85
3827.33
995.329
675.946
-216.945
516.588
553.809
-176.107
463.837
2030.24
4.88537
1211.75
99.8752
970.589
-766.637
814.795
546.729
2092.92
1216.96
1221.71
1853.32
1021.12
1076.14
-1103.94
-2544.2
-1956.22
-2217.33
-1555.6
-1483.26
-2675.67
-2569.46
-1921.63
-1181.1
-3906.11
-3106.41
-1545.64
-1609.21
-1907.71
-1726.45
-1581.87
-1797.46
3473.12
2987.25
-851.811
-43.8181
862.467
44.0995
-2498.35
-3168.73
3084.18
-534.711
-2490.75
-3431.04
-83.0975
-1210.16
-2136.33
-2124.78
-1981.91
-3381.23
-2496.48
-3381.23
-4079.08
-3560.01
-1860.26
-2496.6
-3763.2
-3329.4
-2912.53
-2663.37
-4100.16
-3510.85
-1482.45
-2054.77
-3050.73
968.337
-2526.39
-2422.8
-1907.9
-2720.68
-2124.55
-61.9132
-2471.64
-2996.43
-2325.39
-1338.69
-2972.58
-2745.31
2332.17
2016.84
2638.03
1849.47
2413.95
2345.44
2092.9
2482.16
2610.62
6103.67
4892.59
3722.85
4630.49
4465.19
1588.03
3344.09
3366.65
4186.66
3706.41
3710.09
3906.91
3153.12
-275.057
-78.4069
1266.15
2141.48
2314.08
882.59
1102.15
1541.39
1144.77
2082.61
2362.37
1962.92
1351.27
2519.17
1745.66
2525.8
2002.62
1663.25
2202.61
3493.29
4619.57
2451.75
2185.23
2343.03
2849.56
4900.03
1073.89
898.187
1861.97
1072.64
1682.94
1793.24
3299.47
2750.39
2225.22
1459.66
5056.1
2775.5
2852.03
2929.76
1861.41
4581.4
-5.59569
-220.888
94.083
72.016
-158.175
-121.726
-34.9611
-65.2026
-357.352
-848.234
158.27
-368.48
-557.117
-484.218
-255.093
-169.958
207.078
348.754
337.301
394.18
356.338
373.123
420.014
467.224
-291.633
-514.375
104.575
-489.813
-380.267
-148.051
-154.242
29.8517
-350.067
149.985
-187.235
-295.811
-83.1921
-67.6293
-152.567
-99.1599
-284.014
-109.842
284.518
202.873
-63.6676
-32.506
135.746
195.933
274.526
26.1843
16.9701
435.266
204.448
49.3087
244.312
121.918
302.543
557.017
106.673
419.783
398.472
385.836
343.622
202.122
-3458.94
-518.157
3798.41
900.495
-3563.01
22798.4
-7145.28
4817
3173.65
580.574
1523.01
1439.86
1500.52
1762.4
1189.34
2819.04
-7143.47
857.692
3534.93
221.5
9242.86
11205.5
6323.9
3125.06
1550.94
2183.71
1668.93
2298.67
2195.3
2108.4
1881.97
1946.17
4598.62
9639.6
931.491
1923
2060.5
-622.728
268.413
6787.82
6586.88
1267.12
5601.56
13514.6
3083.02
1894.77
585.554
2113.83
9740.18
266.251
1344.57
2058.51
-4600.92
4035.67
3568.34
3317.68
4472.5
5472.26
1309.97
1032.69
5257.08
4079.2
3031.25
2705.71
-486.865
1580.36
635.778
479.947
2846.68
-504.267
488.753
1913.9
1197.98
267.807
1073.94
551.204
608.948
450.529
707.529
478.081
3010.19
2043.79
2802.15
2340.87
2002.62
2037.14
2190.06
2212.17
1523.96
-42.6303
1334.17
-626.66
642.013
690.292
536.517
860.47
1629.16
2488.96
1414.22
663.013
1629.2
2066.38
1496.26
1486.42
1360.29
712.26
1340.47
1685.14
1557.89
1130.04
2049.5
1282.57
2286.43
1360.56
440.324
1724.81
2177.66
1754.54
1678.03
1231.89
1941.15
1847.77
540.838
1349.37
1995.05
1711.73
1400.08
1394
256.627
266.231
365.719
587.981
361.763
340.019
483.87
448.78
157.846
46.369
374.466
1078.03
169.461
28.7077
644.311
504.636
386.279
519.228
350.682
685.223
573.928
544.122
613.768
550.494
1211.37
1761.11
1212.96
1708.9
1446.79
1475.93
1469.37
1437.63
365.051
525.783
857.339
1135.52
621.252
587.677
813.879
786.251
287.615
1069.3
592.351
493.841
537.722
726.699
513.483
648.386
566.719
974.627
1371.45
979.602
682.163
931.475
923.769
1213.32
547.636
922.215
1305.78
708.854
729.265
876.807
752.119
1028.44
11942.6
8847.4
10065.5
4234.85
6414.12
10081.7
4565.61
7090.86
9088.11
10122.6
8317.15
4744.6
7087.42
9048.6
5383.88
7556.96
4238.96
1830.16
5930.32
18.3783
1785.62
-731.873
22941.6
16067.6
1941.87
2757.95
2198.25
2062.14
1802.95
2048.14
2211.55
2317.03
7302.58
8211.28
1628.67
3033.59
5062.72
4293.62
3268.88
2827.85
9422.16
4117.27
5420.83
10467.9
6522.08
3752.68
6665.47
3920.91
7819.64
1751.23
3204.24
3997.07
2342.89
2549.66
3580.22
1667.39
4147.94
4508.37
4398.72
4757.77
-320.091
3655.7
275.862
4205.53
706.415
256.06
2542.67
1390.98
874.223
752.754
937.683
1070.37
66.7936
78.036
1117.05
-110.511
-112.901
201.526
-195.161
245.572
4672.03
3409.31
7935.29
4190.1
4158.62
4528.85
5213.47
5572.13
1339.96
377.813
2493.65
800.566
957.498
1245.44
1565.96
1732.63
482.284
2569.36
1186.43
28.9432
718.112
1661.99
322.781
1518.2
556.406
358.037
2083.23
2749.3
1070.02
1010.74
2062.07
1953.32
3204.33
1761.68
983.687
2420.83
2913.03
2088.98
2529.53
2096.03
3412.19
2638.82
1171.25
2555.85
3384.58
2623.93
2361.44
1777.89
1229.49
3539.25
2263.12
1896.6
1526.88
2294.13
1375.03
2111.48
5773.5
8136.59
7154.79
4114.83
6386.79
6802.53
5279.96
6401.03
3292.44
6652.03
9644.72
2823.03
3005.38
4433.46
3433.74
2286.71
1752.41
2951.31
1502.86
1316.56
1809.55
2101.65
1559.7
1568.79
3708.03
2749.19
2025.99
3915.05
3197.94
2477.98
3161.57
2346.2
4474.63
3047.43
6115.23
3775.05
4003.16
4628.65
4229.16
5065.39
2199.55
1046.72
2713.83
1650.1
1488.59
1458.85
1488.9
1916.45
2857.96
916.528
2835.34
5135.26
3179.13
1940.54
3980.27
2945.54
6158.56
7409.35
5249.42
7142.74
6351.47
6472.39
5810.64
5580.91
9101.78
9991.48
8578.96
8514.85
8534.12
8982.87
8190.58
7912.58
3923.12
6175.24
2130.23
4873.22
3353.93
4177.62
3096.6
3100.12
5969.12
6292.26
5390.36
5228.55
5724.11
5590.23
5061.82
5221.41
7443.44
4891.48
7459.27
8339.15
7160.78
5748.4
7673.32
6553.8
7641.96
7289.76
7072
5321.07
7146.17
7059.15
6708.61
6297.48
4542.81
5718.41
6830.3
4234.9
5372.58
5693.67
5797.61
5762.28
4183.32
4470.59
6709.38
5979.53
4312.42
5432.17
5945.33
6597.98
190.925
403.024
129.345
762.495
392.375
227.048
544.787
414.239
596.748
798.13
-196.466
1593.06
901.962
559.447
1090.54
804.92
-44.1488
-307.795
-124.278
1088.86
122.64
-236.804
265.215
-320.204
1392.9
1737.33
1738.94
2045.69
1501.98
1642.99
1730.82
1722.09
666.534
360.696
924.12
1245.81
804.026
698.162
1066.2
886.84
396.991
1332.17
-56.2705
15.1832
642.784
913.627
131.917
335.255
486.434
1109.3
1511.05
1306.78
826.229
980.438
1195.38
1303.56
152.984
1271.86
1424.19
11.8118
504.371
1199
525.662
1205.13
-400.132
-678.796
-2544.7
-958.726
-815.74
-1536.29
-1445.47
-1828.71
-970.041
-304.86
-995.266
-1629.55
-721.603
-974.774
-1671.97
-861.81
-1728.27
-807.324
2250.3
-712.381
-1720.14
-1063.44
-491.568
-108.019
-860.399
-1536
-1122.73
-339.339
-890.614
-1457.95
-615.228
-1872.87
-1004.91
-2322.1
-1111.42
-1873.7
-1800.85
-2056.78
-1541.34
-1691.2
-2176.38
-1973.26
-1868.96
-3166.15
-1872.9
-1945.96
-2291.49
-2543.29
-2248.83
-1053.89
-1876.63
-1470.13
-1653.43
-1584.34
-1525.45
-1815.37
-3111.44
-1732.68
-2162.59
-1086.5
-2235.46
-1681.58
-1994.76
-1623.37
1758.55
-195.711
1212.66
3853.54
5163.49
13346.7
5337.48
1918.26
-1781.72
-151.632
-609.328
1406.62
-3.59464
-415.657
-90.0539
249.411
841.894
49.497
1079.68
1937.7
1470.51
315.475
1660.19
1255.33
2948.35
1865.28
2021.97
2309.69
2929.45
2039.97
2628.83
2381.33
-1011.61
2202.04
2763.55
1693.09
1009.01
3597.17
2067.58
1906.46
281.838
1317.99
-372.114
692.784
1107.93
720.655
353.587
499.694
4205.55
3885.6
2148.73
2184.78
1630.67
1909.4
1925.22
2445.39
1582.59
1867.55
1594.23
399.343
1573.94
1672.58
1161.96
1308.25
8882.02
6298.55
9939.27
5091.75
7815.48
7511.78
7005.54
8493.79
6153.82
6191.47
8853.97
3584.53
5683.81
6769.15
5156.21
7138.12
12352.1
10653.2
11106.1
8450.66
12476.6
11343.1
9871.87
11364.4
4686.31
4035.59
6812.49
4286.19
4807.21
6025.15
5274.77
5873.97
6962.67
10855
5797.97
5371.29
6519.5
5903.38
4127.14
5710.24
7464.02
4185.46
9433.08
9652.05
8413.87
6245.89
10251.3
9518.75
9477.41
5550.01
5805.09
8154.22
7177.54
6101.3
7517.97
5700.83
11043.7
7718.7
5208
9735.64
10151.3
7239.45
8242.69
6013.21
407.824
883.31
586.424
1193.9
527.034
386.237
1438.95
783.49
1523.29
3226.4
1028.29
2728.5
1856.66
1804.7
2006.71
1926.67
181.872
-38.1691
178.774
88.3051
210
196.907
35.5918
-13.7965
2483.78
2874.41
652.256
2850.59
3016.86
2812.49
2523.88
2193.17
1244.68
685.275
1739.28
2012.81
1443.87
951.183
1726.2
1736.9
1355.2
1978.08
596.374
700.326
1138.16
1069.77
868.686
701.854
1093.69
1947
2469.43
1057.38
1316.63
1664.17
1256.1
1489.13
487.581
754.822
1800.8
714.946
727.134
1304.58
1228.91
751.596
8024.45
7493.35
6883.56
4391.1
5464.11
5766.24
5463.95
4148.89
5206.54
3897.12
2953.34
872.488
4771.93
4279.67
4327.1
2981.53
5225.42
3147.69
1742.41
-759.345
2909.35
2968.29
2050.12
2061.88
706.758
-82.6255
-832.943
-334.425
1124.06
1784.32
650.172
764.153
5117.64
4371.17
3260.16
3039.83
3866.77
4210.86
2551.13
3328.56
4636.78
3434.47
4906.97
4851.29
3284.07
2726.69
5143.97
3662.7
3768.66
2657.24
2806.01
662.112
1754.93
2017.26
1187.85
2377.35
3756.33
108.729
2470.63
3640.92
4178.44
2139.63
3192.16
-1297.97
737.284
-3269.5
-3965.61
-1644.4
-1093.33
-2691.6
-2931.81
-3348.04
-1875
314.368
-757.415
2902.46
-4070.28
-246.214
-628.303
-52.2008
-4375.44
-2394.42
-3735.62
-1110.04
-3302.42
-3014.05
-2856.6
-2651.06
-600.145
1310.91
166.891
885.752
-15.9252
879.789
171.683
397.766
-3693.53
-3062.1
-1712.76
-325.068
-2976.69
-2304.63
-1144.88
-1820.25
-3595.28
1546.36
-1368.85
-4049.21
-3126.83
-1332.93
-3546.11
-2123.92
-3065.12
-1491.6
394.609
-1031.78
-1927.8
-1909.41
-1363.49
-592.182
-3429.79
-960.707
919.082
-1623.59
-2461.2
-907.553
-1513.13
-88.5764
-493.42
-1336.19
-1145.76
-750.95
-514.574
-1024.74
-476.027
-654.998
-2966.94
446.438
-3284.96
-2831.4
-3983.85
-3761.9
-3024.91
-2466.88
-2965.14
-4217.46
-3519.28
-1361.03
-3230.89
-4191.04
-2202.38
-3372.69
-401.229
-919.33
97.2584
741.519
-133.691
-805.903
295.884
161.776
-1917.42
-1248.36
-716.508
-2231.54
-2124.78
-1281.02
-1746.12
-1087.57
-2559.92
-2613.06
-3735.43
-1979.06
-2015.17
-2588.08
-3266.69
-3240.8
-1153.96
-431.366
-1706.85
-326.323
-1397.21
-879.203
-1042.26
-1125.41
-1475.86
-869.491
-2059.36
-3492
-2461.57
-1848.56
-2978.46
-1971.27
175.979
129.898
173.212
1565.87
353.902
246.274
632.412
475.069
126.953
240.049
-262.559
2363.78
795.89
374.023
980.072
911.803
-41.0794
-20.9922
604.203
641.812
-17.65
706.745
-187.216
228.982
4107.67
5046.4
3471.53
7375.79
5460.58
4666.52
5322.58
5397.16
551.188
540.197
2060.53
2317.63
753.369
719.962
1805.33
1608.93
331.079
1976.25
373.767
383.009
558.851
764.865
41.3993
840.722
850.462
2310.76
2591.77
1936.96
1659.24
1873.99
1905.36
2457.61
558.419
1505.54
2154.36
484.965
91.3502
1468.07
1077.04
1586.93
-178.109
252.613
-643.201
-1401.53
-431.214
-33.8157
-885.53
-171.317
1427.35
4124.77
3700.8
2270.57
2770.61
3416.6
2862.52
3244.36
-784.924
2925.01
2090.56
-377.816
64.6218
2657.01
-156.535
2263.24
-1857.6
-647.949
-1467.66
-747.887
-1473.49
-249.577
-1328.36
-339.896
705.706
-165.503
-1501.5
870.82
344.973
333.534
-899.008
-1399.93
1148.82
2173.39
2863.96
-86.2127
818.134
2105.66
-53.8807
2191.67
-861.674
-2058.63
-428.313
-1654.23
-1363.59
-1149.92
-1491.47
-2056.94
-529.752
454.319
1339.97
2803.29
843.212
121.675
1775.61
395.21
7588.67
7004.77
7499.85
4036.02
6085.57
7012.63
5827.2
5871.67
5319.42
4089.21
3413.22
99.0704
2939.14
5194.99
634.659
2172.12
6328.66
3766.95
4849.11
3050.08
4447.43
5117.82
3793.27
3406.23
1810
-187.077
495.921
-1127.57
799.839
-137.78
318.802
84.5043
5461.67
6154.65
3058.24
422.868
3660.23
4744.5
2696.11
3027.83
5847.85
808.797
5035.32
7222.78
3991.86
1742.41
6608.95
3806.08
5575.21
2381.5
-88.6527
1895.32
4614.5
2625.87
2309.46
599.23
4969.87
1970.09
408.555
3139.17
2756.81
2819.42
2326.61
1606.65
-777.008
-1159.15
-436.034
399.78
-326.842
-615.614
-88.1481
-147.039
-2146.21
-2822.63
-1233.11
-186.443
-1211.74
-2295.24
-295.784
-869.231
803.277
222.556
-1045
572.558
840.173
-348.666
1799.03
1125.63
765.16
690.859
1262.65
1095.59
951.917
931.954
1264.52
1188.2
-646.604
69.8491
314.917
304.103
-161.436
95.7426
41.6485
262.236
-1220.85
85.6602
-245.829
-339.078
-59.1671
3.44972
-237.43
-205.263
844.391
548.59
732.781
1144.89
410.171
542.509
807.661
870.883
700.686
966.62
529.863
-334.939
825.427
738.793
-22.7016
468.901
-2185.01
-1022.79
4807.73
-4807.68
-2695.83
2892.36
-2859.13
457.431
2072.2
4653.13
2518.81
4631.14
4045.73
3929.43
2815.47
5064.38
1194.63
2283.62
1957.66
608.45
-1480.39
1769.1
-1553.01
2904.91
-264.711
203.128
-210.269
49.2062
-2169.39
-975.54
-1150.17
-889.606
658.266
-169.57
-1336.1
388.217
-302.839
1663.45
136.249
293.309
1875.77
2338.75
2076.05
1025.36
1853.73
3956.54
552.274
1164.41
-994.356
990.083
347.571
-1058.22
-2827.48
1148.58
-896.407
869.27
-224.106
610.723
2624.2
3806.03
662.114
430.024
704.169
1903.63
-227.508
-905.458
-635.654
36.3533
-439.166
-692.176
-177.779
-539.07
-1684.99
-2774.52
-1988.61
-201.256
-1757.75
-2277.37
-1249.97
-1711.09
-894.298
-1232.76
-1066.71
233.193
-653.556
-934.441
-321.895
-595.925
482.259
671.198
675.586
960.558
628.66
642.479
770.865
765.136
-974.787
-667.788
156.492
84.298
-488.084
-420.551
-71.8115
-35.0337
-1580.34
-146.201
-1487.14
-1058.03
-961.617
-1055.99
-1113.2
-1186.69
-424.504
361.703
345.758
369.462
25.0354
208.768
189.26
387.753
-607.249
293.889
165.836
-1002.89
-468.09
122.189
-602.062
58.0428
-987.286
791.07
1402.4
2245.79
1798.01
1269.77
1998.54
1412.08
570.504
321.275
291.223
1418.11
736.695
371.291
1188.88
447.908
665.922
323.721
-77.7987
939.365
802.861
341.652
88.1175
499.611
3537.1
2361.51
2464.54
3332.44
3118.93
2482.64
3637.5
2819.46
1080.91
1110.29
3100.31
1721.41
1672.33
1304.2
1557.6
2226.06
458.532
1695.08
925.977
595.416
899.692
838.691
987.466
679.094
1085.46
2848.16
2052.34
1733.05
2067.55
2241.23
2057.94
1930.49
795.952
1756.1
1338.76
525.25
539.824
1417.05
1046.37
801.158
13630.2
12863.1
12870.1
11489.1
12222.8
12763.7
12074.9
12045.6
11178.2
10878.3
10848.4
10072.2
10742.9
9993.86
10210.2
9569.73
12105.6
11508.9
12584.1
9301.52
11544.7
11779.5
10190.2
11842.3
9128.73
8286.2
8407.42
6237.88
7831.23
8224.07
7134.89
7595.58
11593.7
12007.6
10411.7
9738.65
11180.9
11564.5
10837.8
11115.1
11780.5
9883.58
11261.4
12029.7
11119.8
10807.4
11748.3
11279.1
11599.6
10129.1
9232.79
8402.85
11045.1
10553.7
9807.68
9631.38
11735.7
8956.3
9841.71
10839.5
11398
9554.28
10885.3
10184.3
4154.12
3256.73
4558.65
603.039
3008.08
3553.36
2561.81
2535.14
3390.76
3269.92
2861.03
347.146
2842.42
3141.14
1630.92
2717.29
4474.45
3273.68
5521.61
1087.41
2722.01
3798.81
2769.56
2881.89
-2618.48
-3348.87
-1796
-4410.58
-4176.71
-3399.09
-3844.73
-3388.42
2197.74
2147.14
-379.187
-435.377
1915.87
1020.22
785.9
646.505
2584.98
551.007
3467.43
2962.5
2403.83
1282.34
3349.99
3094
1738.19
-1165.09
-1656.67
-1205.19
331.237
-147.69
-1747.64
-2445.22
2257.65
-1034.08
-400.764
2744.73
511.394
-261.283
1534.22
-691.861
120.044
109.827
-305.084
-807.212
-322.968
-152.203
-640.469
-333.233
654.53
2843.21
2860.82
-77.7657
813.842
2442.66
485.242
2095.47
721.597
2223.76
3246.57
718.245
920.586
2102.23
1519.96
2292.16
-2613.84
-2246.9
-1837.78
-4632.03
-3730.43
-3003.02
-4572.01
-4277.37
-100.193
-427.286
-1353.81
-1037.57
-835.95
-721.174
-814.268
-1184.01
461.868
-410.726
1976.47
404.245
85.7226
439.63
814.669
1244.63
-913.357
-2249.95
-1612.25
-2095.24
-1255.27
-1974.5
-1780.91
-2366.04
-112.03
-827.373
-984.345
2107.83
355.126
-126.28
1015.18
64.8741
-277.11
-403.467
-548.34
-1209.25
-1981.26
-781.671
-2101.81
-1171.77
-178.557
101.309
-134.625
-141.241
-246.662
-0.775298
-429.175
-18.2822
-332.218
-185.519
-487.943
-1098.69
-1110.19
-188.039
-1581.79
-535.422
-2562.93
-2176.33
-2419.12
-1513.2
-2454.29
-3143.61
-2103.16
-2670.18
-942.531
-1257.4
-2884.64
-1033.88
-1551.82
-1590.48
-2165.68
-1427
-42.1522
-18.5595
-69.0335
-499.863
-561.243
-689.332
-66.2029
-554.45
-1812.74
-2690.24
-1534.95
-1995.54
-1496.97
-2152.23
-1415.19
-2950.7
-1054.1
-525.093
-216.647
-301.155
-1035.82
-202.178
-814.996
-343.579
1008.61
649.005
389.813
3655.64
2475.65
2919.47
1824.6
1084.61
1283.34
-500.581
1935.57
839.611
1073.51
1689.68
827.753
1341.34
-2850.92
4240.07
7621.42
2152.56
862.593
-129.03
306.926
-5315.36
1231.99
1205.74
2457.04
1274.21
1140.13
1099.42
1097.07
1010.38
2055.47
2827.26
2137.37
1845.9
2610.78
1907.65
2189.8
2717.04
3158.85
1014.56
2402.24
5822.37
2278.13
840.891
2239.26
2587.48
3728
2358.19
1359.43
2711.46
829.477
1648.95
2169.82
929.194
781.379
1904.97
1003.87
3506.18
2333.06
2177.12
2798.89
2234.1
276.893
334.619
233.928
432.758
459.752
416.007
432.341
399.759
179.305
-656.675
-241.98
63.1941
230.128
-47.245
163.63
-128.506
54.7316
-277.177
-27.772
69.5156
42.8977
-151.951
130.947
-149.573
497.732
488.543
386.256
567.817
660.284
562.79
593.578
507.571
490.37
308.507
609.281
495.387
445.184
445.355
493.754
534.828
421.708
323.829
-81.7459
237.584
331.621
126.478
217.386
26.4328
264.578
586.09
440.084
269.56
230.426
539.735
299.322
496.116
201.646
176.264
249.295
-77.3838
112.962
195.62
127.113
46.0559
9247.26
8626.34
11814.5
9859.14
8441.07
9573.22
9375.46
9910.08
6454.35
5196.87
7984.12
5175.64
6237.23
5910.68
6313.51
6671.88
12585.4
10538.7
12263.8
11034.2
12006.7
11977.3
12357.1
11802.9
8763.97
5689.87
9039.21
6055.88
7407.48
6965.71
8044.82
7698.53
7571.54
10828.5
8316
6734.16
8046.86
9917.16
7386.66
8747.64
8182.91
6641.97
8958.24
11140
8094.15
7625.1
9511.45
9374.54
11450.8
8898.87
7104.69
10602.5
11219.4
8971.96
10027.7
8233.24
11260.5
10107.8
7265.71
9643.01
10261.8
9687.88
8903.92
7671.13
1149.46
2243.02
2947
2984.5
2062.34
3072.21
2756.6
3596.69
3102.22
4036.01
4983.76
4433.56
3541.55
4666.78
4074.31
4955.14
5226.87
6711.57
7778.86
8000.62
6909.3
6552.25
7535.15
7726.09
4748.75
4899.98
6926.89
5017.43
5057.34
5910.37
5416.74
6750.95
2828.73
4622.68
3404.97
4274.22
3489.18
4141.49
3709.4
4090.41
3626.87
5444.95
5876.29
4860.94
4231.78
5185.43
4216.49
5284.72
5008.11
3752.4
4620.64
7074.63
5547.48
5298.43
6503.07
5825.54
5899.89
7737.24
5826.89
6970.56
6748.28
6617.32
6298.47
6240.52
1021.05
-146.717
-1799.78
-1696.06
1338.97
-178.576
-2465.21
-3512.8
2963.98
6771.39
6518.54
1003.88
2869.82
6422.19
1839.86
5426.21
-2090.54
3159.1
1776.98
-5255.08
-717.685
2205.68
-880.109
365.208
-2151.24
-5163.63
-5502.32
-5177.48
-2585.23
-4637.24
-3935.63
-4608.83
135.94
-821.737
-1744.9
-3033.71
-1765.18
-3168.7
-3634.03
-4742.31
1688.44
-774.437
4786.92
-104.673
33.1667
798.92
1279.25
774.49
-4540.36
-3978.82
-5495.29
-5201.56
-4101.59
-4558.54
-4984.9
-4003.3
-4997.66
-4376.71
-2848.94
3037.09
-3013.78
-4930.35
-2111.05
-3932.33
-386.289
-545.249
-839.298
-750.3
-488.366