/*--------------------------------*- C++ -*----------------------------------*\
| =========                 |                                                 |
| \\      /  F ield         | OpenFOAM: The Open Source CFD Toolbox           |
|  \\    /   O peration     | Version:  2506                                  |
|   \\  /    A nd           | Website:  www.openfoam.com                      |
|    \\/     M anipulation  |                                                 |
\*---------------------------------------------------------------------------*/
FoamFile
{
    version     2.0;
    format      ascii;
    arch        "LSB;label=32;scalar=64";
    class       surfaceScalarField;
    location    "1300";
    object      phi;
}
// * * * * * * * * * * * * * * * * * * * * * * * * * * * * * * * * * * * * * //

dimensions      [0 3 -1 0 0 0 0];

oriented        oriented;

internalField   nonuniform List<scalar> 
105296
(
0.000640396
0.000424181
-0.000873767
-0.000190818
9.92459e-05
1.19312e-05
1.91175e-05
-0.000130262
-0.000170686
0.000594687
0.000389316
-0.000813315
-0.000634896
0.000396785
0.000320577
-8.24776e-05
-9.83156e-05
0.000863939
-0.000125227
0.000569223
-0.00056829
-0.000156375
0.000385418
0.000242171
1.91629e-05
8.31421e-05
-2.55133e-05
-7.68322e-05
6.74956e-05
1.24168e-05
-1.74555e-05
-6.23844e-05
-5.89825e-05
5.65505e-05
2.59896e-05
-2.35629e-05
-2.2859e-05
8.99931e-05
2.32669e-05
-9.03807e-05
-3.3801e-06
9.21869e-05
-6.96343e-05
8.01053e-05
-1.59486e-05
-5.87934e-06
7.52173e-05
1.52641e-05
0.000744578
-0.000310931
0.000421258
-0.000854898
0.000229006
-8.5811e-05
-2.65546e-05
-0.000116657
-0.000371076
0.000402676
0.000845147
-0.000876758
-0.000519242
-0.000119684
0.000204661
0.000434276
-8.32931e-07
0.000944457
-0.000199049
0.000825264
-0.000597105
5.20914e-05
0.00037312
0.000506281
0.000215659
-0.00034294
0.00018331
-5.60358e-05
0.000130951
-5.89526e-05
4.32224e-05
-0.000115219
-7.98921e-05
-0.000211765
0.000105693
0.000185957
-0.000146562
9.04175e-05
0.000115497
-5.93698e-05
2.99078e-06
0.000298263
-8.56051e-05
0.000137777
-3.84992e-06
-2.36539e-06
0.000154062
5.55214e-05
9.74708e-05
-1.79038e-08
-8.55583e-05
-0.000190844
-5.54217e-05
0.000840955
-1.37921e-06
0.00056697
-0.000168809
-8.9925e-05
1.02197e-05
0.000181723
-0.000102027
4.72261e-05
1.18614e-05
3.83747e-05
9.85517e-05
8.45469e-05
-0.000162616
0.000181718
0.000110286
-2.7196e-05
-2.08581e-05
0.000121055
4.15485e-05
6.9824e-05
-5.48259e-05
-0.000134653
0.000561569
-0.000482341
2.05818e-05
0.000128058
7.49227e-05
1.95112e-05
-2.61179e-05
0.000135962
0.000540798
-7.19969e-05
0.000372152
-4.19565e-05
0.000265985
7.53725e-05
4.73921e-05
-0.000447504
3.6409e-05
0.000199337
-0.000119696
0.000358034
0.000302461
2.00606e-05
-9.15832e-05
2.11043e-06
0.00017864
-0.000229713
0.000146439
0.000116454
5.19956e-05
8.13352e-06
-2.4127e-05
7.42087e-05
-9.46203e-05
-0.000153394
4.94755e-05
1.25385e-05
0.000138288
0.000286993
0.000236325
0.00015409
-0.000370528
0.000130458
0.000241168
-1.58723e-06
0.000118665
0.000203491
0.00014242
0.000381284
0.000379846
0.000116352
0.000263342
0.00012567
0.000213591
0.000208768
0.000179491
0.000224284
-0.000369629
0.000184894
0.000185835
-1.01323e-05
0.000117338
9.74668e-05
0.000200372
0.000386337
0.000380965
0.000189831
0.000186373
0.000201167
0.000132684
-0.000327608
0.000196027
0.000178102
-0.000331302
0.000154299
-0.000291747
0.000169047
0.000123802
-1.07595e-05
-0.00021435
0.000144194
8.09161e-05
0.000129957
0.000323049
-0.000320321
0.000309161
0.000123506
0.000188783
0.00014092
7.59225e-05
-1.63439e-05
0.000123728
5.77723e-05
8.76042e-06
3.91501e-05
-0.000128567
4.65264e-06
8.21506e-05
4.17523e-05
3.66405e-06
5.20537e-05
3.46903e-05
6.07944e-05
0.000169185
0.00011368
4.88241e-06
6.00184e-05
0.000112826
4.51312e-05
0.000347365
0.000178879
-0.000343598
0.000136636
0.00033742
0.000103088
0.000281561
-9.42303e-05
9.02364e-05
0.000203333
0.000207901
-1.65649e-05
0.00015603
-1.00262e-05
0.000191667
0.000284729
0.000388749
-1.40833e-05
0.000221659
-0.000164347
0.000350341
-0.000203106
0.000340844
0.00017992
0.00036486
0.00035221
0.000162856
0.00035072
-8.1656e-06
0.000129893
0.000215693
8.40628e-05
0.000181153
0.000124969
8.71267e-05
-0.000213772
6.9445e-05
0.000148977
-0.000285131
8.59372e-05
0.000191026
8.36604e-05
-0.000213512
8.56777e-05
0.000143129
-0.000227446
8.25422e-05
0.000213774
9.50168e-05
-0.000156136
0.000175176
7.65657e-06
-0.000184846
-0.000134109
9.7395e-06
8.94044e-05
-0.000361978
-0.000157144
0.000520219
0.000544498
-0.000368257
-0.000175144
-0.000201994
-0.00030598
0.000509072
6.05447e-06
-9.92061e-05
1.43373e-05
7.8828e-05
-0.000348047
0.000173515
-0.00018745
0.00019755
-0.000323365
0.000502933
-0.000327808
-0.000359676
0.000580125
-0.000219341
0.000546137
-0.000223856
-0.000321162
-0.000229368
0.000504375
-0.000273908
1.99393e-05
2.21509e-05
6.23469e-05
-0.000104402
-0.000324826
0.000178193
-0.000213038
0.000222415
-0.000290113
0.000488249
-0.000297067
-0.000239408
-0.000231627
0.000472133
0.00049138
-0.000254351
-0.000235939
-0.000275454
0.000497635
-0.000221086
3.20161e-05
1.16114e-05
7.54206e-05
-0.000119082
-0.000231566
0.000216796
-0.000224653
0.000260909
-0.000211102
0.000459907
-0.000225648
-0.000104103
4.19183e-05
6.61254e-05
-3.9257e-06
1.29319e-05
3.34508e-05
7.75752e-05
-0.000123937
5.97278e-05
4.22953e-05
1.31814e-05
-0.000115204
2.43913e-05
4.88268e-05
-2.50662e-05
-4.81553e-05
-7.63144e-05
-8.12257e-05
5.34617e-05
-0.000113609
5.02472e-05
-5.89591e-05
2.12829e-06
-0.000112839
0.000179108
-0.0003553
-0.000192063
-0.000201174
-0.000289311
0.000184498
-7.65711e-05
-7.67065e-05
5.40901e-05
9.11225e-05
-5.87977e-05
-6.92453e-05
3.69548e-05
0.000512727
-2.00094e-05
-0.000313608
-1.62541e-05
4.75119e-05
2.3611e-05
-4.53064e-05
0.000225925
2.88106e-05
-6.5442e-05
0.000266435
0.000239033
-0.000513557
0.000225331
-0.000307601
0.000219915
0.000209456
-0.000292541
0.000183342
-9.40947e-06
-0.00025319
0.000447095
-8.469e-05
4.99068e-05
4.114e-05
-7.69241e-05
6.03488e-05
-5.2899e-05
3.483e-05
9.34763e-06
-9.93733e-05
8.06142e-05
-0.000120646
2.92587e-05
-6.82862e-05
-0.000259488
5.39107e-05
-9.5229e-05
-2.83541e-05
-0.000114021
0.000249767
-0.000265089
-2.46104e-05
-0.00045954
-3.90029e-05
-2.64354e-05
-9.38007e-05
4.61231e-05
-3.30345e-05
-2.04092e-05
7.33715e-06
-3.39446e-05
4.25357e-05
-1.81974e-05
9.59986e-06
-1.84669e-05
5.22428e-05
-4.37691e-05
1.00052e-05
5.73758e-06
1.17138e-05
-5.17572e-06
-1.22693e-05
5.38318e-05
1.14359e-05
-1.91297e-05
9.81941e-06
1.00698e-05
5.05075e-05
-3.33191e-05
4.18604e-05
4.1014e-05
-3.03494e-05
-2.06242e-05
9.93691e-06
-2.86305e-05
-2.91592e-05
4.46412e-05
1.31346e-05
-2.09305e-05
-3.44862e-05
4.33876e-05
1.20151e-05
7.14981e-06
-6.22397e-06
-2.54191e-05
2.44571e-05
5.22241e-05
1.47055e-05
-2.5943e-05
1.11069e-05
1.24817e-05
4.11117e-05
-1.92887e-05
3.12778e-05
5.50626e-05
-2.0315e-05
-4.57442e-05
1.10206e-05
-4.18924e-05
-2.03306e-05
5.13757e-05
1.08629e-05
-1.9556e-05
-4.65627e-05
5.5677e-05
1.04713e-05
3.82379e-06
5.73552e-06
1.28368e-05
-2.23662e-05
6.36797e-05
1.15901e-05
-2.01785e-05
1.16077e-05
1.01871e-05
4.78757e-05
-3.24252e-05
3.99261e-05
1.01403e-05
4.38416e-07
-4.325e-06
-6.26859e-06
-1.36445e-05
9.81154e-06
-1.18244e-05
1.56191e-05
1.86107e-06
-3.69152e-06
1.90887e-05
-1.727e-05
-3.69818e-06
-2.83213e-06
-3.90193e-06
1.03707e-05
1.85793e-05
3.12545e-06
-1.15974e-05
4.45452e-06
4.70892e-07
-2.0824e-05
2.02165e-05
-1.45269e-05
1.11747e-05
5.03187e-05
-1.89694e-05
-2.1823e-05
6.07237e-05
1.33612e-05
1.72429e-05
6.60246e-06
-1.21651e-05
-4.40378e-06
1.76419e-05
5.26257e-06
-1.8592e-05
-2.63171e-05
-3.55182e-06
4.10228e-05
-6.28329e-06
2.29602e-06
-1.03075e-05
1.32543e-05
9.93781e-06
1.00293e-05
7.10832e-06
4.29747e-06
-5.76404e-05
1.15103e-05
1.16405e-05
4.02699e-05
9.58862e-06
1.08678e-05
3.00621e-05
2.08874e-05
1.78799e-05
4.9943e-05
1.12105e-05
1.01834e-05
-5.66409e-06
5.98051e-05
-4.07518e-05
1.65077e-06
5.39781e-06
1.94024e-06
1.30777e-05
-9.10697e-07
-2.08566e-05
1.80784e-05
-1.0311e-05
1.4861e-05
-1.02129e-05
4.57806e-06
-6.98919e-06
2.0912e-05
4.90893e-05
-5.23958e-06
-9.89916e-06
1.01073e-05
7.2486e-06
-5.37196e-05
4.49055e-05
-6.19609e-06
3.51067e-05
9.47303e-06
-8.43033e-06
1.11456e-05
-5.51029e-05
2.07127e-05
-2.36015e-05
5.80255e-05
3.0578e-05
-2.79682e-05
-3.33003e-05
3.0618e-05
4.78888e-05
1.49452e-05
-2.55919e-05
-3.7317e-05
-2.78051e-05
2.98065e-05
-3.14726e-05
2.93981e-05
-6.4154e-05
-8.12729e-06
1.71275e-05
-8.71632e-06
-2.4889e-05
-5.07623e-05
1.48217e-05
-1.1629e-05
3.05932e-05
-3.06132e-05
-2.77229e-05
2.76685e-05
-7.63485e-05
5.00439e-05
-1.81606e-05
4.43787e-05
8.99874e-05
-0.000107503
6.99145e-05
-5.24595e-05
-4.85408e-05
-7.55032e-05
3.74853e-05
8.65238e-05
1.66749e-05
-3.87361e-05
5.26168e-05
-3.20038e-05
-2.77044e-05
7.27499e-06
-9.45799e-05
6.52336e-05
3.36603e-05
0.000102446
-5.63534e-05
-7.9805e-05
-0.00011343
0.00011905
8.46165e-05
-9.02867e-05
0.000155711
-0.000152155
8.66684e-05
-9.02763e-05
-8.64976e-05
0.000115757
-7.8893e-05
4.95886e-05
-4.84481e-05
-6.01651e-05
0.000142234
-6.53774e-05
-9.65317e-05
-3.72996e-05
-0.000109413
5.29965e-05
9.34e-05
-4.45883e-05
-6.16487e-05
1.28108e-05
-8.03222e-05
-5.73744e-05
6.40071e-05
7.36447e-05
4.1953e-05
-7.13998e-05
-2.07741e-05
5.01716e-05
-6.41859e-05
-2.68654e-05
8.66748e-05
4.36244e-06
3.07848e-05
3.06392e-05
3.19553e-05
-9.94466e-06
-3.96105e-05
3.69356e-05
-7.05095e-05
6.89249e-05
-3.53678e-05
-1.60553e-05
2.3385e-05
8.82708e-05
-3.07404e-05
-4.26428e-05
-1.27965e-05
-5.83905e-06
4.83967e-05
-1.4691e-05
-2.71726e-05
-4.36475e-05
8.54731e-05
-4.67828e-05
3.67084e-05
-2.53183e-05
2.98555e-05
-5.12597e-05
7.32685e-05
-3.42169e-05
-1.1664e-05
-3.50039e-05
-4.90412e-05
-5.36535e-05
5.60907e-07
-3.92014e-05
-6.89215e-05
6.56706e-05
-5.05333e-05
-4.59282e-05
3.28031e-05
-6.98116e-05
-0.000110835
4.5993e-05
-5.01716e-05
-6.43101e-05
3.57992e-05
-4.03673e-05
-3.80905e-05
1.95035e-05
-6.99644e-05
-9.04913e-05
-1.05668e-05
2.37046e-05
-3.1052e-05
-6.40964e-05
6.14158e-05
2.82652e-05
-5.39228e-05
4.66892e-05
8.34126e-05
-3.14811e-05
1.15115e-05
4.39115e-05
4.0775e-05
-0.000107159
4.29282e-05
4.52814e-05
3.45041e-05
6.68172e-05
8.68918e-05
7.92408e-05
6.78595e-05
3.99354e-05
-3.51604e-05
2.06424e-05
6.80364e-05
1.71827e-05
-3.15584e-05
6.03574e-05
8.47024e-05
-4.3664e-05
2.50382e-05
-6.48298e-05
-4.03099e-05
2.67808e-05
7.83637e-05
-8.53765e-05
-1.68369e-05
6.70566e-05
-1.75641e-05
-0.000107974
2.63143e-05
-4.08366e-05
-2.75075e-05
1.57105e-05
5.189e-05
1.43576e-05
-2.7678e-05
5.16229e-05
6.48738e-05
1.84531e-05
-3.36427e-05
-5.14458e-05
2.10114e-05
-3.30506e-05
6.34799e-05
-6.85939e-05
-1.4259e-05
5.53463e-05
-1.39985e-05
-8.49636e-05
1.92575e-05
-3.40905e-05
-4.65915e-05
9.11526e-05
2.59201e-05
2.4018e-05
7.86035e-05
-4.14048e-05
8.97194e-05
-4.65576e-05
2.91834e-05
-6.37812e-05
7.63898e-05
-4.19499e-05
2.93412e-05
-0.000110563
-1.94487e-05
8.34198e-05
-2.02385e-05
-0.000114401
3.11717e-05
-4.49206e-05
-3.25381e-05
-6.36522e-05
2.44536e-05
7.17387e-05
2.18323e-05
-5.2656e-05
-2.82958e-05
5.91164e-05
6.08709e-05
-5.71716e-05
-3.15455e-05
2.78489e-05
-5.0535e-05
-4.95111e-06
2.03722e-06
5.34429e-05
-8.19585e-05
-1.31097e-05
6.25368e-05
-5.56689e-06
-5.45577e-05
-7.52424e-05
1.16003e-05
-1.99398e-05
-1.59971e-05
-7.79849e-05
6.24185e-05
7.85704e-05
-0.000103637
-1.85956e-05
-9.61962e-05
-1.53498e-05
7.12348e-05
3.45315e-05
-8.8959e-05
-1.17974e-05
6.62168e-05
2.08489e-05
5.44981e-05
-9.13519e-05
5.85823e-05
2.15236e-05
6.75052e-05
-1.609e-05
-1.58538e-05
-5.38514e-05
-1.40956e-05
9.04172e-05
-1.78451e-05
-2.0713e-05
-2.09159e-05
-3.58058e-05
-7.13983e-05
-7.03965e-05
-3.71106e-05
-1.709e-05
6.84881e-05
-0.000115668
2.85902e-05
-0.000108105
2.91052e-05
2.26899e-05
-8.71438e-05
1.32789e-05
-9.99305e-05
2.94812e-05
8.47405e-05
-4.37594e-05
2.75089e-05
-3.94536e-05
7.13214e-05
-0.0001018
-4.54317e-05
1.48181e-05
-3.83592e-05
-6.90537e-05
-3.21859e-05
9.92819e-05
-3.85222e-05
6.2089e-05
-2.41006e-05
-2.48918e-05
5.80918e-05
-3.58547e-05
-0.000179534
-0.000133716
7.99305e-05
0.000233316
0.000136861
-0.000134685
-9.96916e-05
9.75098e-05
-1.71622e-05
-0.000107075
5.06552e-05
7.35813e-05
5.53987e-05
-0.0001165
-2.8195e-05
8.93028e-05
-9.21843e-05
-2.09082e-05
-6.64478e-05
-4.40779e-05
8.87503e-05
-7.38294e-05
0.000108312
-0.00013507
-9.39022e-05
8.90043e-05
-6.66663e-05
7.15632e-05
8.34711e-05
-3.45771e-05
8.47853e-05
-0.000133699
6.63831e-05
5.19312e-05
-4.84554e-05
-6.98822e-05
1.10853e-05
7.45221e-05
6.36243e-06
-9.20073e-05
-4.54616e-05
-3.54717e-05
-1.29791e-05
-5.00842e-05
8.80903e-05
-9.8475e-05
7.40761e-05
-8.21758e-05
-4.84095e-05
3.78148e-05
-3.99417e-05
5.05465e-05
-2.0561e-06
0.000128136
-8.76593e-05
-3.84222e-05
0.000111526
-9.55967e-05
-2.154e-05
5.61001e-06
-7.48499e-05
0.000101725
-1.0926e-05
-1.59531e-05
-0.000109435
-2.69117e-05
8.79368e-05
-2.41994e-05
-8.72908e-05
-9.38099e-05
-7.95624e-06
-6.48772e-06
-8.25079e-05
-2.78145e-06
3.04509e-05
5.48419e-05
4.68158e-05
-2.64583e-05
3.12228e-05
-5.15913e-05
6.38338e-05
-5.56906e-05
2.417e-05
-3.23292e-05
-1.47984e-05
1.19139e-05
0.000146262
-0.000143377
-8.92333e-05
-2.12169e-05
2.79346e-05
-1.89899e-05
-2.34298e-05
-8.48392e-05
4.88091e-05
-3.99995e-05
-2.94438e-05
-5.74724e-05
-4.77739e-05
-2.87348e-05
-8.13261e-05
2.98921e-06
-7.9985e-05
-4.54727e-06
-3.19484e-05
0.000118428
-9.33547e-05
-3.15462e-05
6.4642e-06
0.000120863
-4.99938e-05
-0.000100315
-4.29394e-05
0.00010248
-3.40428e-05
-2.04441e-05
-3.90177e-05
7.05451e-05
1.86826e-05
-3.75208e-05
0.000113269
-4.96114e-05
-1.17495e-05
-9.67324e-05
-2.58885e-05
4.12859e-05
-0.000135121
-4.22925e-06
-4.23682e-05
-0.000110687
9.70424e-06
-3.97862e-05
1.54986e-05
-9.06353e-05
7.81364e-05
-9.71704e-05
8.98499e-05
5.29996e-05
-0.000111006
2.26497e-05
-9.8994e-05
2.06471e-05
2.77929e-05
-7.79786e-05
6.56892e-05
-8.98226e-05
6.02527e-05
-0.000115583
-7.87113e-05
3.12059e-05
-2.84753e-05
-8.88628e-05
-5.9668e-05
0.000146498
-6.79748e-05
5.26127e-05
-4.33902e-05
-3.17669e-05
6.33197e-05
-5.7313e-05
-1.33245e-05
2.42696e-05
9.80937e-06
1.37766e-05
-2.40043e-05
-1.53213e-05
-1.15963e-05
1.28545e-06
1.60765e-05
-5.66007e-06
-1.56419e-05
-2.38223e-05
7.97646e-06
-2.10483e-06
3.79191e-06
7.98516e-06
3.75622e-06
-1.79017e-05
6.15264e-06
-2.15032e-05
-6.00513e-05
3.33914e-05
-2.97177e-05
7.47597e-05
-0.000142408
-8.45553e-05
2.80687e-05
4.15734e-05
-3.73492e-05
-3.21676e-05
-5.04853e-05
5.17891e-05
-8.02415e-05
-0.000162161
-7.36973e-06
-1.09669e-05
-7.64501e-05
-0.000102951
4.50807e-05
-8.58803e-05
-1.0054e-05
6.85431e-06
1.25327e-05
-9.26277e-06
3.40789e-06
6.50929e-05
-6.81253e-06
-6.17037e-05
0.000111395
-2.92572e-05
-8.50729e-05
2.95741e-06
-7.30603e-05
7.73886e-05
-1.95852e-06
-2.2973e-06
-9.22559e-05
-2.29926e-05
0.000105202
-2.98864e-05
-5.89608e-05
-9.61643e-05
1.45803e-07
-1.46388e-05
-1.67652e-05
-4.61223e-05
1.22815e-06
1.49872e-05
-4.60051e-05
1.01926e-05
3.54941e-05
-4.5415e-05
1.37435e-05
-3.74292e-06
-4.05352e-05
1.07673e-05
2.88202e-06
-9.49056e-05
7.59959e-06
-3.99648e-06
-7.59286e-05
-3.03614e-05
-2.56361e-06
1.12546e-06
-7.71169e-06
-5.43525e-05
4.3405e-05
-3.56934e-05
-6.39547e-06
-7.97953e-05
-1.40126e-05
3.9955e-05
-0.000103497
-5.79859e-07
1.70217e-05
3.6518e-05
-6.12503e-05
3.89191e-05
2.25481e-05
-1.83302e-05
2.30098e-07
-2.11803e-05
-5.03922e-05
-1.32057e-06
5.47062e-05
-2.83773e-06
-1.02096e-05
-1.13535e-05
-1.0449e-05
-1.3863e-05
-3.73591e-05
-2.36217e-05
-4.26438e-05
-2.49026e-05
-1.00079e-05
-1.28461e-05
2.79501e-05
-3.14779e-05
-2.82948e-06
-6.15832e-05
1.43256e-06
1.41617e-05
-6.08036e-05
1.13243e-06
-4.13051e-05
-5.13401e-06
3.93605e-05
-3.39703e-06
-8.05107e-06
-4.05701e-05
0.000102337
-0.000104655
-3.50759e-05
2.10846e-05
1.49929e-05
-4.26559e-05
-1.96495e-05
7.41504e-05
-1.18926e-05
8.05108e-05
-1.03945e-05
-3.07347e-06
5.08822e-05
5.08528e-06
2.45131e-05
1.64771e-05
0.000539199
-0.000580188
0.000398886
3.44794e-05
1.50887e-05
-0.000448455
-0.000413519
3.88177e-05
1.00464e-05
0.000364657
-5.93777e-06
-4.76814e-07
0.000361435
-0.000355015
3.65714e-05
0.00043439
-0.000446446
0.00041875
1.67084e-05
3.19026e-05
0.000396551
3.71324e-05
2.01106e-05
0.000203125
3.95968e-06
-0.0002272
5.26146e-05
3.57133e-05
-0.00012291
-0.000106555
9.7382e-05
-5.74964e-05
2.64526e-05
8.97253e-05
-0.000109836
3.42142e-05
0.000137365
-0.000151481
8.50666e-05
1.75299e-06
3.44679e-05
0.000129339
4.40237e-05
-0.000247339
-1.43181e-05
0.000217621
0.000164246
-0.000128521
-0.000135416
-0.000142725
-0.000168556
0.000177564
-1.6019e-05
-0.000141599
0.000129426
-6.09042e-06
0.000177324
-0.000127213
0.000208134
-4.99811e-05
1.03857e-06
0.000160266
-1.39651e-05
-5.34207e-06
0.000241818
-0.000222513
0.000120918
2.1317e-05
-0.000111016
-0.000123608
1.95647e-05
0.000134495
-1.15228e-06
0.000179274
-0.000166207
-9.99866e-06
0.000192699
-0.000196669
0.000100573
1.03468e-05
-4.89953e-06
0.000196447
0.000316928
2.47012e-05
-0.000307148
-0.000315749
2.85373e-05
0.000326031
2.77683e-06
0.000306272
-0.000309523
-1.10865e-05
1.26212e-05
0.000135438
-0.000136979
0.000295632
-4.23232e-06
2.55251e-05
1.70167e-05
0.000232068
-0.000247385
0.000251864
0.000233345
-5.52833e-06
1.05317e-06
0.000101279
-1.36399e-05
0.000137733
-2.672e-05
-0.000213805
0.000258657
-1.63186e-05
3.21635e-05
0.000226697
0.00016255
3.17694e-05
-1.88825e-05
0.000180677
1.75452e-05
2.89456e-05
0.000279541
4.47974e-06
0.000296452
0.000142846
1.39089e-05
-0.000152854
1.01336e-05
0.000162292
-0.00024618
1.01421e-05
0.000253589
1.01646e-05
-0.000163357
2.06461e-05
4.02605e-05
-0.000163412
0.000121651
-3.85624e-05
3.60267e-05
-0.000122982
-0.00010674
1.9132e-05
-0.000122104
6.93392e-05
-0.000833882
0.000886684
0.00034326
-0.000110995
8.52451e-05
-0.00031751
-0.000183692
-0.000183993
3.55165e-05
0.000332157
4.65518e-05
-9.35185e-05
-0.00014727
0.000194285
-9.63417e-05
9.24694e-06
-3.49144e-05
0.000172458
7.44632e-05
-0.000125239
0.000181014
-0.000136474
-7.96775e-05
0.000296238
-4.74827e-05
-0.000169079
0.000223534
-1.12394e-05
-0.000125655
-0.000109529
0.000200885
-6.78286e-06
-4.2734e-05
0.000215987
-0.000123682
-0.000105659
0.000165526
-0.00013956
0.000165992
-4.81814e-05
-0.00010946
0.000232241
-8.34398e-05
-8.63802e-05
5.09077e-06
0.000164715
0.000137283
-8.14128e-05
1.39859e-05
-5.96818e-05
1.03625e-05
9.92912e-05
-6.99627e-06
-6.74334e-05
0.000111885
-7.90593e-05
7.6992e-05
-8.13951e-05
5.7431e-05
7.21713e-07
-6.29828e-05
0.000132955
-6.32496e-05
-6.35693e-05
-6.15683e-05
0.000188396
8.9849e-05
-3.74611e-05
-2.25599e-06
-2.36483e-05
2.20427e-06
8.54187e-05
9.62571e-06
2.50586e-05
5.19989e-05
-0.000101359
-1.17514e-05
4.98697e-05
3.15262e-05
-4.3064e-05
-7.68028e-05
7.4663e-05
0.000160791
-0.000156356
-0.000115445
-8.24702e-05
-0.000122842
2.13131e-05
-0.000137133
0.00013563
-9.20041e-05
7.84867e-05
-0.000109225
0.000113743
-8.30186e-05
0.000257538
3.21182e-05
-0.000128873
3.85952e-05
0.000256443
-0.000145837
0.00015791
0.000173663
-3.37923e-05
-2.51329e-05
0.000131884
9.58867e-05
0.00014382
-3.88716e-05
-0.000235822
0.000105456
7.49898e-06
-9.81215e-05
0.000142906
0.000108986
-9.51663e-05
2.24573e-06
0.000109703
-2.18417e-05
-9.83442e-05
0.0001415
-0.000126155
0.000198221
0.000169429
-9.31505e-05
-4.70776e-05
-7.00942e-05
0.000119358
-9.99168e-05
-8.18972e-05
0.000159969
-6.81647e-05
-5.81999e-05
-7.07772e-05
-7.92676e-05
-9.46023e-05
7.95043e-05
9.69102e-05
2.12613e-05
-0.000181926
-0.000144122
2.46826e-05
-3.08764e-06
-0.000157294
1.22911e-05
0.000148079
2.80453e-06
2.17323e-05
-0.000162535
0.000137984
-0.000130044
7.99432e-06
-1.00036e-05
0.000132033
0.000135761
2.64044e-05
-0.000155574
-6.60258e-06
0.000151717
2.52911e-06
-0.000157347
1.78535e-06
0.000152731
0.000144857
-6.58293e-06
1.6593e-05
3.53689e-05
-2.06857e-05
-0.000149065
0.000134367
-2.83043e-05
-0.000115241
0.000121469
2.20624e-05
-0.000114082
-3.72803e-05
0.000114029
3.73377e-05
0.000114677
-4.31002e-05
-0.000133997
6.2415e-05
0.000159107
1.72316e-05
-0.000140977
1.89463e-06
0.000128905
0.000160683
-2.87734e-05
4.8495e-05
-0.000240179
-4.00884e-05
5.86889e-05
0.000221569
9.20822e-05
-4.26586e-05
0.00015733
-0.000206766
-1.61611e-05
0.000241672
0.000364733
-0.000590252
7.23993e-05
-0.000179527
-1.7995e-05
0.000125085
-6.70431e-05
-0.000136083
-3.7079e-05
-0.000223026
0.000248058
-0.000147513
8.38129e-05
-0.0003867
4.09976e-05
0.00010113
-0.000137792
-4.35099e-06
-1.99326e-05
9.75649e-05
-0.000114895
3.72396e-05
-8.38904e-05
4.18718e-05
1.11485e-05
3.08595e-05
3.58622e-05
-4.99575e-05
1.54897e-05
-1.44365e-06
0.000148962
2.33802e-05
-0.000131353
1.80124e-05
0.000111
5.31075e-05
6.11669e-06
-1.27996e-05
1.16306e-06
0.000177698
-0.000157144
-0.000135339
0.000148972
-5.65168e-06
0.000165073
2.45932e-05
-0.000163271
-2.8828e-05
0.000161409
-6.89167e-06
-0.000125713
-2.54197e-05
-0.000121423
0.000147994
-0.000144169
-8.39444e-06
-0.000141863
1.2509e-05
9.05196e-06
0.000147955
0.000103163
1.51509e-05
-0.000132788
-2.26771e-05
0.000118187
3.21073e-05
-3.02649e-06
0.000119886
3.33208e-05
0.000123722
0.000107711
1.39539e-05
0.000141875
-1.11229e-05
-7.88648e-05
6.73292e-05
5.86181e-06
0.000133848
-8.135e-06
-2.68737e-05
0.00011756
-6.84323e-05
0.000136373
-2.61047e-05
-0.000103234
2.92967e-05
-4.96667e-06
4.31135e-05
-0.00012724
8.80627e-05
2.41943e-05
1.03603e-05
-5.35219e-05
9.02897e-05
4.24336e-05
-7.4415e-05
9.08932e-06
-4.97903e-05
3.68868e-05
4.86302e-05
-4.86529e-05
9.0274e-05
0.000173751
1.39514e-05
-0.000129093
-5.85962e-05
1.07868e-05
0.000168873
-0.000121325
-5.8333e-05
-6.65574e-05
0.00018163
1.19953e-05
-0.000127072
-0.000113536
0.000146388
1.34612e-05
-4.63181e-05
5.20343e-05
0.000181312
-5.95969e-05
0.000194364
-0.000131541
5.31695e-05
1.46074e-05
0.000180974
0.000145158
4.40413e-06
-9.60226e-05
-5.35428e-05
-1.04695e-05
-5.89823e-05
-4.58005e-05
-6.0514e-05
2.30004e-06
-9.0861e-05
-7.50943e-05
-1.90662e-05
-3.98465e-05
6.06203e-05
0.000131072
-4.65418e-05
0.00013841
-8.82692e-05
6.30813e-05
-7.10674e-06
0.000173329
-7.58523e-05
1.59206e-05
-0.000113395
1.49032e-05
-7.35245e-05
-0.000103915
-9.36789e-05
2.90422e-05
-9.26548e-05
-9.49211e-05
-7.14243e-05
1.07636e-05
6.85352e-05
0.000182136
-7.7351e-05
0.000180995
-9.75575e-05
7.00303e-05
1.71794e-05
0.00010761
-8.71076e-05
1.25166e-05
-3.30303e-05
-6.07532e-07
-8.03174e-05
-3.39775e-05
-4.8147e-05
-9.9483e-05
9.83598e-06
-5.09463e-05
2.08416e-05
-1.98552e-05
4.10811e-05
9.56596e-05
-2.91442e-05
0.00014438
-0.000103908
3.51195e-05
9.59523e-06
0.000167826
5.32462e-05
-5.22053e-05
-6.65495e-05
5.91024e-05
0.000189069
4.78806e-05
0.000145144
-4.66422e-05
-0.000146491
5.23738e-05
0.000132782
-3.8672e-05
6.93621e-06
0.000106795
5.40911e-05
0.000121359
9.59615e-06
-4.92953e-05
0.000178835
0.000177572
-0.000119922
-9.27504e-05
0.000126053
-6.15877e-05
0.000167525
-0.000103644
-1.264e-05
0.000192018
-0.00012027
0.000163023
6.86383e-05
6.31637e-05
0.000173718
-0.000117722
0.000175288
0.000118092
5.82412e-05
1.27305e-05
4.61066e-05
1.19322e-05
5.0923e-06
4.73711e-05
-0.000170089
5.87598e-05
1.18392e-05
-6.49535e-05
0.000169826
1.32159e-05
0.000159987
-6.11713e-05
6.09061e-05
0.000174403
-0.00017594
4.77098e-05
-6.31446e-05
0.000109202
-1.21548e-05
-5.83329e-06
9.99866e-05
9.57081e-06
-1.53986e-05
-1.99487e-05
1.40645e-05
1.45918e-05
4.58597e-06
-4.47559e-06
-5.22655e-07
6.79556e-06
-1.14298e-05
-2.03292e-05
-3.41071e-06
-5.78596e-06
-3.78957e-06
-1.29246e-07
5.01997e-06
1.1877e-05
-2.06097e-05
-2.08955e-05
1.94215e-05
1.3313e-05
3.02675e-07
1.84627e-06
6.30098e-06
1.4597e-05
-8.04908e-06
-1.64274e-05
-4.10431e-06
-6.25429e-06
-6.94858e-06
9.15483e-06
1.11802e-07
-6.98135e-06
-1.86423e-05
6.45638e-06
7.16357e-06
-1.57728e-05
-4.74362e-06
-1.78121e-05
-6.35252e-06
1.04796e-05
4.69973e-06
-1.85397e-05
6.38328e-06
7.51498e-06
1.11756e-05
4.80529e-06
-2.29792e-05
9.84068e-06
1.54551e-05
-5.95176e-06
7.4877e-06
-1.05866e-06
3.73564e-07
-3.63645e-06
1.68624e-05
1.17787e-05
-9.54223e-06
-1.69585e-05
2.74062e-06
1.32956e-05
9.71245e-07
-5.39728e-06
1.10403e-05
-8.48614e-06
6.67068e-06
1.24926e-05
1.49278e-05
8.61221e-06
-3.89833e-06
1.10047e-05
-5.92219e-06
-3.52356e-06
-2.31571e-05
-1.21859e-05
1.02762e-05
6.4931e-06
8.62158e-06
3.57676e-06
7.61179e-06
4.54371e-06
5.93739e-06
-1.21267e-06
4.14211e-06
-6.44458e-06
-8.37389e-06
1.54534e-06
1.793e-06
-5.68524e-06
1.55594e-05
3.57759e-06
-1.49676e-05
-1.6066e-07
-2.70826e-06
1.7293e-06
-5.13896e-06
-6.99203e-06
1.95678e-05
-1.12618e-06
3.46221e-06
-8.09346e-06
1.45096e-05
6.50936e-08
7.01167e-06
-3.06425e-06
1.85105e-05
-7.99013e-07
-1.50071e-05
1.10899e-05
6.66911e-06
-1.30482e-05
1.75526e-06
3.19773e-06
-4.24126e-06
-2.28814e-05
9.62785e-06
-2.411e-06
-1.06648e-05
3.23058e-06
1.69181e-05
-1.41603e-05
-5.60126e-06
-1.03687e-05
-1.32357e-05
-1.21675e-05
-1.42787e-05
-1.43135e-05
-1.16835e-05
4.31706e-05
3.72819e-06
-4.69005e-05
-7.56768e-06
5.08685e-05
-4.32959e-05
-4.94751e-05
4.69066e-05
2.56761e-06
1.57852e-05
4.26325e-05
-2.28329e-05
-3.5594e-05
4.97585e-05
3.2575e-05
-3.91633e-05
4.21923e-05
5.46514e-05
-6.29074e-06
4.73695e-05
5.92402e-05
-1.76005e-05
-4.16184e-05
-2.24267e-05
-4.22219e-05
6.46881e-05
-5.07293e-05
-8.97659e-06
5.97279e-05
1.17307e-05
-1.26215e-06
-5.20968e-05
4.16333e-05
6.79257e-05
3.75332e-05
-4.61989e-05
4.55058e-05
6.34053e-05
-1.41312e-05
5.81823e-05
5.33215e-05
-6.14864e-05
8.16109e-06
-3.16771e-07
-6.15029e-05
6.18282e-05
-7.55051e-05
9.90426e-06
6.56059e-05
1.6229e-05
-4.54094e-05
-1.06617e-05
3.98481e-05
6.621e-05
4.55879e-05
-5.84749e-05
6.58933e-05
6.75444e-05
-5.72722e-06
5.79335e-05
2.30473e-05
8.22418e-06
3.85864e-05
-6.98557e-05
4.81449e-05
1.99557e-06
-7.61667e-05
2.60248e-05
-6.48124e-05
1.13931e-05
2.67997e-05
2.66206e-05
-7.68535e-07
4.78889e-05
-7.01542e-05
2.30293e-05
2.58811e-05
7.41366e-05
-7.69711e-05
6.46892e-05
9.33669e-06
2.34328e-05
4.99351e-05
2.33097e-05
3.3431e-05
6.143e-05
-4.39863e-05
-5.037e-05
5.85344e-05
3.87408e-05
5.9507e-05
3.51939e-05
-5.20684e-05
-3.95044e-05
5.41476e-05
4.44625e-05
-5.91042e-05
-1.21397e-05
-1.5434e-05
6.10082e-05
-1.514e-05
-1.01331e-05
-4.4806e-05
3.4236e-05
4.38323e-05
1.28041e-05
4.00863e-05
-6.52524e-05
5.62882e-05
3.93582e-06
5.45952e-05
5.28118e-05
5.20304e-05
5.14867e-05
5.59713e-05
4.221e-05
-1.39555e-05
5.81703e-05
-5.47519e-06
5.36802e-05
-1.02603e-05
-5.28508e-06
5.17476e-05
-3.13618e-05
5.38945e-05
-1.11431e-05
-4.56895e-05
4.3622e-05
-1.18865e-05
4.22274e-05
-4.6279e-05
5.85464e-05
5.12813e-05
-2.86994e-05
3.71912e-05
5e-05
4.18329e-05
-6.07251e-05
5.55157e-05
-1.35772e-05
6.3913e-06
1.62717e-05
-1.21236e-05
5.4147e-05
-8.45118e-06
0.000456286
-0.000206169
-4.49417e-05
-9.74589e-05
7.24411e-05
6.99473e-05
-2.84975e-05
-2.98741e-05
0.000117038
1.41816e-05
-9.14178e-05
5.91796e-05
0.000173967
2.77192e-05
-0.000210155
-0.000158259
0.000287268
0.000125706
-6.10628e-05
-0.000125713
-2.84351e-05
0.000115892
3.82203e-05
-9.84245e-06
-0.000144182
0.000125477
2.85334e-05
2.65501e-05
-3.80952e-06
-0.000160914
0.00013816
0.000117187
-1.53007e-05
-0.000142225
4.03301e-05
-1.28238e-05
-0.00015152
3.86197e-05
-0.000152252
0.000129574
-2.12821e-05
-1.30566e-05
-0.000146988
-0.000116485
-1.99678e-05
0.000126432
-5.86933e-06
2.16095e-05
-0.000160148
0.000144387
1.07814e-05
-0.000166844
0.000168344
0.000121596
1.78475e-05
-0.000146059
-2.00061e-06
-0.00012339
8.88542e-06
-0.000160371
0.000152484
-8.38085e-06
-0.000157973
-9.71747e-05
9.4633e-05
1.36449e-05
-9.77373e-06
8.62648e-05
-0.000106044
2.95454e-05
3.06664e-05
9.87621e-05
-0.000133788
4.34954e-05
-5.06642e-05
2.26587e-05
-2.70524e-05
-7.17514e-05
1.60587e-06
-0.000121378
8.45371e-05
-2.21416e-05
-0.000112861
-0.000119256
-1.72614e-05
3.90282e-05
3.76087e-05
1.4438e-05
-8.19612e-05
-2.96812e-05
-9.20988e-05
3.03276e-05
0.000115645
-2.27171e-05
-0.00012912
3.61927e-05
-1.70186e-05
-9.2575e-05
-9.67122e-06
-4.04751e-05
-2.45529e-05
4.76008e-05
-9.47177e-05
-0.000146073
0.000100341
0.000114328
-0.000152353
8.05415e-06
-0.000166339
0.000154456
2.7907e-05
-9.39926e-05
8.04886e-05
-0.000130977
-2.47781e-05
-2.97096e-05
-0.000133579
0.000136689
-0.000155243
-7.62577e-05
1.49326e-07
-2.35721e-05
-1.67944e-05
-2.60655e-05
0.000116912
-2.6296e-05
2.21003e-05
-0.000103336
-9.61958e-05
2.84531e-05
-1.48824e-05
-0.000113821
0.000141683
-0.000150145
-3.3817e-05
-0.000144604
1.36977e-05
-0.000158431
-0.000122151
1.72072e-05
4.64597e-06
-0.000124342
-0.000153518
-6.14553e-05
-7.63496e-05
-1.96699e-05
-6.30476e-05
-7.74413e-05
0.000171267
-5.26343e-05
-0.000102714
-8.39649e-05
-5.13377e-05
-0.000139904
-7.95299e-05
-7.81634e-05
-8.14202e-05
-0.000146319
-5.32191e-05
-5.09147e-05
-2.11872e-05
-8.8822e-05
-2.52328e-05
-7.88216e-05
-4.01388e-05
0.000160312
-1.82694e-05
-0.000101133
-4.09112e-05
-8.40233e-05
-2.88667e-05
-2.93367e-05
-0.000130135
-6.77701e-05
-6.76472e-05
-8.7728e-05
-0.000130192
-2.16047e-05
-3.75278e-05
-4.6968e-05
0.000178023
-0.00011906
-1.3676e-05
0.000166638
-0.00011329
-3.96791e-05
0.000162802
-0.000118259
-3.05799e-05
-9.65419e-05
0.000135932
-2.59258e-05
-0.000159761
-5.61961e-05
0.000168991
-5.53192e-05
-0.000118121
-0.000138127
-3.06427e-05
-3.42565e-05
-8.9705e-05
-2.1356e-05
-7.07429e-05
-1.39452e-05
0.000102867
-7.45944e-05
-1.57538e-05
-4.53532e-05
1.5545e-05
-0.000109001
-3.81211e-05
-4.24909e-05
-8.7869e-05
-7.38816e-05
-1.35015e-05
-7.72641e-05
-0.000144218
0.000167079
-0.000154949
-6.47691e-05
-0.000138397
-6.30948e-05
4.50185e-05
-0.000132954
-5.66732e-05
-2.05825e-05
8.77626e-05
-0.000144455
9.3273e-05
-2.07393e-05
-6.58645e-05
-7.4917e-05
-9.04981e-05
-0.00010027
-6.15502e-05
0.000157477
-6.2127e-05
-0.000113622
1.61878e-05
-6.47501e-05
-0.00010639
-4.86629e-05
-0.000170709
-0.000170538
-4.91972e-05
-0.000105327
-6.22596e-05
0.000108045
-0.000160087
-0.000140966
-1.71103e-05
-0.000110307
4.85892e-05
-0.000111252
0.000166688
-4.54297e-05
-4.01441e-05
0.000145123
-0.000141966
-4.68165e-05
4.998e-05
-2.53004e-05
-0.000142952
-2.89049e-05
0.000144083
-3.9575e-05
0.000106975
1.51982e-05
1.49894e-05
9.70214e-05
-3.09429e-05
-0.000207758
-0.000642847
0.000625894
0.000224721
-0.0004701
-6.42995e-05
0.000452571
8.1833e-05
0.00018906
-0.000191846
-0.000617671