/*--------------------------------*- C++ -*----------------------------------*\
| =========                 |                                                 |
| \\      /  F ield         | OpenFOAM: The Open Source CFD Toolbox           |
|  \\    /   O peration     | Version:  2506                                  |
|   \\  /    A nd           | Website:  www.openfoam.com                      |
|    \\/     M anipulation  |                                                 |
\*---------------------------------------------------------------------------*/
FoamFile
{
    version     2.0;
    format      ascii;
    arch        "LSB;label=32;scalar=64";
    class       volScalarField;
    location    "900";
    object      p;
}
// * * * * * * * * * * * * * * * * * * * * * * * * * * * * * * * * * * * * * //

dimensions      [0 2 -2 0 0 0 0];

internalField   nonuniform List<scalar> 
45440
(
0.166561
0.165453
0.21039
0.182547
0.168773
0.173155
0.190951
0.196691
0.160805
0.17202
0.200224
0.173017
0.167075
0.163066
0.186411
0.184089
0.231261
0.219492
0.238254
0.239566
0.231919
0.229559
0.238968
0.233696
0.21022
0.194999
0.245354
0.252229
0.219163
0.220981
0.24523
0.238522
0.17453
0.21345
0.19275
0.179302
0.189278
0.196966
0.175582
0.196544
0.176147
0.186233
0.204586
0.214841
0.18694
0.190752
0.199876
0.199558
0.223846
0.208159
0.197478
0.239852
0.22509
0.208965
0.226681
0.215605
0.224531
0.23482
0.196049
0.208665
0.223472
0.227713
0.213867
0.210446
0.0310428
0.0792754
0.0881997
0.0857737
0.0846498
0.0785395
0.0715105
0.108581
0.115981
0.14817
0.136482
0.160127
0.138299
0.148151
0.151914
0.152378
0.114735
0.135679
0.11599
0.152532
0.147982
0.14033
0.146463
0.157874
0.152865
0.181642
0.17198
0.221352
0.186371
0.188772
0.206108
0.212391
0.104383
0.117224
0.121701
0.150693
0.12277
0.112703
0.134155
0.131161
0.108953
0.158378
0.141677
0.113973
0.122752
0.136785
0.116697
0.141943
0.115824
0.140546
0.173437
0.165933
0.122056
0.148024
0.15898
0.155587
0.132977
0.180994
0.171445
0.153042
0.142128
0.160315
0.1632
0.158782
0.237786
0.246151
0.219765
0.221892
0.234772
0.233326
0.225336
0.222944
0.259135
0.269769
0.203986
0.219318
0.24521
0.247986
0.227101
0.220618
0.202882
0.17646
0.181906
0.170453
0.187328
0.184416
0.18129
0.175577
0.203789
0.189013
0.171772
0.176196
0.194093
0.191674
0.181242
0.173258
0.239102
0.212522
0.218652
0.215201
0.22535
0.216899
0.222738
0.21525
0.239038
0.210941
0.19738
0.208494
0.223236
0.215311
0.214535
0.199061
0.206987
0.208602
0.196758
0.178048
0.201513
0.202157
0.188363
0.195358
0.201451
0.173059
0.194403
0.183072
0.191899
0.185719
0.186674
0.177988
0.0405135
0.0848256
0.100711
0.0775637
0.0537233
0.0760404
0.0803064
0.0950337
0.123626
0.158621
0.161945
0.155224
0.133758
0.138506
0.143464
0.144953
0.173349
0.194442
0.252938
0.203027
0.182065
0.190914
0.208656
0.209014
0.124445
0.159035
0.176771
0.158385
0.136963
0.146702
0.154475
0.162897
0.096645
0.118701
0.0999676
0.134583
0.108411
0.110212
0.112721
0.114981
0.10104
0.143174
0.157097
0.126171
0.116187
0.134068
0.138761
0.153337
0.143503
0.118073
0.144982
0.173945
0.135977
0.132913
0.153537
0.149279
0.145023
0.183221
0.155575
0.165285
0.16208
0.169572
0.159856
0.165969
0.340162
0.336947
0.304646
0.374049
0.354334
0.339223
0.357042
0.340081
0.334123
0.33822
0.291345
0.401064
0.354716
0.339046
0.349742
0.321754
0.254585
0.24193
0.206672
0.243477
0.242654
0.228612
0.23083
0.214486
0.391937
0.418933
0.306644
0.38567
0.3968
0.376513
0.366806
0.342147
0.357313
0.301323
0.389747
0.394768
0.352626
0.348882
0.386751
0.374682
0.339333
0.371155
0.274485
0.283151
0.333535
0.344767
0.292415
0.291855
0.294205
0.377241
0.362678
0.287329
0.317119
0.353576
0.305786
0.357456
0.276428
0.266844
0.343574
0.257812
0.270968
0.287211
0.282158
0.310213
0.184419
0.221545
0.164165
0.219356
0.193216
0.19761
0.203364
0.20025
0.273345
0.343647
0.315717
0.406504
0.323817
0.34572
0.375353
0.377817
0.13509
0.206971
0.0616097
0.239054
0.164957
0.150167
0.168999
0.18726
0.276701
0.409227
0.313299
0.352929
0.320942
0.327894
0.324206
0.345467
0.242663
0.179089
0.241249
0.344299
0.253284
0.221922
0.287802
0.261068
0.252674
0.377564
0.298484
0.187642
0.265852
0.307302
0.216435
0.257133
0.184108
0.253294
0.357348
0.258727
0.220221
0.271337
0.265573
0.302186
0.203876
0.303784
0.435801
0.33591
0.222104
0.257926
0.288253
0.356963
0.242511
0.237762
0.233752
0.227787
0.228914
0.231563
0.232414
0.232069
0.228267
0.202548
0.21474
0.199186
0.196119
0.209527
0.19504
0.217794
0.240225
0.226601
0.232424
0.226292
0.237498
0.23336
0.237585
0.236295
0.215354
0.210411
0.208058
0.192196
0.202813
0.199352
0.198065
0.19957
0.21963
0.235733
0.218563
0.190212
0.223079
0.22341
0.218198
0.216547
0.225723
0.187232
0.227011
0.237782
0.225119
0.205033
0.229133
0.221285
0.233196
0.220361
0.192941
0.224496
0.228899
0.218831
0.221103
0.207093
0.236004
0.225704
0.20229
0.224434
0.232463
0.224364
0.219284
0.211198
0.0608926
0.0603884
0.0420462
0.0673765
0.0670197
0.0690059
0.0639255
0.0569927
0.0804837
0.097017
0.111787
0.134878
0.112102
0.108736
0.119043
0.125554
0.042241
0.104972
0.0405321
0.0781183
0.0657844
0.0611052
0.0509233
0.056208
0.101842
0.132087
0.109424
0.140822
0.1066
0.11957
0.126665
0.122545
0.0777197
0.0647266
0.0810666
0.114052
0.0870854
0.0771868
0.0936426
0.0877467
0.0764829
0.115921
0.0852623
0.0570252
0.0850057
0.0986948
0.0658717
0.093383
0.0513055
0.0950743
0.117049
0.0820873
0.0704826
0.0911737
0.0868556
0.107938
0.050009
0.0883242
0.122123
0.0936988
0.0662403
0.0897514
0.0876865
0.114155
0.238633
0.229124
0.232621
0.241199
0.235958
0.235273
0.23772
0.235881
0.194537
0.170829
0.214484
0.190759
0.201564
0.193966
0.206263
0.204235
0.236157
0.232734
0.238762
0.252558
0.241183
0.236432
0.246595
0.241051
0.23833
0.218734
0.267927
0.268774
0.238567
0.229845
0.269937
0.258032
0.221392
0.234416
0.228129
0.208118
0.231293
0.234479
0.213733
0.225277
0.21801
0.204244
0.223595
0.231823
0.228797
0.214494
0.227141
0.227681
0.239188
0.242685
0.222804
0.261614
0.242825
0.23742
0.239368
0.232397
0.23634
0.250366
0.216086
0.227523
0.231271
0.232468
0.235636
0.232186
0.0118665
0.00649747
0.0622495
0.0664283
0.0227619
0.0202459
0.055645
0.0538929
0.0100356
0.0110493
0.0764847
0.0935787
0.039246
0.0331615
0.0860716
0.0778264
0.089349
0.113412
0.127605
0.163965
0.109494
0.106039
0.139743
0.135951
0.122293
0.155303
0.185441
0.237432
0.151898
0.146527
0.195398
0.192246
0.0322846
0.06547
0.0845451
0.0948147
0.0742659
0.0611316
0.0714639
0.0831082
0.0278738
0.0946235
0.074391
0.0700416
0.0652812
0.0690314
0.0537018
0.0774503
0.0941481
0.113481
0.132429
0.160609
0.115304
0.113028
0.12507
0.130399
0.0942918
0.160486
0.128631
0.109102
0.104346
0.126426
0.114617
0.128542
0.0628475
0.158254
0.117871
0.116423
0.154328
0.17579
0.111219
0.143052
0.242132
0.28073
0.24426
0.230184
0.263183
0.296317
0.239278
0.252995
0.151895
0.203394
0.181774
0.178876
0.175356
0.191464
0.171385
0.187193
0.144741
0.190682
0.174659
0.16614
0.163573
0.177671
0.159925
0.174209
0.190757
0.164101
0.155249
0.198781
0.181263
0.165378
0.18348
0.172094
0.238967
0.223678
0.233352
0.190308
0.205415
0.215431
0.195475
0.20449
0.15126
0.137166
0.189366
0.168942
0.153238
0.154039
0.167573
0.173184
0.17193
0.179557
0.205149
0.217883
0.184683
0.18108
0.204261
0.193468
0.195583
0.220523
0.242865
0.190487
0.199517
0.221964
0.205595
0.225456
0.255459
0.298883
0.314661
0.235739
0.268037
0.313597
0.269124
0.304185
0.285828
0.320431
0.326857
0.268576
0.292826
0.328532
0.292285
0.320566
0.182674
0.200864
0.221089
0.180159
0.18338
0.207367
0.192142
0.210093
0.226193
0.242636
0.194012
0.210083
0.237838
0.229978
0.210619
0.215154
0.263137
0.246113
0.325663
0.275065
0.260134
0.262076
0.273403
0.285251
0.247902
0.200042
0.218175
0.23865
0.234513
0.219138
0.232376
0.218911
0.272408
0.259706
0.246446
0.316277
0.274921
0.260699
0.284302
0.254811
0.285339
0.305536
0.297574
0.267377
0.285423
0.293509
0.278942
0.288622
0.317626
0.31276
0.340847
0.271597
0.311517
0.314926
0.305355
0.318445
0.318679
0.35018
0.34378
0.299225
0.321697
0.338775
0.315551
0.335784
0.243455
0.239887
0.253915
0.210636
0.236301
0.240623
0.23076
0.239025
0.303905
0.298053
0.262942
0.269809
0.298049
0.289569
0.27887
0.271657
0.31062
0.277175
0.337725
0.311135
0.308867
0.302182
0.327436
0.324271
0.292706
0.256987
0.264614
0.27222
0.281688
0.266326
0.277456
0.261064
0.305377
0.284697
0.27502
0.337548
0.30863
0.288946
0.318914
0.29422
0.0277234
0.0218036
0.0945586
0.0874238
0.044921
0.050202
0.0818681
0.0805204
0.0249767
0.0283269
0.115209
0.102612
0.0456338
0.0554293
0.0860484
0.100548
0.168221
0.182767
0.254038
0.223165
0.18626
0.196592
0.228934
0.238752
0.134517
0.144162
0.192712
0.176669
0.14678
0.153335
0.177535
0.182449
0.0426735
0.11103
0.100263
0.103212
0.0813108
0.0914791
0.0932265
0.105582
0.0484482
0.112734
0.129409
0.117369
0.0903726
0.100528
0.10246
0.121434
0.150591
0.135562
0.137138
0.19499
0.14577
0.135239
0.162221
0.1477
0.152907
0.209177
0.150605
0.172094
0.167735
0.174201
0.15936
0.164825
0.239427
0.241082
0.236581
0.244498
0.233222
0.236603
0.229005
0.235949
0.251405
0.270714
0.243996
0.279835
0.260909
0.260327
0.259635
0.259398
0.208693
0.217159
0.177683
0.195606
0.205219
0.205672
0.202096
0.201632
0.248137
0.278403
0.222514
0.272852
0.256762
0.252415
0.255078
0.250791
0.245008
0.221036
0.232346
0.263464
0.237419
0.227356
0.250769
0.234925
0.244194
0.261549
0.233454
0.224456
0.238256
0.246241
0.233045
0.235025
0.218986
0.233783
0.255521
0.214316
0.221576
0.2359
0.220272
0.236379
0.223719
0.214674
0.254276
0.22664
0.212638
0.21972
0.224856
0.239756
0.0071259
0.0608481
0.0192125
0.0702245
0.0415276
0.0445387
0.0429372
0.0450316
0.0889477
0.131455
0.10434
0.160019
0.120653
0.119384
0.132084
0.131318
0.0195863
0.072298
0.0283359
0.090291
0.0577247
0.0553705
0.0625427
0.0636277
0.120396
0.183863
0.157601
0.235282
0.172754
0.169079
0.190489
0.187402
0.0845369
0.0503075
0.0955716
0.144522
0.0847205
0.0685391
0.114543
0.0949867
0.0833835
0.140716
0.0882111
0.0495775
0.0852603
0.109969
0.0626418
0.0899445
0.0515021
0.102955
0.154399
0.12611
0.0718266
0.101398
0.10942
0.127411
0.0544372
0.121998
0.156278
0.0977252
0.0803461
0.10297
0.0985833
0.127094
0.282011
0.278331
0.295477
0.260668
0.277275
0.281886
0.275578
0.279229
0.264613
0.240317
0.241872
0.214484
0.241493
0.247253
0.23614
0.228947
0.299152
0.258188
0.284016
0.249167
0.277379
0.27667
0.271375
0.266589
0.233488
0.207208
0.222788
0.201405
0.221296
0.218726
0.212999
0.210108
0.26443
0.28584
0.251668
0.23051
0.259327
0.266947
0.242334
0.252393
0.268256
0.230543
0.256477
0.281744
0.255966
0.238789
0.275113
0.253705
0.281056
0.24931
0.221724
0.24078
0.263978
0.249336
0.247016
0.23267
0.279594
0.239478
0.219539
0.242552
0.264421
0.244036
0.24868
0.22458
0.0476756
0.106418
0.101146
0.097183
0.0735809
0.0859885
0.0849267
0.102284
0.172399
0.258206
0.228432
0.232071
0.213452
0.22672
0.220795
0.232559
0.151557
0.214277
0.209819
0.197125
0.186473
0.205852
0.196573
0.203068
0.142813
0.203638
0.18881
0.184774
0.16998
0.18597
0.174236
0.18599
0.139765
0.13426
0.126296
0.184718
0.144988
0.138743
0.156186
0.140522
0.149784
0.208726
0.212406
0.141435
0.164952
0.201277
0.163143
0.197773
0.138424
0.131024
0.192377
0.182989
0.144009
0.148632
0.174305
0.17876
0.149792
0.192798
0.208772
0.216724
0.186827
0.193576
0.200735
0.207732
0.00743492
0.0127179
0.00957431
0.0496209
0.0167272
-0.00357138
0.0282549
0.019477
0.0145462
0.018417
0.0144514
0.102293
0.0292795
0.00493369
0.0573448
0.02579
0.013038
0.0109825
0.00234537
0.0777303
0.0183654
0.00614378
0.0377125
0.0270954
0.111763
0.1704
0.147419
0.244874
0.154707
0.141007
0.185384
0.184236
0.0251131
0.0196154
0.0709634
0.0866932
0.0387278
0.0492111
0.077124
0.0509581
0.00251581
0.0628311
0.00722355
0.00587063
0.0140165
0.0696753
0.0131037
0.0288315
0.0261179
0.0919443
0.115574
0.102142
0.0587276
0.0799587
0.0774858
0.113619
0.00964054
0.0934091
0.0922979
0.0268603
0.0600706
0.0685971
0.0481542
0.07405
0.245015
0.23335
0.243235
0.24858
0.23476
0.235151
0.24179
0.241686
0.239183
0.236116
0.244707
0.250582
0.236678
0.239344
0.247277
0.247673
0.251943
0.256493
0.268408
0.276412
0.260133
0.261671
0.267791
0.270309
0.250944
0.266404
0.288056
0.282072
0.261035
0.268005
0.281193
0.287121
0.238137
0.243717
0.242385
0.248011
0.242491
0.24209
0.249479
0.247242
0.239351
0.253436
0.250125
0.245878
0.243983
0.243752
0.245329
0.248273
0.24767
0.252201
0.263414
0.266641
0.257941
0.254586
0.264425
0.257292
0.249937
0.274025
0.266489
0.258308
0.257296
0.268835
0.256202
0.263347
0.360283
0.308128
0.365871
0.373183
0.353793
0.337913
0.372462
0.34898
0.257302
0.203975
0.233086
0.233326
0.242453
0.228266
0.240665
0.225999
0.349317
0.266808
0.305262
0.324181
0.323312
0.302259
0.326719
0.29369
0.37557
0.283843
0.340157
0.359664
0.352462
0.330649
0.366483
0.333418
0.292246
0.349213
0.357397
0.28787
0.307507
0.335787
0.303992
0.33772
0.278683
0.268385
0.262433
0.329768
0.282927
0.268062
0.298912
0.277203
0.365396
0.379619
0.28975
0.345232
0.364448
0.344926
0.33462
0.329643
0.332938
0.31207
0.27001
0.261255
0.312706
0.312529
0.283304
0.27588
0.0432759
0.133051
0.113517
0.141573
0.103586
0.119957
0.125574
0.144867
0.209176
0.276421
0.24097
0.293687
0.251472
0.254849
0.261548
0.268666
0.156568
0.210151
0.189424
0.217433
0.190033
0.19357
0.194178
0.202328
0.241788
0.311035
0.262219
0.329741
0.285967
0.284969
0.29916
0.301665
0.176825
0.161838
0.192995
0.261556
0.196323
0.178661
0.226167
0.200981
0.188012
0.266815
0.224133
0.168409
0.206377
0.246301
0.180507
0.219533
0.178136
0.218065
0.275075
0.241665
0.194524
0.220166
0.228412
0.262424
0.181729
0.247645
0.281646
0.235433
0.214614
0.234618
0.228799
0.253669
0.36778
0.358292
0.341215
0.365399
0.368767
0.356335
0.365628
0.354483
0.356498
0.361711
0.33346
0.365113
0.362795
0.348534
0.35566
0.341997
0.314704
0.308813
0.296894
0.323987
0.311661
0.302367
0.306924
0.298779
0.353249
0.357897
0.340298
0.330759
0.351216
0.346232
0.336426
0.33249
0.362868
0.336906
0.366532
0.367654
0.357706
0.353947
0.362619
0.35655
0.348587
0.354991
0.319466
0.324782
0.345445
0.345162
0.332723
0.332244
0.332696
0.361642
0.356407
0.327948
0.343983
0.35052
0.339011
0.347636
0.320189
0.321535
0.346253
0.313959
0.318153
0.331
0.324703
0.344729
0.0154526
0.0157521
0.0163818
0.0815132
0.0270531
0.0140274
0.0516526
0.0327878
0.0147782
0.0170201
0.0156333
0.098684
0.0289413
0.0117989
0.0572589
0.0322423
0.019188
0.0152341
0.0189445
0.0948279
0.0316119
0.013877
0.0487836
0.0252727
0.159462
0.175063
0.169479
0.244527
0.177019
0.165396
0.197581
0.184274
0.024776
0.0304874
0.0985402
0.108431
0.049223
0.0488786
0.0875401
0.0826983
0.0125016
0.0912882
0.0143234
0.0126287
0.0303565
0.0567299
0.016387
0.0319586
0.0579478
0.117022
0.123743
0.122823
0.0878308
0.102037
0.10321
0.122929
0.0306415
0.103988
0.106091
0.0278451
0.0533342
0.088557
0.0519653
0.0883214
0.250146
0.244789
0.236318
0.232391
0.247301
0.246879
0.239353
0.237153
0.226856
0.200061
0.197526
0.189599
0.213237
0.209942
0.202276
0.198135
0.216465
0.189799
0.190007
0.18678
0.199766
0.196466
0.194261
0.189972
0.210758
0.182417
0.182047
0.178619
0.194193
0.191436
0.190244
0.183412
0.23515
0.224701
0.224093
0.202303
0.224086
0.226855
0.218274
0.22108
0.230427
0.197677
0.200204
0.222483
0.221525
0.203665
0.222026
0.202983
0.218104
0.215618
0.194925
0.192915
0.212794
0.212201
0.197813
0.197514
0.215191
0.187944
0.189795
0.192231
0.199063
0.195158
0.195621
0.186898
0.038545
0.0911361
0.0979507
0.0897253
0.0616967
0.0767299
0.0752407
0.0917235
0.134972
0.175953
0.175429
0.173338
0.15817
0.16753
0.164215
0.170989
0.13979
0.176112
0.18283
0.180034
0.156245
0.171627
0.171643
0.181794
0.131263
0.168928
0.16958
0.168642
0.152702
0.162794
0.1623
0.16977
0.113316
0.115612
0.111379
0.153752
0.121769
0.11163
0.13332
0.122493
0.124761
0.165561
0.168692
0.13092
0.133548
0.15263
0.138902
0.15779
0.127943
0.123155
0.164203
0.162372
0.134466
0.131638
0.149396
0.153233
0.138798
0.172917
0.171991
0.173401
0.15539
0.165018
0.167143
0.170184
0.0290412
0.0295462
0.113153
0.192341
0.0653621
0.0655536
0.135244
0.116586
0.0286656
0.0306964
0.0946898
0.148957
0.0492006
0.0605073
0.117612
0.109665
0.157467
0.146357
0.185152
0.212477
0.161881
0.155718
0.185739
0.180291
0.266551
0.242296
0.266288
0.325561
0.280058
0.247038
0.296026
0.270542
0.0568375
0.123665
0.191249
0.16527
0.124809
0.142023
0.176025
0.178577
0.060587
0.156208
0.112522
0.113698
0.112993
0.132485
0.0977441
0.11873
0.162356
0.235043
0.209182
0.2323
0.199035
0.224815
0.205992
0.237423
0.157175
0.216322
0.194824
0.154405
0.166317
0.191171
0.162965
0.18443
0.345541
0.307164
0.354682
0.376955
0.341752
0.329925
0.367284
0.345927
0.259052
0.213513
0.256655
0.243556
0.241652
0.23455
0.252812
0.243482
0.360645
0.305276
0.359844
0.377164
0.351792
0.337511
0.36834
0.351571
0.39462
0.307052
0.3851
0.382372
0.367073
0.35031
0.392936
0.36471
0.291828
0.350353
0.364317
0.293549
0.312508
0.345327
0.316509
0.350534
0.281469
0.279685
0.284736
0.337344
0.294991
0.283752
0.306094
0.293885
0.369522
0.392548
0.310365
0.384294
0.382379
0.36575
0.361743
0.349365
0.351634
0.36225
0.293083
0.295478
0.345083
0.345748
0.308325
0.30934
0.251277
0.24683
0.235835
0.256703
0.247302
0.24184
0.25092
0.237518
0.229672
0.186947
0.195418
0.208668
0.221911
0.209156
0.21567
0.197
0.217683
0.185691
0.180769
0.197355
0.19724
0.188654
0.191522
0.176469
0.25793
0.236662
0.223718
0.258701
0.262576
0.23803
0.263764
0.235748
0.239571
0.225299
0.252844
0.242372
0.239568
0.239576
0.245565
0.243227
0.2311
0.225916
0.202396
0.216713
0.223517
0.228144
0.219396
0.210516
0.22297
0.252044
0.236156
0.222517
0.237986
0.237644
0.222522
0.230998
0.211998
0.198977
0.219235
0.189688
0.204621
0.202343
0.203738
0.205979
0.0242066
0.0830489
0.095195
0.0879471
0.0641913
0.0753764
0.0953027
0.100322
0.124852
0.162275
0.170602
0.176155
0.148289
0.156782
0.17163
0.175868
0.141817
0.177917
0.173502
0.189085
0.170159
0.169288
0.189958
0.196575
0.16147
0.19552
0.223119
0.242023
0.194224
0.198591
0.226226
0.220563
0.111138
0.122292
0.123359
0.163857
0.134359
0.121074
0.142213
0.142673
0.119915
0.175244
0.162956
0.122392
0.139196
0.157587
0.131366
0.157986
0.145552
0.160469
0.18763
0.211525
0.146295
0.159792
0.183217
0.172084
0.153911
0.209495
0.181196
0.187171
0.165247
0.187753
0.184461
0.187252
0.294098
0.313607
0.316444
0.304832
0.306208
0.307647
0.306351
0.313035
0.340865
0.367707
0.365549
0.355966
0.354073
0.363916
0.352686
0.366545
0.326238
0.342291
0.316007
0.289947
0.312272
0.330026
0.30867
0.318786
0.295648
0.317717
0.275176
0.273541
0.313524
0.30408
0.292131
0.278946
0.331524
0.315137
0.316965
0.347425
0.326904
0.320323
0.325155
0.316436
0.332184
0.342696
0.355285
0.326323
0.335014
0.343575
0.334062
0.34396
0.312863
0.306201
0.324646
0.294815
0.30657
0.309356
0.300513
0.313472
0.322554
0.291142
0.327113
0.346802
0.323148
0.308617
0.335002
0.32828
0.0285844
0.08551
0.0340796
0.0966409
0.0696681
0.0663617
0.0714686
0.0636118
0.157649
0.230456
0.175446
0.212163
0.218695
0.206146
0.21908
0.202938
0.0330171
0.103063
0.0358674
0.106121
0.0718667
0.0698131
0.0756995
0.0695558
0.168621
0.219066
0.17175
0.230721
0.215431
0.199188
0.221056
0.201918
0.142012
0.071859
0.144112
0.201434
0.140981
0.104414
0.157384
0.136698
0.134527
0.194416
0.140914
0.0699524
0.132917
0.178427
0.098909
0.146774
0.0733635
0.148744
0.206874
0.146133
0.107552
0.134556
0.14532
0.168908
0.0667153
0.135419
0.190141
0.139703
0.106644
0.139752
0.152277
0.171045
0.257751
0.250974
0.254715
0.23802
0.251861
0.254989
0.244268
0.248285
0.249954
0.252873
0.253079
0.235579
0.24808
0.250552
0.236538
0.24251
0.246862
0.245016
0.207807
0.205803
0.238407
0.240793
0.217284
0.218855
0.217576
0.218618
0.1971
0.190611
0.209542
0.209728
0.194016
0.194141
0.246869
0.242967
0.232239
0.230753
0.241948
0.239491
0.236121
0.233904
0.250594
0.232925
0.246983
0.247949
0.245178
0.242572
0.237611
0.245231
0.233947
0.2218
0.218684
0.203569
0.22684
0.224689
0.217901
0.216384
0.238523
0.204036
0.220688
0.233291
0.230882
0.219208
0.227152
0.221128
0.0309371
0.0824041
0.0333507
0.0778449
0.0525655
0.0532529
0.054737
0.0514974
0.127887
0.167657
0.141427
0.173757
0.149409
0.147092
0.152927
0.153088
0.0304213
0.0897692
0.0360737
0.0797798
0.0527259
0.0492027
0.0547322
0.053816
0.121761
0.162515
0.120577
0.157191
0.143312
0.144592
0.140423
0.140734
0.10505
0.054457
0.103666
0.142864
0.109263
0.0735374
0.124657
0.104451
0.105065
0.144635
0.10476
0.0516671
0.108524
0.129203
0.0805164
0.107807
0.049314
0.0999413
0.14463
0.100821
0.0779712
0.101844
0.102416
0.12109
0.0480333
0.100643
0.144414
0.107891
0.0687895
0.104845
0.106374
0.124838
0.249396
0.244239
0.260513
0.264619
0.255054
0.254743
0.265359
0.262415
0.226042
0.194367
0.24102
0.223094
0.22131
0.222984
0.250736
0.246685
0.248181
0.250583
0.255932
0.270939
0.253981
0.249855
0.25904
0.255702
0.278896
0.263533
0.289063
0.284201
0.281645
0.275572
0.289231
0.286391
0.25041
0.255803
0.264682
0.248089
0.261907
0.265569
0.249026
0.263128
0.252721
0.249188
0.237743
0.254007
0.25925
0.249017
0.239109
0.246762
0.259023
0.2725
0.259563
0.275805
0.265171
0.266335
0.264875
0.256224
0.255873
0.271455
0.250509
0.248956
0.252649
0.258351
0.262058
0.263264
0.0173693
0.00686759
0.0864603
0.0960777
0.0361484
0.0315334
0.0839613
0.0783292
0.012088
0.0121154
0.0760843
0.0872773
0.0345009
0.0371598
0.0822663
0.074896
0.12986
0.134738
0.176532
0.198132
0.141154
0.138596
0.169164
0.165559
0.165354
0.156263
0.224474
0.242097
0.172532
0.168084
0.206323
0.199593
0.033965
0.0930736
0.0919252
0.101961
0.0801011
0.0914495
0.0766762
0.0938761
0.0414052
0.0985734
0.0901349
0.0957156
0.0726525
0.0827996
0.0710119
0.0850874
0.129157
0.13693
0.140894
0.189999
0.144263
0.134638
0.150505
0.147429
0.125952
0.182834
0.136947
0.129631
0.138358
0.150275
0.13811
0.147427
0.250914
0.239834
0.269592
0.233943
0.246111
0.24967
0.247542
0.253177
0.222307
0.201333
0.242362
0.197832
0.213559
0.215341
0.213369
0.217955
0.292209
0.280409
0.317624
0.266553
0.285072
0.29288
0.289479
0.29756
0.213198
0.189173
0.226056
0.188693
0.202694
0.205983
0.201391
0.205846
0.231742
0.262966
0.22776
0.209136
0.233272
0.247442
0.217862
0.231165
0.234989
0.21116
0.255431
0.269713
0.23896
0.229599
0.258262
0.249632
0.263714
0.227832
0.208319
0.241875
0.250442
0.233255
0.241457
0.222285
0.271281
0.247437
0.213126
0.257757
0.263628
0.246397
0.250735
0.235515
0.0396668
0.113877
0.0144446
0.113216
0.0922418
0.0738684
0.0746184
0.0731798
0.148116
0.17002
0.126089
0.167225
0.154389
0.143101
0.149636
0.14595
0.0052867
0.0795261
0.0151216
0.0764361
0.0650036
0.0410091
0.064662
0.0462052
0.136424
0.161771
0.122237
0.15902
0.145262
0.137989
0.14063
0.142228
0.123339
0.067451
0.121634
0.148597
0.122072
0.0941022
0.150164
0.115173
0.115918
0.140131
0.0973584
0.0602313
0.116962
0.134363
0.0786535
0.112883
0.0673891
0.105225
0.141455
0.107779
0.0835663
0.120762
0.11277
0.128653
0.0643783
0.103342
0.140947
0.0997405
0.0815302
0.10067
0.116601
0.121457
0.449738
0.428685
0.550193
0.530958
0.459369
0.463719
0.535162
0.520268
0.406807
0.380098
0.457424
0.468327
0.424804
0.413189
0.457322
0.431831
0.61845
0.523898
0.636102
0.582838
0.57193
0.559434
0.606247
0.586486
0.570848
0.492458
0.526277
0.463477
0.511956
0.49935
0.494162
0.491079
0.445121
0.54758
0.53874
0.517715
0.504749
0.506951
0.519557
0.531818
0.442119
0.489517
0.484867
0.543648
0.482747
0.476603
0.494875
0.492759
0.607762
0.582796
0.502075
0.552052
0.602381
0.551296
0.53487
0.515188
0.581614
0.540604
0.485699
0.491309
0.534553
0.523097
0.50801
0.496734
0.562844
1.50896
0.696437
0.313331
0.392047
1.1155
0.444495
1.04272
0.552707
0.369631
0.41153
0.494188
0.504913
0.40884
0.521877
0.438824
0.454656
0.428499
0.407379
0.524498
0.475534
0.420072
0.49349
0.433128
0.388535
0.511285
0.58694
0.414513
0.412503
0.527583
0.447683
0.508304
0.975567
0.708342
0.428756
0.570524
0.847563
0.91072
0.707556
0.753884
0.921754
0.574371
0.430258
0.597262
0.807836
0.731018
0.572514
0.530132
0.636988
0.45503
0.576118
0.595868
0.711809
0.652554
0.63045
0.612667
0.541106
0.544249
0.5468
0.451755
0.535287
0.559341
0.501566
0.559865
0.00956107
0.0121411
0.011172
0.0668496
0.0652872
0.0272862
0.0479075
0.0405466
0.0132317
-0.0080618
0.00536942
0.099336
0.0507617
0.0201909
0.0859204
0.0441561
0.0142206
0.00638806
0.011342
0.0906154
0.0344782
0.0218622
0.0425277
0.0391155
0.120126
0.139394
0.131584
0.164585
0.137185
0.131285
0.149585
0.148
0.05821
0.0422191
0.0980898
0.0996776
0.0790507
0.0500929
0.0815752
0.077755
0.0162808
0.0804788
0.0180649
0.0227123
0.0364143
0.0643373
0.0169602
0.0363838
0.0308898
0.109228
0.125957
0.110542
0.0730464
0.0960012
0.0922301
0.1105
0.042433
0.108471
0.110727
0.0390652
0.0538423
0.0831364
0.0665687
0.0855804
0.332989
0.300977
0.336878
0.294522
0.316182
0.321789
0.320534
0.32255
0.275875
0.259252
0.281429
0.250945
0.267394
0.270198
0.267262
0.269466
0.344441
0.308691
0.344015
0.29504
0.324443
0.327796
0.325038
0.326303
0.256022
0.235422
0.254365
0.213609
0.236639
0.242661
0.23025
0.236299
0.288103
0.320835
0.275528
0.255765
0.290563
0.303439
0.267336
0.28049
0.292289
0.260389
0.295911
0.325475
0.29313
0.278389
0.305053
0.292747
0.324618
0.27319
0.252021
0.275379
0.295171
0.277419
0.277769
0.265161
0.326393
0.277736
0.256186
0.296014
0.308048
0.282678
0.294076
0.26892
0.285362
0.298056
0.27876
0.293346
0.294728
0.291608
0.291845
0.287158
0.298246
0.2754
0.256559
0.25583
0.29246
0.281671
0.277576
0.261742
0.259393
0.243373
0.236435
0.252135
0.255266
0.245466
0.257533
0.242756
0.283322
0.249659
0.263723
0.269887
0.290411
0.279967
0.279261
0.264758
0.299383
0.284668
0.300409
0.28592
0.289464
0.292678
0.284545
0.29215
0.294491
0.275838
0.255168
0.275568
0.280761
0.291434
0.273489
0.267224
0.278081
0.290054
0.270926
0.270622
0.275408
0.273264
0.273333
0.286423
0.26875
0.25317
0.254221
0.250955
0.267732
0.260531
0.265483
0.25689
0.219682
0.216942
0.167135
0.23533
0.226342
0.210652
0.209638
0.195768
0.22934
0.245708
0.170831
0.228553
0.23889
0.24734
0.227554
0.219037
0.114738
0.100238
0.0421582
0.114533
0.107314
0.0984374
0.0898946
0.0760618
0.243157
0.230731
0.19125
0.248423
0.240212
0.239402
0.231083
0.22406
0.227009
0.171582
0.235173
0.239701
0.214404
0.199984
0.225995
0.224458
0.219035
0.233958
0.168072
0.153319
0.200688
0.208851
0.171597
0.171914
0.156123
0.221696
0.227777
0.166583
0.181799
0.208609
0.183668
0.207982
0.136136
0.155082
0.216433
0.143827
0.144318
0.172531
0.157318
0.16838
0.474103
0.55383
0.575241
0.539225
0.500012
0.528462
0.538793
0.551296
0.576401
0.46132
0.540032
0.572051
0.533691
0.495217
0.602865
0.528941
0.649641
0.611553
0.654722
0.777455
0.68759
0.622437
0.746887
0.665738
0.622849
0.554044
0.756655
0.675829
0.645719
0.629469
0.745819
0.672517
0.556071
0.609123
0.576398
0.574907
0.610006
0.607956
0.582833
0.591599
0.567549
0.591003
0.563523
0.602354
0.577442
0.637606
0.628176
0.600136
0.646973
0.629892
0.616122
0.74623
0.679213
0.6259
0.683142
0.646795
0.635549
0.735763
0.615102
0.603875
0.723913
0.697484
0.669494
0.715298
0.377433
0.351444
0.511287
0.337832
0.329172
0.384604
0.398871
0.444422
0.39008
0.437989
0.572412
0.506139
0.410626
0.449732
0.505271
0.510999
0.432814
0.52983
0.425523
0.486024
0.46508
0.48852
0.45847
0.469204
0.347537
0.515343
0.55218
0.650464
0.3294
0.465846
0.528725
0.548921
0.370916
0.498219
0.27661
0.476329
0.434196
0.433113
0.448394
0.383715
0.40675
0.492987
0.604491
0.5945
0.481445
0.475457
0.561515
0.564661
0.445208
0.434291
0.517604
0.518124
0.435967
0.437177
0.440109
0.442263
0.470948
0.516218
0.538585
0.533201
0.506653
0.489725
0.543809
0.532088
0.039661
0.126259
0.243739
0.312968
0.066429
0.20197
0.134464
0.162907
0.202678
0.254771
0.248399
0.229233
0.233798
0.261067
0.222502
0.244681
0.212245
0.250873
0.228242
0.181305
0.198651
0.205464
0.179993
0.189718
0.244644
0.211444
0.206882
0.184318
0.222953
0.183333
0.219534
0.167029
0.222511
0.208636
0.249455
0.212619
0.218178
0.215388
0.227685
0.197714
0.279289
0.224905
0.281685
0.250231
0.307402
0.228317
0.201132
0.254745
0.179013
0.18129
0.20055
0.16257
0.201697
0.134147
0.212588
0.20754
0.163083
0.176085
0.222382
0.259992
0.220388
0.183372
0.224399
0.200432
-0.0398377
0.0428902
0.0928059
0.0510031
0.0358135
0.0650072
0.0357107
0.0755217
0.0390134
-0.00722971
-0.0641219
-0.0331832
-0.150071
-0.179662
-0.0951196
-0.135809
0.123639
0.0898915
0.151105
0.153562
0.107308
0.110448
0.131736
0.134564
0.05306
0.122289
0.158197
0.150184
0.0964776
0.123329
0.113098
0.151236
0.00289606
0.0684622
0.043797
0.0742128
0.0430619
0.0733074
0.0603245
0.08725
0.0365286
-0.0134583
0.019239
0.0741727
0.0760384
0.0521831
0.12853
0.0872654
0.0880028
0.0776937
0.0942994
0.142312
0.109381
0.110061
0.124548
0.138518
0.0991787
0.132107
0.0375519
0.0374533
0.103911
0.119408
0.104806
0.126829
0.351083
0.377176
0.328603
0.343667
0.353254
0.369173
0.345094
0.350103
0.531182
0.169837
0.241668
0.399503
0.29975
0.00161353
0.386735
0.0866789
0.261138
0.221467
0.2114
0.242277
0.246119
0.214302
0.230192
0.219721
0.322855
0.316737
0.261842
0.305745
0.313789
0.36468
0.294697
0.273908
0.40515
0.30858
0.333063
0.384901
0.343013
0.367318
0.280174
0.361533
0.381202
0.283148
0.184933
0.29757
0.317103
0.191919
0.307779
0.289351
0.283396
0.320137
0.30636
0.262209
0.292331
0.327807
0.270399
0.353126
0.272788
0.231052
0.273615
0.190494
0.271703
0.285506
0.25151
0.298886
0.0637973
0.124357
0.319597
0.0534996
0.123004
0.107735
0.168856
0.185118
0.153189
0.19462
0.166585
0.228139
0.169527
0.178213
0.19264
0.168449
0.48488
0.206915
0.740936
0.0687978
0.288376
-0.257108
0.123778
0.00685849
0.213604
0.247415
0.286932
0.261907
0.258818
0.255247
0.275459
0.313364
0.109865
0.115873
0.258295
0.232364
0.168195
0.216428
0.181166
0.240111
0.162986
0.21182
0.159632
0.104384
0.19954
0.203157
0.275834
0.158169
0.215523
0.176283
0.233225
0.272281
0.191537
0.251343
0.244075
0.242838
0.229634
0.163427
0.234208
0.1404
0.202911
0.200373
0.164948
0.186949
0.401657
0.433212
0.351972
0.365847
0.391327
0.4102
0.393846
0.355548
0.387132
0.382954
0.343039
0.316602
0.389956
0.414032
0.379744
0.373985
0.347901
0.48171
0.558708