/*--------------------------------*- C++ -*----------------------------------*\
| =========                 |                                                 |
| \\      /  F ield         | OpenFOAM: The Open Source CFD Toolbox           |
|  \\    /   O peration     | Version:  2506                                  |
|   \\  /    A nd           | Website:  www.openfoam.com                      |
|    \\/     M anipulation  |                                                 |
\*---------------------------------------------------------------------------*/
FoamFile
{
    version     2.0;
    format      ascii;
    arch        "LSB;label=32;scalar=64";
    class       surfaceScalarField;
    location    "1100";
    object      phi;
}
// * * * * * * * * * * * * * * * * * * * * * * * * * * * * * * * * * * * * * //

dimensions      [0 3 -1 0 0 0 0];

oriented        oriented;

internalField   nonuniform List<scalar> 
105296
(
0.000140746
7.94322e-05
-0.000199596
-2.05814e-05
3.00593e-05
9.31526e-05
-0.000102695
-2.05142e-05
-5.37286e-05
0.000191227
9.86467e-05
-0.000236143
-0.000136834
0.000105738
4.39708e-05
-1.2875e-05
-2.24066e-05
0.000180494
-1.73393e-05
0.000190931
-0.000183276
-1.70439e-05
6.07039e-05
0.00012016
7.25929e-05
-1.12705e-06
-6.77566e-05
-3.70454e-06
-2.38935e-05
3.77481e-05
-2.27057e-05
8.85606e-06
-9.78421e-06
-9.49188e-06
4.27767e-05
-2.35012e-05
-4.57441e-05
-8.61816e-07
4.31668e-05
3.43998e-06
2.06946e-05
5.01152e-05
1.79001e-06
5.84112e-05
-6.16037e-05
3.99341e-06
3.79211e-07
5.26194e-05
0.000182692
-7.68958e-05
7.02607e-05
-0.000176058
1.67089e-05
-3.62685e-05
7.64923e-05
-5.69402e-05
-7.77005e-05
3.13396e-05
0.000195072
-0.000148713
-0.000115301
-1.81601e-05
3.15779e-05
0.000101883
3.34948e-05
0.000195111
-4.59158e-05
0.000185932
-0.00013573
2.94166e-05
5.03926e-05
0.000137648
8.10505e-05
-0.000102362
2.58767e-05
-4.5658e-06
4.30572e-06
-4.74282e-05
5.19933e-05
-8.87041e-06
-4.40631e-06
-8.43644e-05
2.3099e-05
6.56753e-05
-7.7234e-05
1.41944e-05
5.91024e-05
3.93798e-06
-4.11131e-06
9.02453e-05
-5.08072e-06
5.99977e-05
-5.9798e-05
-3.82981e-06
1.68425e-05
5.17627e-05
9.38516e-05
1.30745e-05
-1.37748e-05
-3.61376e-05
1.22686e-05
0.000215098
-8.74158e-06
0.000128593
-1.41122e-05
-6.42348e-05
1.27333e-05
5.91353e-05
-7.63201e-06
1.02065e-05
6.05726e-05
2.30721e-05
9.42292e-05
8.14148e-06
-1.18028e-05
9.36303e-05
0.00010087
-8.89249e-05
-6.20472e-05
7.39168e-05
-3.20506e-05
6.3909e-05
-4.13551e-05
-1.94337e-05
0.000203208
-0.000171505
8.72092e-05
3.67338e-05
2.55382e-05
3.50942e-05
-1.77967e-05
2.85688e-05
0.000133401
1.10813e-05
7.06158e-05
-6.31448e-06
3.25459e-05
3.78962e-06
7.91694e-06
-0.000115651
-4.56977e-07
3.17444e-05
-1.43345e-05
0.000101241
4.64948e-05
7.29822e-05
-1.69738e-05
2.56424e-06
0.000137392
-9.89412e-05
8.0322e-05
2.00907e-05
6.17407e-05
-8.76102e-06
3.63961e-05
9.44133e-05
-2.93905e-06
-1.96408e-06
1.68671e-05
3.49916e-05
3.05958e-05
4.9938e-05
5.17091e-05
4.80394e-05
-6.51787e-05
3.01341e-05
3.61452e-05
-1.17311e-05
2.66087e-05
2.90924e-05
2.92037e-05
6.20959e-05
8.20142e-05
1.90835e-05
3.12809e-05
3.59188e-05
4.35427e-05
2.78191e-05
1.0061e-05
2.23795e-05
-3.58031e-05
1.53227e-05
2.15818e-05
-1.61287e-05
1.1816e-05
3.58914e-05
2.85429e-05
6.53921e-05
3.97055e-05
2.85265e-05
2.0737e-05
3.2429e-05
2.31172e-05
-4.44145e-05
2.23979e-05
1.36171e-05
-3.43332e-05
2.18156e-05
-2.93267e-05
1.10775e-05
1.93492e-05
-7.96607e-06
-2.87827e-05
1.47273e-05
2.20199e-05
1.85638e-05
4.12455e-05
-3.66931e-05
3.32821e-05
1.67489e-05
1.65299e-05
2.07043e-05
2.15743e-05
-1.40955e-05
1.83973e-05
1.51843e-05
-1.65601e-05
2.44748e-05
-2.06679e-05
-1.34872e-05
1.49138e-05
1.92404e-05
-1.48441e-05
1.25197e-05
1.6518e-05
5.60557e-06
3.28113e-05
3.61535e-05
-1.53639e-05
5.26184e-06
1.27052e-05
2.07473e-05
8.35124e-05
3.51428e-05
-6.02795e-05
2.45096e-05
6.59031e-05
1.52445e-05
4.39102e-05
-3.39784e-05
1.72233e-05
4.84994e-05
3.77163e-05
1.54424e-05
3.03535e-05
1.33556e-05
2.79587e-05
5.65587e-05
6.40636e-05
-1.6132e-05
4.51714e-05
-2.33297e-05
3.97536e-05
-2.6111e-05
5.17222e-05
3.77772e-05
5.66402e-05
4.23823e-05
3.16308e-05
5.06832e-05
1.19191e-05
2.22909e-05
3.16926e-05
1.05122e-05
1.93021e-05
1.94611e-05
1.24779e-05
-4.51092e-05
1.20237e-05
1.95974e-05
-3.88826e-05
2.78503e-05
2.29509e-05
2.81882e-05
-3.22854e-05
1.5026e-05
2.95986e-05
-3.99337e-05
2.31744e-05
2.89343e-05
2.87145e-05
-2.07497e-05
2.617e-05
1.09778e-05
-1.80726e-05
-1.39301e-05
1.18607e-05
2.68647e-05
-9.70351e-05
-3.57245e-05
0.000133862
0.000192248
-0.00014002
-5.11236e-05
-7.12463e-05
-9.54971e-05
0.000167845
-2.84349e-05
-0.000123865
-4.44993e-05
0.000196801
-0.000119007
7.19205e-05
-4.99471e-05
7.43426e-05
-0.000108298
0.000151784
-0.000105201
-0.000189481
0.000274812
-8.42259e-05
0.000271349
-7.40216e-05
-0.000196225
-5.41205e-05
0.000178313
-0.00012309
-2.02107e-05
0.000235099
-8.774e-05
-0.000127147
-0.000207158
0.000119364
-0.000101684
6.52927e-05
-0.000170945
0.0002701
-0.000159773
-5.15115e-05
-8.68084e-05
0.000139423
0.000123648
-5.78085e-05
-6.47358e-05
-6.98852e-05
9.02918e-05
-1.93065e-05
-8.70294e-06
-6.9145e-05
0.000115788
-3.79434e-05
-5.82229e-05
9.91305e-05
-9.24178e-05
6.65263e-05
-3.98773e-05
0.000130304
-4.32365e-05
-9.08672e-05
-4.20516e-05
-4.61147e-05
0.000179034
0.000143315
-1.27478e-05
-5.77935e-05
-7.27759e-05
-5.21176e-05
-2.72637e-05
0.000132231
-5.28486e-05
-1.27163e-05
-3.51562e-05
6.17664e-05
-1.38922e-05
-0.000103889
6.00585e-05
-4.70378e-05
6.82221e-05
-2.87951e-05
-8.16338e-05
0.000128976
-6.5529e-05
0.000113272
-0.000170898
-8.23931e-05
-8.95619e-05
-0.00011033
0.000104396
-0.000167384
0.000110001
-6.64798e-05
0.000145974
-0.000166116
8.94893e-05
-6.93483e-05
0.000228189
3.1857e-05
-0.000146772
3.34266e-05
0.00024058
-6.27485e-05
0.000106623
0.000105016
-3.17887e-05
0.000100773
0.00012659
5.28272e-05
-0.000213454
0.000104229
-0.000137278
9.55229e-05
0.000101034
-0.000116829
0.000110795
2.51255e-05
-8.74603e-05
0.000166731
-0.00012948
0.00019743
0.000198105
-0.000121363
-9.1858e-05
-7.7734e-05
0.000142327
-7.531e-05
-7.56383e-05
0.000176074
-9.81667e-05
-7.11428e-05
-9.63538e-05
-7.00398e-05
-9.08109e-05
-5.60686e-05
7.26838e-05
-9.32745e-05
8.27647e-05
-8.77458e-05
1.68393e-05
-0.000179296
-0.000170326
1.42641e-05
-8.33785e-05
-4.00478e-05
1.62426e-05
1.42808e-05
9.52416e-06
1.51046e-05
-4.68485e-05
1.67931e-05
1.49545e-05
1.16553e-05
-3.19466e-05
1.75798e-05
2.71442e-06
1.24271e-05
-3.35685e-05
1.3859e-05
7.28692e-06
-3.10156e-05
-2.35252e-05
1.44944e-05
-2.72773e-05
1.13669e-05
-3.03743e-05
1.92786e-05
-4.59945e-05
-5.3726e-05
1.21861e-05
2.122e-05
2.03249e-05
1.00436e-05
2.52528e-05
-5.55623e-05
2.02746e-05
8.161e-06
1.59016e-05
-3.77936e-05
1.37393e-05
3.06304e-05
4.35083e-06
2.9931e-05
-6.49052e-05
-2.62387e-05
-5.00767e-05
2.2595e-05
-3.52578e-05
1.90638e-05
-2.75698e-05
8.13057e-06
-5.46651e-05
-1.44119e-05
-2.93868e-06
1.26374e-05
4.71912e-06
2.01425e-05
2.57536e-06
-3.09517e-05
8.23964e-06
-1.06392e-05
1.08286e-05
-3.14151e-06
2.96071e-06
1.46837e-05
-2.07483e-05
-1.49923e-05
2.10632e-05
-1.61533e-05
2.35139e-07
1.51855e-06
9.18579e-07
3.07497e-06
2.01072e-05
-5.16671e-06
1.03952e-05
1.01156e-05
3.10122e-05
-2.51248e-05
-1.59953e-05
-1.66708e-05
4.45796e-05
-1.18804e-05
-1.60221e-05
-2.45717e-05
2.32116e-05
-3.79141e-05
3.92782e-05
2.34494e-05
-4.10492e-05
-3.32703e-05
5.0874e-05
3.83666e-05
-4.88847e-06
-2.33514e-05
1.22066e-06
2.04776e-05
8.06216e-05
-6.20563e-05
5.72714e-05
-3.73354e-05
-2.74708e-05
1.79603e-05
1.30256e-05
-3.2804e-05
-1.21649e-05
-1.08633e-05
-2.48952e-05
2.20053e-06
5.17012e-05
-1.59595e-05
-4.48446e-05
9.11095e-06
1.77161e-05
-2.52928e-05
-2.97537e-05
-1.52516e-05
8.36057e-06
1.80521e-05
-1.77531e-05
-2.83849e-05
1.31004e-05
2.53325e-05
-3.69396e-05
2.91745e-05
-2.02145e-05
6.94753e-06
-2.21112e-05
-1.55636e-05
4.87382e-06
-4.52626e-05
-1.2873e-05
-1.17987e-05
-4.0349e-05
5.36788e-06
-2.29727e-05
-1.34007e-05
-1.00472e-05
1.12851e-05
1.31198e-05
-6.99558e-06
9.47936e-07
-1.20235e-06
1.01748e-06
4.98848e-05
-2.7683e-05
-1.02283e-05
1.14552e-05
-1.46159e-05
-1.48564e-05
-6.56912e-06
1.90632e-05
-2.85476e-05
-1.07343e-05
3.98756e-05
4.76682e-06
-4.29046e-05
1.513e-05
-3.27635e-05
-9.66501e-06
-1.73607e-05
-1.32782e-06
-2.52015e-05
-2.17576e-05
2.36698e-05
-3.53572e-05
-3.85161e-05
5.02071e-05
-3.30294e-05
3.3943e-05
-4.17389e-05
4.08317e-05
4.42007e-05
4.90688e-05
-4.66338e-05
-4.66275e-05
-3.7097e-05
5.06006e-05
-3.73899e-05
2.38938e-05
-5.75e-06
-1.30283e-06
3.07302e-05
1.51386e-07
-3.89281e-05
3.06986e-06
-4.14643e-05
4.74251e-05
3.9348e-05
-3.79023e-05
-5.16005e-05
5.01554e-05
-5.99827e-05
5.34938e-05
-6.77127e-05
7.42197e-05
5.05008e-05
-8.24419e-05
8.72934e-05
-5.53431e-05
-2.79195e-05
-6.25042e-05
9.3767e-05
-3.33432e-06
-2.31343e-06
2.29494e-05
1.87143e-05
-1.10253e-05
-5.1268e-05
4.95913e-05
-5.45556e-05
8.90712e-05
7.53054e-05
5.22949e-05
-7.36037e-05
-5.39864e-05
-8.94296e-05
4.68346e-05
9.80189e-05
-5.54111e-05
5.23307e-05
-0.000107516
0.000113855
-5.86583e-05
-3.81877e-05
2.79543e-05
-7.54773e-05
8.57234e-05
3.54551e-05
8.17002e-07
3.90531e-05
-3.04818e-06
-5.09193e-05
5.76047e-05
-9.4967e-05
0.00010689
6.05897e-05
-2.99962e-05
-4.99189e-05
1.93354e-05
-7.53528e-05
-2.97361e-05
9.68189e-05
8.28313e-06
2.64287e-05
-3.22532e-05
-4.74058e-05
5.32455e-05
-1.84292e-05
-6.52414e-05
6.21206e-05
2.15552e-05
4.17802e-05
1.21791e-05
6.64425e-06
-3.36267e-07
-3.32319e-05
4.91331e-05
-5.53737e-05
7.52308e-05
1.32889e-05
-9.70417e-07
2.16286e-05
3.61709e-05
1.33445e-05
-4.36288e-07
2.33162e-05
9.63208e-06
1.76644e-05
-7.97824e-05
5.08427e-05
2.92887e-05
-3.39301e-07
-4.37692e-05
3.34556e-05
2.36085e-05
3.98277e-05
-5.31224e-05
6.79979e-06
1.00257e-05
4.14851e-06
-4.30197e-05
-3.57256e-05
2.40672e-05
-3.70721e-05
-8.86231e-07
-4.44743e-05
6.15501e-05
-1.04546e-06
-4.71547e-05
6.78456e-05
-4.00849e-05
-2.24324e-05
6.97758e-05
-4.83058e-05
1.02769e-05
3.8388e-05
2.42664e-05
-6.30817e-05
2.37006e-05
-4.40553e-05
-5.53696e-05
5.493e-05
-6.0855e-06
3.91606e-05
-6.53111e-05
2.76632e-05
6.61573e-05
-5.54185e-05
6.13954e-05
2.72061e-05
3.2875e-05
7.552e-05
-3.29908e-06
7.04244e-05
-8.2544e-06
8.72577e-05
-5.82582e-05
0.000104216
3.78959e-05
7.66847e-05
6.7476e-05
2.87053e-05
8.79317e-05
1.61406e-05
4.0397e-08
-4.06417e-05
3.0107e-07
1.64643e-05
-3.88598e-05
-3.72893e-05
2.13393e-05
-3.81805e-06
2.13363e-05
2.11632e-05
-6.54898e-07
-4.18448e-05
3.56915e-05
1.84082e-05
-3.79586e-05
1.67611e-05
3.95459e-05
1.98942e-07
1.90176e-05
1.63181e-05
-1.1082e-06
-3.38489e-05
-3.1989e-06
2.26951e-05
-3.58742e-05
-2.62588e-05
-5.01316e-06
1.69848e-05
1.4057e-05
-1.35313e-06
1.83331e-05
-3.10365e-05
3.20752e-05
1.41447e-05
-2.99016e-05
1.20996e-05
3.01795e-05
-1.97734e-06
1.60205e-05
1.93178e-05
-3.16984e-05
-2.39674e-06
-4.52548e-06
-2.72389e-05
1.82593e-05
-3.00175e-05
2.08918e-05
-5.06418e-06
1.56793e-05
-3.45008e-05
2.0237e-05
-1.41539e-06
3.51434e-05
1.65882e-05
-3.24127e-05
1.54032e-05
3.40199e-05
-1.75185e-06
1.94057e-05
2.29368e-05
1.7909e-05
6.63733e-06
-4.74842e-05
1.49749e-06
1.3381e-05
2.12139e-05
-3.60916e-05
-3.90163e-05
1.56488e-05
2.30416e-05
3.27214e-07
1.48897e-05
2.58435e-05
3.12888e-06
-4.38614e-05
3.87033e-05
2.5203e-05
-4.09696e-05
2.37468e-05
1.64546e-05
3.75401e-05
2.5534e-06
2.22707e-05
1.80569e-05
3.26656e-05
-3.42579e-05
-3.68094e-05
3.96229e-05
1.85264e-05
3.84396e-05
2.28699e-05
-4.01477e-05
-1.89253e-05
3.53555e-05
1.85362e-05
-3.49672e-05
-4.07872e-07
-1.67342e-05
3.51982e-05
-1.81999e-05
1.26632e-06
-3.69271e-05
2.15061e-05
1.4832e-05
1.58424e-05
1.81601e-05
-3.52809e-05
1.40049e-05
3.98853e-06
1.70295e-05
1.74535e-05
3.25769e-05
3.13188e-05
1.90956e-05
1.51335e-05
-1.55222e-05
3.36148e-05
4.34738e-07
3.67499e-05
4.02917e-06
1.451e-07
3.17721e-05
-2.03786e-05
3.59637e-05
6.41019e-08
-3.78622e-05
1.94534e-05
2.88738e-06
2.03939e-05
-3.69936e-05
3.60694e-05
1.89461e-05
-1.90256e-05
2.04884e-05
3.09609e-05
1.89716e-05
-3.13807e-05
1.81473e-05
-1.58848e-05
2.41836e-06
1.15949e-06
-1.38286e-05
1.82914e-05
-7.49541e-05
-3.31709e-05
2.53581e-05
8.27749e-05
9.31062e-05
-8.28305e-05
-3.81036e-05
2.78342e-05
-3.58114e-05
-5.94739e-05
1.96974e-05
7.55871e-05
1.76958e-05
-4.58843e-05
-2.98501e-05
5.80367e-05
-5.26029e-05
1.19017e-05
-3.42474e-05
1.58605e-05
2.46456e-05
-4.60806e-05
7.56768e-05
-6.60311e-05
-9.24491e-05
0.000109282
-4.59672e-05
2.91435e-05
0.000115065
-4.9347e-05
2.51787e-05
-9.08881e-05
-4.00329e-05
8.57958e-05
1.60028e-05
-6.17623e-05
1.71905e-05
2.99009e-05
-1.02975e-05
-3.67946e-05
-6.59174e-05
1.97139e-05
-4.62356e-05
2.5128e-05
2.4022e-05
-5.5965e-05
9.2871e-05
-7.08688e-05
-4.05309e-05
-3.49662e-05
1.42902e-05
6.12075e-05
5.95064e-05
-3.54348e-05
1.52295e-05
-3.93002e-05
-3.31598e-05
1.48144e-05
4.3213e-05
-2.48674e-05
1.63302e-05
-2.03581e-05
2.62687e-05
-2.22416e-05
-2.80075e-05
1.71426e-05
-2.9666e-05
1.82995e-05
1.31992e-05
-1.52229e-05
4.86948e-05
-3.00834e-05
-3.4655e-05
1.96222e-05
-1.75756e-05
3.26073e-05
3.61337e-05
2.02223e-05
-1.90146e-05
-3.73435e-05
-2.27677e-05
2.06028e-05
3.70997e-05
-3.49376e-05
2.20795e-05
-2.79186e-05
5.79473e-05
-5.211e-05
-1.53569e-05
1.01784e-06
-2.03173e-05
-7.82023e-07
2.15583e-05
-1.66806e-05
3.97754e-05
-4.02311e-05
1.76749e-05
-6.04683e-05
-4.00329e-05
-3.41745e-05
-4.33696e-05
1.80701e-05
-2.68311e-05
7.77104e-06
-2.68242e-05
3.9508e-05
-2.38335e-05
1.47508e-06
-1.71503e-05
8.64084e-05
-1.65715e-05
-5.21615e-05
-1.37968e-05
4.73375e-05
-2.43998e-05
6.70953e-06
2.08178e-05
2.79972e-05
1.11364e-05
-5.06856e-06
4.90228e-05
1.96513e-05
1.71227e-05
-8.35225e-05
2.14888e-05
1.86636e-05
-7.00337e-05
3.86904e-05
3.3974e-05
-6.48229e-05
1.99913e-05
1.81742e-05
-1.34516e-05
-3.39028e-05
6.5425e-05
-1.62764e-05
4.36678e-05
3.84056e-05
-1.67079e-05
-2.857e-06
-7.05951e-06
3.05182e-05
-2.69538e-05
-2.59953e-05
3.94974e-05
-3.65208e-05
-2.34431e-05
-5.40819e-06
-4.73798e-05
1.0064e-06
-2.84234e-05
1.00216e-05
-3.1797e-05
3.31893e-05
-4.89716e-05
-1.08257e-05
-6.6219e-05
-1.52267e-05
-1.48551e-05
-2.00595e-05
-2.99809e-05
-2.94449e-05
2.40697e-05
2.85962e-05
-3.79026e-05
-3.73237e-05
3.09296e-05
-2.58597e-05
-1.93683e-05
1.43002e-05
-2.92777e-05
-2.5112e-05
1.70027e-05
-6.74303e-05
-4.01322e-06
-5.24737e-06
-3.35864e-05
-5.12332e-05
1.79429e-05
-2.55498e-05
-5.7445e-05
3.40417e-05
-5.01937e-05
4.2148e-05
-8.07058e-05
-6.89517e-05
6.52357e-05
3.25154e-05
-4.62176e-05
-5.15234e-05
-5.41391e-05
2.60652e-05
-4.73981e-05
-0.00013018
-2.22247e-05
-1.90916e-05
-6.89377e-05
-0.000107149
3.07908e-05
-6.10026e-05
-2.16847e-05
2.95386e-05
-2.22396e-05
1.43883e-05
2.03383e-05
4.06307e-05
-2.13681e-05
-3.95894e-05
2.01659e-05
-9.50446e-06
-1.39233e-05
3.26475e-06
-1.85182e-05
3.1952e-05
-1.63923e-05
2.95857e-06
-5.29676e-05
-4.05453e-06
3.53457e-05
-3.59204e-06
-2.90357e-05
-2.48033e-05
2.23542e-06
-8.22472e-06
-3.01072e-05
-3.21013e-05
1.22949e-05
1.4557e-05
-3.35518e-05
-2.84037e-05
4.63109e-05
-2.75563e-05
-2.7124e-05
8.37436e-06
-3.03149e-05
-4.27966e-05
7.87387e-06
-6.88444e-05
-1.66269e-05
-1.67834e-05
-3.75016e-05
-5.95189e-05
1.25826e-05
-2.99891e-05
-8.32303e-06
-9.26547e-05
3.71385e-05
-5.74091e-05
-5.5853e-06
-6.26916e-05
-6.46891e-06
3.6655e-05
-8.78024e-05
-1.41481e-05
2.3033e-05
3.90584e-05
-7.04062e-05
3.46229e-05
2.02954e-05
-7.77243e-06
-1.11009e-05
-4.75104e-05
-4.71806e-05
-1.45542e-05
8.02564e-05
-4.46103e-06
-4.32674e-05
-2.53428e-05
-2.22982e-06
-2.98351e-05
-3.79008e-05
-4.35975e-05
-5.42855e-05
-3.27126e-05
-3.62215e-05
-6.74069e-06
2.67075e-05
-4.94445e-05
1.7155e-05
-5.04979e-05
1.19357e-05
1.68703e-05
-6.45631e-05
8.22153e-06
-4.17652e-05
5.98921e-06
3.37932e-05
-2.23535e-05
1.52767e-05
-2.4473e-05
4.51043e-05
-5.92214e-05
-2.21339e-05
7.64247e-06
-1.74518e-05
-4.61646e-05
-3.29463e-05
6.44735e-05
-2.82907e-05
3.3417e-05
-2.02029e-05
-1.81612e-05
3.75314e-05
-2.67903e-05
8.47232e-06
7.20897e-06
3.57368e-05
-5.14184e-05
2.35829e-05
8.45795e-06
8.34757e-06
-4.03895e-05
-3.39448e-05
1.52263e-05
5.85789e-07
1.81342e-05
-6.41478e-07
1.62009e-05
4.02466e-05
-5.58071e-05
1.34683e-05
3.80386e-05
-4.30346e-05
3.30625e-05
3.98844e-06
1.47018e-05
2.26953e-05
1.38199e-05
1.76298e-05
4.33109e-05
-1.70797e-05
-4.3857e-05
7.46315e-05
-5.38888e-05
-7.00832e-05
-7.88499e-05
7.33413e-05
-4.04517e-05
-3.5156e-06
2.37331e-05
-3.05166e-05
8.3059e-06
4.8836e-05
-3.95085e-05
0.000116751
-3.38057e-05
8.33436e-06
3.69885e-05
2.82818e-05
-6.39873e-05
-2.21391e-05
5.78413e-05
7.03969e-05
-8.0799e-05
-2.76935e-05
-7.25162e-05
-2.04033e-05
5.97537e-05
-2.44504e-05
-4.62754e-05
4.08747e-05
6.09995e-06
7.94244e-05
-5.72424e-05
0.000101557
-2.50562e-05
5.20692e-06
4.97685e-05
2.35742e-05
-9.13489e-06
3.77948e-05
-5.22366e-05
2.57223e-05
-6.46134e-06
-3.82761e-05
-3.12289e-05
-4.05499e-06
1.77068e-05
-1.62079e-05
3.33256e-05
-4.50379e-05
9.52924e-06
5.80965e-05
-4.40513e-05
4.00585e-05
-4.8076e-06
1.14877e-05
3.04007e-05
2.73329e-05
1.02234e-05
-2.90975e-05
-2.58368e-05
8.34698e-06
3.27158e-05
1.09944e-05
5.3353e-05
-4.81474e-05
-1.64631e-05
1.15355e-05
3.60289e-05
-3.11028e-05
1.13687e-05
3.8784e-06
1.20854e-05
-6.48872e-07
2.51525e-05
-3.77381e-05
3.54976e-05
6.91605e-05
-1.56268e-05
-8.31808e-06
4.35874e-05
-6.32489e-06
0.000115293
-3.56235e-05
-5.5241e-05
8.38155e-05
-2.02262e-05
2.40276e-05
5.72208e-05
5.26987e-05
2.72821e-05
-2.53023e-05
7.36567e-05
-4.63163e-07
7.51646e-06
2.56592e-05
1.34141e-05
3.08033e-05
1.81695e-05
1.13974e-05
-3.43786e-05
9.8671e-06
2.04546e-05
-3.29445e-05
1.66268e-05
1.58501e-05
1.59666e-05
-2.93285e-05
1.1576e-05
2.73436e-05
-6.32324e-05
3.78352e-05
-5.53858e-06
1.99976e-05
-4.98958e-05
-3.16582e-05
1.82228e-05
-6.9507e-05
-5.7324e-05
-0.000335393
0.000462227
4.13436e-05
-6.81862e-05
7.14338e-05
-4.45861e-05
8.27472e-06
-0.00011365
2.76382e-05
7.77396e-05
3.26667e-05
-9.97994e-05
-0.000205989
0.000273125
-4.54823e-05
9.93053e-05
-0.000123319
-7.27354e-05
6.85955e-05
-7.10423e-05
0.000203012
-0.000135503
-0.000106535
3.35638e-05
8.24422e-05
-9.46035e-06
6.14013e-05
5.51259e-05
-2.66407e-06
1.27669e-06
3.91713e-05
5.75851e-05
5.15543e-05
4.51651e-05
-1.09826e-05
-4.43762e-05
-4.08206e-05
-2.13209e-05
-7.68283e-05
9.38588e-05
-3.13383e-05
4.20765e-05
-9.05399e-05
3.9571e-05
6.04619e-05
-9.47851e-06
3.19216e-05
3.68238e-06
5.17032e-05
1.33094e-05
2.40635e-05
1.61773e-05
5.02485e-05
2.38328e-05
1.96942e-05
-3.68302e-05
-8.57836e-05
3.20852e-05
-7.06875e-05
6.57911e-05
-3.16931e-05
-3.83306e-06
-0.000134276
8.25603e-05
-6.3722e-05
0.000115435
4.84959e-05
2.67279e-05
-2.19631e-05
5.39392e-06
6.24842e-05
2.8956e-05
6.75562e-05
-2.73906e-05
2.19637e-05
-4.03842e-05
-7.54814e-05
-1.84026e-05
-4.33813e-05
5.1509e-05
-3.72434e-05
2.93243e-05
-4.23403e-05
-3.06837e-05
4.84967e-06
2.88333e-05
-5.7953e-05
-8.45289e-05
-3.08443e-05
-4.19694e-05
-2.69892e-05
5.66741e-05
-3.24565e-05
-1.74286e-05
-6.7618e-06
3.45339e-05
-4.89486e-05
-2.79237e-05
-7.21326e-05
5.23411e-05
-4.46082e-05
-5.0628e-05
-7.8373e-05
8.126e-05
5.53261e-05
-4.2602e-05
3.30447e-05
-8.2423e-05
8.85623e-05
-1.15934e-05
-9.25669e-05
4.62123e-05
-8.98594e-05
-1.64323e-05
7.54624e-06
-0.000112591
8.45715e-05
-7.19908e-05
-4.8656e-05
-5.06653e-05
1.47924e-05
-5.70502e-05
9.76414e-05
4.23934e-05
-3.30892e-05
6.99306e-05
-3.43001e-05
2.6864e-05
2.15538e-06
-9.9711e-05
4.89067e-05
-0.000105519
1.1617e-05
-4.13941e-05
-0.000103658
7.67972e-05
-5.26249e-06
2.5477e-05
-5.98429e-05
-1.17233e-05
-2.44362e-05
-5.8233e-05
-2.76155e-05
2.072e-05
2.00848e-05
-1.3193e-05
2.37304e-05
-3.43302e-05
2.45678e-05
-1.39716e-05
1.76409e-05
-2.91349e-05
2.34438e-05
-1.19525e-05
-1.27062e-05
-2.70168e-05
2.11519e-05
1.85681e-05
-4.3278e-05
-6.52031e-06
2.21793e-05
-6.9134e-06
-1.26354e-05
-3.9028e-05
1.97982e-05
-2.83009e-05
-4.49184e-05
2.75722e-05
3.06688e-05
-1.33269e-05
3.11998e-05
3.8959e-05
-1.08849e-05
-5.92754e-05
2.54841e-05
2.93095e-05
-9.47568e-06
-4.53238e-05
-1.45119e-05
3.00989e-05
3.89176e-05
-5.45087e-05
-6.12712e-05
-1.57599e-05
3.21099e-05
-1.86567e-05
-1.1416e-05
-5.9163e-05
2.8887e-05
-5.23363e-05
-2.97542e-05
1.42541e-05
2.47181e-05
-9.22222e-06
2.70275e-05
1.79723e-05
-6.81011e-06
-3.81903e-05
1.17648e-05
3.1544e-05
-4.91983e-06
-3.83937e-05
-1.14429e-05
2.04981e-05
3.73601e-05
-4.64168e-05
-4.01836e-05
-4.50237e-06
1.49292e-05
-6.2688e-06
-6.88901e-06
-4.32333e-05
2.72844e-05
-3.77381e-05
-3.1497e-05
-1.57137e-05
2.59004e-05
2.13097e-05
2.57887e-05
-1.84006e-05
3.57983e-05
-4.31871e-05
2.82434e-05
-1.74454e-05
3.76904e-05
-4.84906e-05
-2.6668e-05
4.50407e-05
4.05356e-05
-5.89102e-05
-5.33249e-05
-8.70235e-06
3.05292e-05
-9.52583e-06
-1.80104e-05
-6.12746e-05
2.59033e-05
-4.25573e-05
-9.2441e-06
-5.01256e-05
2.50374e-05
1.84146e-05
-4.32271e-05
-4.32463e-06
-4.47771e-05
-7.04612e-06
2.48068e-05
3.8352e-05
-5.74825e-05
-1.26402e-05
3.17701e-05
2.3376e-05
1.345e-05
-4.60724e-05
1.34896e-05
2.36587e-05
2.81427e-05
-7.62891e-06
-1.03632e-05
-1.21924e-05
-1.39046e-05
-1.34801e-05
4.96336e-05
-1.05986e-05
-9.728e-06
-2.64934e-05
-5.4128e-06
-1.13229e-05
-3.63083e-05
-2.01279e-05
-2.13269e-05
-3.59919e-05
-1.06314e-05
-7.68549e-06
1.14585e-05
-3.7702e-05
2.1916e-05
-4.3989e-05
2.12301e-05
2.62894e-05
-5.73323e-05
5.8394e-06
-5.24088e-05
2.91236e-05
1.87877e-05
-2.84992e-05
2.11708e-05
-3.28302e-05
2.45513e-05
-4.72123e-05
-2.88607e-05
8.52311e-06
-4.04346e-05
-2.85503e-05
-4.22631e-05
4.66858e-05
-3.93147e-05
1.16514e-05
-2.55843e-05
-2.70381e-05
1.34154e-05
-4.21742e-05
-3.56802e-05
5.7454e-06
2.45045e-05
5.4319e-06
1.24239e-05
-3.6076e-05
2.95888e-05
-5.93501e-06
-2.87842e-07
-3.36441e-05
8.18077e-06
2.57511e-05
2.4277e-05
-3.44613e-05
1.09977e-05
-8.13182e-07
-1.08673e-05
-2.75787e-05
2.7655e-06
-2.3425e-05
2.49838e-05
-1.1754e-05
8.45275e-06
-3.54666e-05
-3.71442e-05
2.18826e-05
3.35802e-05
-1.832e-05
2.54502e-05
4.10402e-05
-2.75312e-05
-2.11258e-05
2.46694e-05
2.71243e-05
3.81065e-05
2.59082e-05
-2.50974e-05
1.47877e-07
-1.63358e-05
-2.09597e-05
-8.30813e-06
3.39074e-05
-2.67603e-06
2.44467e-05
-2.53428e-05
-6.69184e-06
1.22192e-05
1.98144e-05
1.92326e-05
-1.53912e-05
2.07241e-05
-1.13296e-05
1.47694e-05
1.72784e-05
1.62264e-05
-9.52145e-06
1.44449e-05
-5.17244e-06
-9.35729e-06
-1.08176e-05
-5.56055e-06
1.96193e-05
-5.28914e-06
1.21573e-05
-3.55784e-05
2.46371e-05
1.76255e-05
-6.68585e-06
2.25329e-05
3.08383e-05
-1.75731e-05
-7.8124e-06
1.68672e-05
1.68446e-05
2.97875e-05
3.07003e-05
-1.54482e-05
-9.14168e-06
-1.84805e-05
-7.95851e-06
-1.20995e-05
2.54894e-05
-1.06173e-05
2.19242e-05
-2.18353e-05
-5.68752e-06
-8.55409e-06
-4.96518e-06
-8.1754e-06
-2.05034e-05
-1.05436e-05
-2.18337e-05
-2.08533e-06
3.59002e-05
-4.72071e-06
-1.79868e-05
-1.31939e-05
1.52824e-05
-2.99408e-05
-7.17702e-06
-2.51507e-05
1.68815e-05
-1.09241e-05
-1.88155e-05
-1.53902e-05
3.15855e-05
3.20718e-05
-1.08848e-05
3.92417e-06
-4.23762e-06
2.49812e-05
-2.07263e-05
-1.13352e-05
2.38891e-05
-3.77724e-05
1.52049e-05
1.87452e-05
-3.20381e-05
2.65153e-05
-9.37303e-06
-2.11317e-05
-9.69041e-06
1.03181e-05
-1.13103e-05
1.41139e-05
1.96213e-05
-6.77009e-06
1.12586e-05
-7.47154e-06
1.30779e-05
-4.80266e-06
-2.9005e-05
1.26735e-05
-3.49291e-05
-1.01816e-05
-7.56539e-06
-2.77179e-05
7.81238e-06
1.41146e-05
5.40763e-06
-2.03216e-05
-1.82157e-05
-2.00754e-05
-2.21819e-05
-2.29013e-05
1.1591e-05
5.79419e-06
-5.65213e-06
-8.51161e-06
-3.42059e-07
-4.75224e-06
3.19791e-05
-2.18614e-05
3.74218e-06
1.02174e-05
-1.38403e-05
-1.1566e-05
1.12886e-05
6.84997e-06
-8.789e-06
1.14715e-06
-4.04543e-06
6.83649e-06
-1.12465e-05
-1.11688e-06
1.50741e-05
-1.88556e-05
-1.04054e-05
1.4875e-05
-1.94606e-05
2.43826e-06
-6.45588e-06
-2.07288e-06
-1.22796e-05
-4.57982e-06
-1.54686e-05
-6.89625e-07
1.94445e-05
-7.0673e-06
-7.82588e-07
1.02254e-05
-4.37443e-06
2.11122e-05
-8.56337e-06
2.91122e-06
-1.94581e-05
2.62433e-05
-9.00574e-06
2.22026e-06
-1.16911e-05
-3.84598e-06
1.48475e-05
-3.9064e-06
-1.51426e-05
-8.16165e-06
2.06271e-06
7.25735e-06
-8.2326e-06
-2.41474e-05
-8.39156e-06
-2.65706e-05
-2.94951e-06
3.74823e-05
-2.37797e-05
-1.38508e-05
1.50149e-07
-2.72246e-05
-3.30987e-05
1.92761e-05
-3.17341e-05
-2.30635e-05
-1.47387e-05
-2.53862e-05
-2.41335e-05
-2.61533e-05
-1.38883e-06
-7.71971e-06
1.33523e-05
1.81806e-05
-1.16131e-05
-6.90989e-06
-6.81769e-06
-2.20378e-05
8.1208e-06
-2.32219e-05
-1.25799e-05
-7.727e-06
-4.72886e-07
4.81109e-07
1.66522e-06
-6.96712e-06
-1.2119e-05
-7.95868e-06
-2.38466e-06
-5.96177e-06
9.91973e-06
-1.87813e-06
3.09944e-06
-3.49691e-06
-2.44922e-06
-5.02802e-06
-9.41343e-06
-3.75865e-06
-3.25237e-06
2.04726e-05
-1.47292e-05
-1.26532e-05
-1.75577e-05
-1.27112e-05
-6.81431e-06
-3.23352e-05
7.88416e-06
-2.30672e-05
-8.59599e-06
3.17055e-05
9.0264e-07
-1.2134e-05
2.02957e-06
3.01709e-05
-2.13829e-05
1.21846e-06
5.12322e-06
-1.94726e-06
-2.78154e-05
-1.0481e-05
1.99747e-05
-1.16274e-05
1.74074e-05
-1.34143e-06
1.14784e-06
1.53811e-05
-1.1286e-05
9.93334e-07
2.78058e-06
-3.77656e-06
2.51755e-06
1.24696e-06
-3.76833e-06
-3.76321e-06
1.49999e-06
2.26099e-06
3.69158e-07
1.06532e-06
1.92059e-06
-3.35963e-06
1.24319e-06
3.57036e-06
-3.82328e-06
3.75952e-06
1.35486e-06
2.58301e-06
1.35037e-06
1.45651e-06
2.40183e-06
-3.86158e-06
1.92907e-06
-4.29075e-06
2.35737e-06
-4.54067e-06
1.9469e-06
2.59299e-06
9.18671e-07
1.10066e-06
-4.32202e-06
2.29941e-06
2.2335e-06
3.46819e-06
-4.24817e-06
4.16142e-06
2.55801e-06
1.8275e-06
2.17872e-06
2.23848e-06
-4.50806e-06
2.26656e-06
2.16873e-06
-4.96668e-06
2.79531e-06
-5.52941e-06
1.98643e-06
3.54176e-06
8.04414e-07
-4.59183e-06
1.13935e-06
2.64753e-06
2.76146e-06
3.87051e-06
-4.39496e-06
4.92963e-06
3.68465e-06
9.89231e-07
3.0846e-06
1.89446e-06
1.4034e-06
8.12841e-07
-4.11439e-06
1.04986e-07
1.66984e-06
-4.66404e-06
2.88632e-06
-4.63889e-06
1.70733e-06
2.72869e-07
2.65644e-06
2.46161e-06
-5.74459e-07
-4.46751e-06
2.57972e-06
3.96858e-06
2.16264e-06
-4.239e-06
2.58674e-06
1.48586e-06
4.54443e-06
7.89e-08
2.49207e-06
3.67902e-06
1.65904e-06
-4.0929e-06
-4.15953e-06
1.98421e-06
3.67142e-06
2.12522e-06
2.88385e-06
-3.94687e-06
-1.60937e-06
2.82858e-06
2.89478e-06
-4.1179e-06
2.40125e-06
-4.97869e-07
1.7732e-06
-4.08361e-07
1.50603e-06
-3.61655e-06
3.22171e-06
4.06029e-06
7.9556e-07
3.13244e-06
-2.51564e-06
4.46179e-06
-2.3669e-06
4.34724e-06
1.68869e-06
4.1439e-06
4.31156e-06
1.77675e-06
3.57216e-06
-5.44143e-07
2.11308e-06
2.10078e-06
2.61132e-06
1.67432e-06
9.82442e-07
3.57966e-06
-3.08493e-06
3.8902e-06
8.98384e-07
-4.03946e-06
1.91592e-06
1.57696e-06
1.79282e-06
-4.26113e-06
3.08983e-06
1.9517e-06
-3.30328e-06
2.60023e-06
4.29423e-06
2.41666e-06
-2.81422e-06
2.30878e-06
-6.54837e-07
-1.78962e-06
-8.70743e-07
-1.03197e-06
2.39149e-06
1.16965e-05
1.12149e-05
8.6324e-06
-2.11531e-05
8.84175e-06
3.02837e-06
9.28044e-06
4.66312e-06
1.45009e-05
5.55182e-06
8.31016e-06
1.93619e-05
9.68728e-06
1.41462e-05
-1.55672e-05
1.31156e-05
-9.73432e-06
2.72394e-06
2.00269e-05
1.4954e-05
2.09546e-05
-3.98351e-06
1.41539e-06
-1.83882e-05
-1.21743e-06
2.55517e-05
1.42535e-06
-2.57598e-05
-1.75004e-05
-5.51891e-06
2.47309e-05
-1.71105e-06
-3.92433e-06
2.80265e-07
2.71001e-05
-2.34555e-05
2.04081e-05
2.20466e-05
-2.15005e-05
2.27147e-05
-3.52553e-06
1.96438e-05
-1.52149e-06
2.48579e-05
1.78531e-05
2.63008e-06
2.95909e-06
-1.56925e-05
-5.47976e-06
2.10421e-05
1.29797e-07
-1.36675e-06
1.99755e-05
1.47366e-06
-3.97428e-07
-5.33866e-07
1.94971e-05
1.88959e-05
-4.54642e-07
-5.92586e-07
2.25271e-06
9.47991e-07
1.89457e-05
1.9831e-05
2.52783e-05
3.6576e-06
8.75547e-06
-2.14547e-05
-8.59773e-06
2.27274e-05
7.32814e-06
2.23116e-06
-2.19669e-06
2.12766e-05
-5.79613e-07
3.01076e-05
1.10078e-05
1.8026e-05
-6.41626e-06
1.36688e-05
1.23795e-06
-4.66642e-06
1.89075e-05
2.23752e-05
-4.27694e-06
5.02518e-06
8.08695e-06
2.97048e-06
1.69409e-05
-5.4161e-06
1.89624e-05
-1.22337e-05
1.26334e-05
-1.82771e-05
8.05745e-06
1.38569e-06
8.83668e-06
-1.71162e-05
2.29718e-06
1.05405e-05
8.09269e-07
-2.49148e-05
8.93535e-06
-5.14255e-06
6.81785e-06
-5.77908e-06
-8.70339e-06
1.70424e-05
-1.36314e-05
1.01259e-05
-2.01519e-06
1.60306e-05
-1.53075e-06
2.4373e-06
1.62177e-05
1.14051e-06
5.99272e-06
1.48401e-05
2.32986e-06
7.20254e-06
-8.28198e-07
1.73288e-05
2.05476e-05
-1.7898e-05
1.06863e-05
1.32943e-06
1.77043e-05
3.65865e-06
1.66846e-05
1.90637e-05
3.50073e-06
1.45134e-05
1.84271e-05
-5.10284e-06
2.22729e-05
3.80608e-06
2.39227e-05
-1.65045e-05
2.11514e-05
3.30964e-06
1.45256e-05
1.27201e-05
5.2234e-06
2.17488e-05
8.21593e-06
2.65284e-05
-1.05861e-05
5.19727e-06
2.6431e-05
-2.29883e-05
8.71748e-06
2.64899e-05
2.49512e-05
8.98953e-06
3.16393e-05
-3.59168e-06
-3.00856e-06
2.40613e-05
3.35169e-05
7.51959e-06
-3.86428e-06
-1.92323e-06
3.05185e-05
2.51463e-06
3.42141e-05
-1.11761e-05
-2.87387e-05
5.20646e-06
2.76772e-05
-4.14103e-06
3.00345e-05
3.63096e-06
-6.56516e-06
2.29038e-05
-1.90864e-06
-2.52126e-06
2.79393e-05
2.44242e-05
3.70319e-06
-6.83584e-06
1.03765e-05
-2.94003e-05
2.72051e-05
1.57191e-06
-3.24743e-05
2.55297e-05
5.37309e-06
-3.37952e-05
2.63105e-05
1.32316e-05
2.382e-05
-3.168e-05
1.88582e-05
3.29975e-05
7.78021e-06
-3.0401e-05
9.0158e-06
2.55541e-05
4.00537e-05
1.52743e-05
1.32641e-05
2.48549e-05
-1.41073e-05
1.77026e-05
1.91307e-05
-3.26396e-05
2.70523e-05
2.32135e-05
3.68301e-05
2.39774e-05
3.64575e-05
-8.18346e-07
1.3017e-06
2.10482e-05
5.79365e-05
2.65975e-05
1.9495e-07
2.61551e-05
-2.51645e-05
3.1755e-05
2.12774e-06
3.20161e-05
-7.55848e-07
-6.75349e-06
2.39892e-05
6.68579e-06
-5.98201e-06
-2.25199e-05
2.8697e-05
-2.36278e-05
-7.52564e-06
8.62027e-07
-5.67757e-07
2.47988e-05
2.30573e-05
4.56422e-06
-2.57355e-05
5.59022e-06
2.5354e-05
3.63434e-06
3.0279e-06
2.50943e-05
1.53898e-06
2.65919e-05
2.83001e-05
4.93262e-06
2.52946e-05
7.4973e-06
-2.4723e-05
3.71697e-05
3.7175e-05
-8.10474e-06
3.24948e-05
-4.38456e-06
4.5551e-05
-2.50144e-05
1.29631e-05
1.30221e-05
-2.59656e-05
3.45439e-05
1.07968e-05
-7.42483e-06
2.12957e-05
2.89446e-05
8.11517e-06
-3.07826e-05
3.89959e-06
-2.21686e-05
2.56484e-06
4.95127e-06
-2.07196e-05
1.31767e-05
-6.8898e-05
-5.11232e-05
3.70018e-05
8.30146e-05
1.19535e-05
-9.08201e-05
1.60087e-05
6.28545e-05
2.18885e-05
-2.68819e-05
-8.83072e-05
9.32986e-05
2.17694e-05
-0.000120988
2.04058e-05
7.88191e-05