/*--------------------------------*- C++ -*----------------------------------*\
| =========                 |                                                 |
| \\      /  F ield         | OpenFOAM: The Open Source CFD Toolbox           |
|  \\    /   O peration     | Version:  2412                                  |
|   \\  /    A nd           | Website:  www.openfoam.com                      |
|    \\/     M anipulation  |                                                 |
\*---------------------------------------------------------------------------*/
FoamFile
{
    version     2.0;
    format      ascii;
    arch        "LSB;label=32;scalar=64";
    class       volVectorField;
    location    "0";
    object      U;
}
// * * * * * * * * * * * * * * * * * * * * * * * * * * * * * * * * * * * * * //

dimensions      [0 1 -1 0 0 0 0];

internalField   nonuniform List<vector> 
43136
(
(-0.725103 0.276762 1.19986)
(-0.539873 0.402175 1.24487)
(-0.248118 0.316358 0.981897)
(-0.713719 0.315561 1.2445)
(-0.764985 0.387775 1.33118)
(-0.555501 0.35349 1.1509)
(-0.874706 0.336744 1.27286)
(-0.507111 0.15587 0.986104)
(-0.480609 0.366322 1.36801)
(-0.243334 0.013152 1.80327)
(-0.277621 -0.0282702 0.946033)
(-0.0989727 -0.0632341 1.63353)
(-0.659206 0.383623 1.54104)
(-0.408607 0.14804 1.37306)
(-0.265054 0.0212959 1.27827)
(0.231078 -0.441927 0.944939)
(-0.124227 0.286453 0.873455)
(-0.285801 -0.00440149 0.792039)
(-0.0488964 0.229228 0.696135)
(-0.0261234 0.283362 0.724484)
(-0.290764 0.135856 0.890605)
(-0.292989 0.138292 0.892012)
(-0.477003 0.308167 1.01572)
(-0.00717357 -0.127051 0.699216)
(-0.638505 0.376641 1.31733)
(-0.08909 0.0791485 1.54001)
(-0.0747589 0.308473 0.817943)
(-0.280264 0.29041 1.60321)
(-0.684366 0.479683 1.44704)
(-0.24777 0.202594 1.12171)
(-0.730144 0.400163 1.37231)
(0.0410528 -0.187142 0.821643)
(-0.625066 0.415717 1.33199)
(-0.430693 0.192436 1.03631)
(-0.740384 0.382625 1.3261)
(-0.520176 0.365096 1.37177)
(-0.429683 0.181723 1.15466)
(-0.480893 0.24079 1.03635)
(-0.409768 0.184527 1.11788)
(-0.430106 0.224661 1.08535)
(-0.518824 0.37255 1.24688)
(-0.260947 0.0680102 1.21109)
(-0.280603 0.0411924 0.996414)
(-0.391455 0.242574 0.988684)
(-0.346665 0.160087 1.08519)
(-0.356945 0.10956 1.05059)
(-0.356079 0.218253 1.08472)
(-0.372994 0.161089 1.05025)
(-0.624087 0.289103 1.09504)
(-0.911815 0.417681 1.33434)
(-0.233536 0.153547 1.22563)
(-0.534058 0.337608 1.09091)
(-0.251591 0.248628 0.977021)
(-0.433308 0.103748 0.98029)
(-0.323846 0.198318 0.997459)
(-0.32393 0.235115 0.997098)
(-0.332336 0.105129 0.877351)
(-0.016379 -0.0841308 0.728)
(0.203804 -0.30867 0.945003)
(0.066641 -0.248044 0.790858)
(-0.289584 0.163872 0.890317)
(-0.207137 0.148329 0.904593)
(-0.235127 0.0659698 0.9857)
(-0.172402 0.0625211 0.945171)
(0.171614 -0.195067 0.499673)
(0.0513694 -0.0862849 0.675999)
(0.0932022 -0.0912268 0.497773)
(0.147876 -0.0927995 0.742105)
(-0.056723 0.0382362 0.505637)
(-0.0334049 0.0896387 0.693642)
(-0.312804 -0.0482346 0.715817)
(0.0813986 -0.0797516 0.668223)
(0.089944 -0.0222672 0.796092)
(0.160637 0.0298342 1.10678)
(0.0195251 0.0589485 1.09807)
(0.0730375 0.093571 0.761478)
(-0.0922394 0.307894 0.804708)
(-0.0330851 0.369663 1.03578)
(0.0568495 0.0841853 0.772932)
(0.123042 0.14438 0.999536)
(0.00661374 -0.0924689 0.627209)
(-0.0453746 0.0349477 1.10247)
(-0.197222 -0.0893712 1.20019)
(-0.299279 -0.1124 1.17339)
(-0.00104444 0.0664504 0.631455)
(-0.137379 0.193311 1.06333)
(-0.623151 -0.0391329 1.10752)
(-0.147923 -0.0490002 1.1509)
(0.0947189 -0.0642329 0.888718)
(-0.0819359 0.017984 0.778257)
(-0.308408 -0.106231 1.16048)
(-0.156493 -0.129032 1.09273)
(-0.451172 0.0270588 0.890486)
(-0.0514741 -0.00384468 0.846)
(-0.64252 -0.0785612 1.06109)
(-0.285447 -0.0999346 1.04368)
(-0.0715669 0.233076 0.684399)
(0.0385384 0.0462867 0.501388)
(-0.285958 0.00439655 0.744171)
(-0.294894 0.166934 0.859077)
(-0.0479964 0.102553 0.710829)
(-0.0158169 0.0170952 0.670696)
(-0.00349832 -0.0264129 0.854261)
(-0.0499297 -0.0160688 0.709961)
(-0.0485781 0.277276 0.846547)
(0.0600116 0.127459 0.776462)
(-0.0996544 0.283019 1.08125)
(-0.0697604 0.132154 0.791049)
(0.10845 0.116916 0.788201)
(0.043998 0.117861 0.788146)
(-0.0154955 -0.00903891 0.728593)
(0.112864 0.176176 0.733711)
(-0.398881 -0.0124324 0.830988)
(-0.468398 -0.0368211 0.887171)
(-0.106901 0.0236881 0.773115)
(-0.680862 -0.0761223 1.14592)
(-0.0701362 0.0150848 0.782705)
(-0.165706 -0.0721906 0.810614)
(-0.176727 -0.0529221 0.780752)
(-0.0971916 0.0271506 0.813359)
(0.0329841 -0.0473311 0.777519)
(-0.285614 -0.11095 1.08664)
(-0.0288337 0.0461058 0.866357)
(0.0335512 0.102626 1.04642)
(-0.0415569 0.0476681 0.77997)
(-0.0183707 -0.0347878 0.87195)
(-0.0203396 0.055345 0.868113)
(-0.0465152 0.0330456 0.894684)
(0.176264 0.504059 1.12868)
(0.44453 0.349043 1.13027)
(0.672683 1.04443 1.66273)
(0.111641 0.279836 1.13062)
(0.563389 0.613742 1.22345)
(0.665348 0.638147 1.30762)
(0.430153 0.579997 1.13062)
(0.677167 0.632879 1.31297)
(0.608448 0.383855 1.34792)
(0.807975 0.557929 1.72359)
(1.32712 0.85193 2.27557)
(0.562529 0.510055 1.31212)
(1.11436 0.71342 1.63292)
(0.964509 0.771705 1.83457)
(0.718664 0.484027 1.31212)
(1.21804 0.669773 1.95319)
(0.906576 1.28116 2.03276)
(1.53151 1.04369 2.43456)
(1.27483 1.59675 2.38092)
(0.79105 0.976295 1.46826)
(0.907533 0.837004 1.64838)
(1.45186 1.01146 2.25038)
(0.701741 0.67968 1.46826)
(1.62135 0.927818 2.32426)
(0.118632 0.176051 1.18164)
(0.471401 0.381921 1.22154)
(0.584512 0.700565 1.26671)
(0.142625 0.257952 1.21778)
(0.764768 0.456881 1.42442)
(0.51244 0.416728 1.28607)
(0.467847 0.382353 1.21778)
(0.894031 0.475409 1.53867)
(0.834708 0.665512 1.40399)
(0.677777 0.786801 1.43978)
(0.614084 0.483951 1.30706)
(1.01136 0.573893 1.53944)
(0.670964 0.608836 1.28459)
(0.682115 0.618999 1.30095)
(0.4631 0.279158 1.28459)
(0.581949 0.482168 1.30095)
(0.795727 0.672039 1.4266)
(0.619688 0.541946 1.42967)
(1.28765 0.855262 2.15211)
(1.02244 0.868714 1.72229)
(0.893643 0.666734 1.48431)
(0.824769 0.603564 1.42967)
(0.952692 0.776218 1.66825)
(0.883829 0.694629 1.59767)
(0.650917 0.756882 1.41299)
(0.432815 0.440535 1.18164)
(0.581781 0.411806 1.22154)
(0.590179 0.495912 1.26671)
(0.534044 0.686926 1.41299)
(0.57907 0.473774 1.29627)
(0.586479 0.528456 1.27583)
(0.631417 0.462007 1.28607)
(0.907444 0.821493 1.63585)
(1.1565 0.626329 1.71648)
(0.856877 0.510763 1.56305)
(1.60848 0.777529 2.32011)
(0.908217 0.685469 1.51814)
(0.846282 0.598696 1.51814)
(0.825213 0.542402 1.50885)
(0.807325 0.534502 1.50885)
(0.180065 -8.11048e-10 1.48412)
(-0.218126 -1.1232e-09 1.35737)
(0.110896 -1.49792e-09 1.39648)
(0.208249 -0.0456698 1.3927)
(0.359985 -0.44458 1.48278)
(-0.218126 -1.08845e-10 1.48045)
(-0.152316 -0.0456698 1.48045)
(0.0880651 -0.234236 1.47812)
(-0.308901 -1.28385e-09 1.34077)
(-0.369254 -8.99632e-10 1.7254)
(-0.43282 -1.564e-10 1.56844)
(-0.342224 -0.0552852 1.95759)
(0.0310544 -0.291352 1.49267)
(-0.369254 -1.58658e-10 1.47639)
(-0.250452 -0.0552852 1.47639)
(-0.242863 -0.0794628 1.4601)
(0.00808555 -2.43385e-09 1.28531)
(-0.401105 -1.90591e-09 1.39848)
(-0.152069 -7.72578e-10 1.29047)
(-0.133052 -0.129364 1.18184)
(0.00674432 -0.310983 1.19686)
(-0.401105 -5.89981e-10 1.19285)
(-0.222211 -0.129364 1.19285)
(0.176601 -0.442375 1.18884)
(0.128704 -0.0803944 1.46856)
(-0.449921 -0.0263936 2.02479)
(-0.26512 -0.0498293 1.29409)
(-0.318769 -0.0506176 2.09403)
(0.489228 -0.748783 1.52849)
(-0.410265 -0.0729974 1.51068)
(-0.38744 -0.0506176 1.51068)
(-0.618712 0.108265 1.49288)
(0.0231555 -0.233697 1.45761)
(0.109216 -0.285939 1.31485)
(0.48574 -0.567997 1.43662)
(0.202024 -0.437182 1.59349)
(-0.0676365 -0.140299 1.437)
(-0.0702862 -0.137185 1.39648)
(-0.0554858 -0.140299 1.49987)
(-0.0581355 -0.137185 1.4456)
(-0.308901 -2.03614e-12 1.437)
(-0.322211 -0.0788043 1.55155)
(-0.43282 6.61189e-10 1.34453)
(-0.217613 -1.75497e-09 1.34431)
(-0.222179 -0.0439185 1.4164)
(-0.23044 -0.0788043 1.4009)
(-0.217613 2.33331e-10 1.4009)
(-0.178446 -0.150825 1.38539)
(-0.205903 -0.0752993 1.34431)
(-0.157655 -0.0803944 1.4456)
(-0.268072 -0.0263936 1.55155)
(-0.376388 -0.0498293 1.24927)
(0.0319938 -0.0752993 1.36531)
(-0.0729972 -0.135785 1.45458)
(0.0340314 -0.397422 1.27605)
(-0.228416 -0.0729974 1.36531)
(-0.0556794 -0.158385 1.37377)
(-0.136385 -0.265596 1.22248)
(-0.482378 0.0922384 1.50962)
(-0.212304 -0.124634 1.30366)
(-0.2093 -0.0971125 1.28531)
(-0.393119 -0.0971125 1.24927)
(-0.249385 -0.0500038 1.34453)
(-0.433204 -0.0500038 1.51582)
(-3.95566e-09 -0.509757 1.56703)
(-5.57073e-09 0.00996197 1.38684)
(-1.74861e-09 -0.222479 1.25527)
(-0.158925 -0.49741 1.60163)
(-0.147408 -0.140272 1.27187)
(-1.27029e-09 0.00996198 1.29907)
(-0.158925 -0.115568 1.29907)
(-0.191007 -0.196399 1.32627)
(-2.41355e-09 0.0902389 1.16731)
(-2.23056e-09 0.0369382 0.76992)
(-1.04714e-09 -0.106423 1.12376)
(-0.0551538 -0.0278521 1.01084)
(0.431722 0.589042 0.944015)
(-5.26358e-10 0.0369382 0.941493)
(-0.0551538 -0.0413957 0.941493)
(-0.46202 -0.561502 0.93897)
(-3.49699e-09 -0.190504 1.26896)
(-3.97311e-10 -0.117847 1.3911)
(-1.64954e-09 0.112208 1.77291)
(0.1008 0.19132 1.70737)
(-0.184829 -0.234018 1.24757)
(5.08732e-10 -0.117847 1.33135)
(0.1008 0.255448 1.33135)
(-0.4659 -0.595851 1.41513)
(-0.0859028 -0.335918 1.65709)
(-0.0425478 -0.0171435 1.2774)
(0.128007 0.200772 1.79207)
(0.0944332 0.0543742 2.05684)
(0.0936785 0.246639 1.30614)
(-0.0456247 -0.019745 1.36604)
(0.0944332 0.334665 1.36604)
(-0.576095 -0.615583 1.42593)
(0.262053 0.432029 1.16922)
(-0.180101 -0.191996 1.18428)
(-0.13399 -0.0372531 1.29195)
(0.364523 0.504452 1.14504)
(-0.131797 -0.0705461 1.17228)
(-0.129009 -0.0681885 1.25527)
(-0.131797 -0.0813684 1.41026)
(-0.129009 -0.0790108 1.32509)
(-1.58227e-10 0.0902389 1.17228)
(-0.0586433 -0.0308024 1.1385)
(-1.17252e-09 -0.106423 1.16104)
(-4.58415e-09 -0.0372357 1.23732)
(-0.139911 -0.0854322 1.17534)
(-0.0586433 -0.0443461 1.16964)
(-1.54641e-10 -0.0372357 1.16964)
(0.0924381 0.00835953 1.16394)
(-0.043716 0.0606662 1.23732)
(-0.0859028 0.072821 1.32509)
(-0.0425478 -0.0290858 1.1385)
(0.128007 0.331597 1.33957)
(-0.043716 -0.153344 1.31612)
(-0.23733 -0.170286 1.35823)
(-0.165206 -0.141172 1.274)
(-0.0456247 -0.0316873 1.31612)
(-0.225495 -0.250433 1.29036)
(-0.407527 -0.45312 1.40515)
(-0.500885 -0.609617 1.13197)
(-0.391315 -0.614393 1.15814)
(-0.0257601 -0.138711 1.26896)
(-0.0257601 -0.0569638 1.33957)
(-0.004698 -0.120903 1.16104)
(-0.004698 -0.0391557 1.38666)
(-0.889312 0.518347 1.69001)
(-1.27241 0.178101 1.8231)
(-0.476868 0.982513 2.3893)
(-0.469322 1.03123 1.76356)
(-0.575674 0.902437 2.09276)
(-0.631957 0.966078 2.50477)
(-0.530954 1.03946 2.27382)
(-0.569847 0.97542 2.46546)
(-1.37738 0.160205 2.08241)
(-1.08411 0.255384 2.75692)
(-0.300785 0.616898 2.69603)
(-0.561759 0.992123 2.95589)
(-0.705548 0.995315 3.01696)
(-0.765337 0.798535 3.22684)
(-0.589747 0.991356 2.90931)
(-0.656742 0.847487 3.21051)
(-0.19851 1.11122 2.49369)
(-0.0380416 0.783741 2.46604)
(0.478444 1.06993 1.92532)
(0.653442 1.09696 1.57274)
(-0.164334 1.16581 2.61159)
(-0.193512 1.16688 2.79767)
(-0.118269 1.11134 2.48378)
(-0.119151 0.904648 2.31129)
(-0.459803 1.04036 1.79173)
(-0.331311 1.0965 2.63428)
(0.540127 1.00069 1.52646)
(0.123008 1.06232 1.9139)
(-0.381537 1.22677 2.41852)
(-0.433195 1.04237 2.58748)
(-0.257219 1.06433 2.04878)
(-0.300731 0.820123 2.11451)
(-0.694125 0.861944 2.42419)
(-0.417655 1.06257 2.50918)
(-0.477815 1.08945 2.1514)
(-0.536467 1.31483 3.00433)
(-0.627831 0.933092 2.48053)
(-0.511834 1.05428 2.58536)
(-0.789922 0.929146 2.24124)
(-0.51379 1.05041 2.34607)
(-0.735854 0.74922 2.59189)
(-0.572634 0.96854 2.93548)
(-0.415245 0.946559 2.98137)
(-0.470093 1.19896 2.95947)
(-0.668893 0.815466 2.63976)
(-0.559837 0.967792 2.88891)
(-0.655123 0.650898 2.48525)
(-0.371536 0.977797 2.7309)
(-0.388064 1.17626 2.66597)
(-0.416681 1.04416 2.02517)
(-0.395566 1.09474 2.52745)
(-0.106212 1.00883 2.048)
(-0.109075 1.16652 2.05618)
(-0.45281 1.00625 2.22179)
(-0.189566 1.13052 2.31644)
(-0.462934 1.04063 2.48065)
(-0.39743 0.9964 2.57044)
(-0.12822 0.802065 2.00952)
(-0.470257 1.03131 2.94679)
(-0.343798 0.890752 2.82921)
(-0.374189 1.04005 2.68856)
(-0.226946 1.03663 2.47276)
(-0.301294 0.930844 2.59402)
(0.070728 0.927524 2.37822)
(-0.394664 0.244767 0.581385)
(-0.230155 0.178628 0.80786)
(-0.192252 0.0987319 0.589095)
(-0.329564 0.0417082 0.808663)
(-0.134758 -0.00499093 0.581204)
(-0.143945 -0.107305 0.786232)
(0.11145 -0.00651942 0.832101)
(-0.196921 0.0707634 0.778894)
(-0.203795 0.149615 1.05762)
(-0.283288 0.00509002 1.80376)
(-0.00410196 -0.407519 1.37078)
(-0.30703 0.193848 1.63312)
(-0.196975 -0.28606 1.06183)
(0.00845267 -0.527792 1.47301)
(-0.0899498 -0.189679 1.19636)
(0.0389878 -0.385494 1.54152)
(-0.0926455 -0.00909803 0.71804)
(-0.028442 -0.372254 1.2473)
(-0.0319525 -0.246503 1.19798)
(0.204005 -0.0892671 1.23916)
(-0.0183444 -0.179362 0.718961)
(0.0105194 -0.423149 1.19112)
(0.451495 -0.154216 1.20511)
(0.075679 -0.155077 1.32798)
(-0.276813 0.047022 0.996938)
(-0.198374 0.313731 1.53882)
(0.28936 -0.0168527 1.31178)
(0.00368529 0.325236 1.59999)
(0.130888 0.108972 0.99219)
(0.0505156 0.043496 1.14742)
(0.492537 0.0461396 1.34483)
(0.343874 0.0216578 1.44111)
(-0.158646 -0.164028 0.810504)
(-0.112672 -0.0433611 0.589685)
(0.0384988 0.0160981 0.805179)
(-0.0666172 -0.0251018 1.09936)
(-0.132093 -0.0584636 0.865312)
(-0.09555 -0.049534 0.779049)
(-0.232588 0.144664 1.09937)
(-0.0869598 0.0108747 0.855944)
(-0.0818837 -0.299681 1.05366)
(-0.0375624 -0.079891 1.19819)
(0.0515101 -0.551972 1.33313)
(-0.0336336 -0.222044 0.917091)
(-0.123817 -0.153005 1.04936)
(-0.0199274 -0.20248 1.04879)
(-0.0706077 -0.0836632 0.917037)
(-0.144357 -0.310819 0.92002)
(0.272871 -0.09678 0.96918)
(0.263862 -0.00994174 1.02837)
(-0.00186231 -0.0133124 1.16854)
(0.553591 -0.0597691 1.30836)
(-0.06371 -0.0857853 0.91913)
(0.0637458 0.0296511 1.01469)
(0.150294 0.0136154 0.91598)
(0.081612 -0.0671324 1.01546)
(-0.0762747 -0.0184275 0.927007)
(0.282141 -0.0211948 1.31969)
(0.146044 -0.139447 1.36997)
(0.000626337 -0.353801 1.33321)
(0.0235754 -0.163137 0.927417)
(0.0483482 -0.0495621 1.07362)
(-0.0254953 -0.214545 1.06661)
(0.0659765 -0.188234 1.11672)
(0.258581 0.0146948 0.603974)
(0.213655 0.144973 0.734964)
(0.328629 0.144728 0.622722)
(0.402233 -0.0114848 0.710669)
(0.481889 0.30812 0.598595)
(0.595656 0.284479 0.700093)
(0.420472 0.461032 0.722947)
(0.371172 0.18465 0.689678)
(0.316979 0.156002 0.890804)
(0.640294 0.133978 1.48146)
(0.760265 0.417904 0.953348)
(0.467099 0.163988 1.21037)
(0.727658 0.302275 0.880488)
(0.938787 0.371628 1.06462)
(0.512158 0.288222 0.92821)
(0.917589 0.658728 1.27292)
(0.363226 0.153182 0.70677)
(0.672541 0.390041 0.878553)
(0.491165 0.332384 0.879665)
(0.474377 0.554 0.883299)
(0.468308 0.233657 0.704177)
(0.791123 0.395074 0.983641)
(0.462316 0.644873 0.996016)
(0.604922 0.526979 1.12654)
(0.375995 0.0842201 0.859633)
(0.383167 0.255375 1.16165)
(0.482104 0.636728 0.917601)
(0.397625 0.387576 1.2663)
(0.41651 0.531875 0.859083)
(0.434701 0.365177 0.881402)
(0.445819 0.819109 1.05397)
(0.596787 0.858204 1.18603)
(0.5702 0.296807 0.726035)
(0.41572 0.188316 0.620547)
(0.425551 0.398084 0.710516)
(0.577646 0.460996 0.955971)
(0.409032 0.245615 0.733012)
(0.425178 0.265759 0.688388)
(0.372874 0.150668 0.960859)
(0.421113 0.248947 0.712165)
(0.675421 0.299817 0.81898)
(0.531628 0.280825 0.922008)
(0.905212 0.442765 1.02514)
(0.672278 0.381431 0.840229)
(0.519379 0.25657 0.830193)
(0.54685 0.332414 0.829574)
(0.411044 0.313159 0.781908)
(0.613536 0.190517 0.776611)
(0.475075 0.534076 0.848709)
(0.401416 0.537177 0.815143)
(0.421132 0.353459 0.921935)
(0.473467 0.812303 1.03142)
(0.472457 0.271133 0.788494)
(0.398701 0.390711 0.818217)
(0.37845 0.435761 0.791069)
(0.445089 0.396121 0.817039)
(0.408177 0.225857 0.801065)
(0.554657 0.75335 1.10542)
(0.687416 0.657333 1.14608)
(0.816512 0.553216 1.12682)
(0.477667 0.346695 0.799423)
(0.469189 0.391609 0.872969)
(0.54869 0.33794 0.898007)
(0.558087 0.426373 0.857892)
(-1.48627e-09 0.042051 0.687798)
(-2.31999e-10 0.159684 1.06675)
(2.27289e-09 -0.176209 1.06879)
(0.157558 -0.0412379 0.936482)
(0.0337329 0.0242034 1.08642)
(7.19294e-10 0.0293883 1.1564)
(0.157558 -0.0608064 1.10622)
(0.104256 -0.0526137 1.16589)
(-1.55551e-09 0.175208 1.25881)
(-3.43957e-10 -0.0462813 1.48215)
(-3.88693e-10 -0.211365 1.52242)
(0.215018 -0.129803 1.5158)
(0.421376 -0.0477362 1.60447)
(3.91725e-10 0.0170307 1.43858)
(0.215018 -0.0580927 1.46689)
(0.466516 -0.0967488 1.65524)
(1.53023e-09 -0.310463 1.25495)
(1.33667e-09 -0.310487 1.52232)
(2.90297e-09 -0.447177 1.48924)
(0.0976139 -0.449277 1.43282)
(-0.158677 -0.22651 1.42859)
(1.06059e-09 -0.250899 1.48132)
(0.0976139 -0.242736 1.57945)
(0.276782 -0.270275 1.64297)
(0.258301 -0.13484 1.12173)
(0.256609 -0.212426 1.60857)
(0.167194 -0.498174 1.507)
(0.292962 -0.50057 1.63101)
(0.434099 -0.227852 1.69077)
(0.242307 -0.198373 1.60027)
(0.292962 -0.21403 1.61105)
(0.477906 -0.242457 1.71889)
(0.290709 0.00587384 1.38645)
(-0.140706 -0.101764 1.25463)
(0.243774 -0.0868533 1.39113)
(0.578292 -0.173279 1.68739)
(0.205859 -0.0646931 1.28425)
(0.164474 -0.0844739 1.30183)
(0.205859 0.0237705 1.34216)
(0.164474 -0.0746646 1.41386)
(1.44733e-10 0.0505568 1.34458)
(0.215165 -0.117465 1.5073)
(2.13461e-09 -0.109396 1.45226)
(9.98632e-10 -0.123391 1.3747)
(0.185975 -0.0616368 1.38496)
(0.215165 -0.077081 1.47994)
(8.82909e-10 -0.0843389 1.34783)
(0.0667501 -0.119655 1.43348)
(0.135932 -0.178869 1.37648)
(0.258301 -0.137574 1.36542)
(0.256609 -0.13217 1.5123)
(0.167194 -0.204322 1.56358)
(0.135932 -0.257879 1.30293)
(0.200146 -0.128635 1.39928)
(0.007655 -0.19001 1.47257)
(0.242307 -0.150942 1.52659)
(0.017358 -0.160644 1.36004)
(0.282189 -0.221997 1.61055)
(0.607321 -0.186075 1.70802)
(0.403466 -0.211963 1.63677)
(0.114498 -0.21204 1.47014)
(0.114498 -0.206432 1.51524)
(0.131558 -0.17017 1.43969)
(0.131558 -0.297547 1.5763)
(-0.182982 -0.254898 1)
(-0.161129 -0.227723 1)
(-0.259697 -0.256405 1)
(-0.170134 -0.199232 0.990565)
(-0.18031 -0.263949 0.9543)
(-0.189326 -0.212344 1)
(-0.149266 -0.127968 0.990565)
(-0.250153 -0.266228 0.924475)
(-0.18325 -0.288947 1)
(-0.263148 -0.326989 1)
(-0.389996 -0.192289 1)
(-0.382538 -0.517788 0.861111)
(-0.253304 -0.335533 0.967672)
(-0.286723 -0.314131 1)
(-0.339279 -0.420702 0.861111)
(-0.378986 -0.412296 0.885788)
(-0.29735 -0.142712 1)
(-0.383716 -0.0647816 1)
(-0.359113 0.101577 1)
(-0.342929 0.000522179 1.0184)
(-0.320034 -0.173072 0.923324)
(-0.339487 -0.0889051 1)
(-0.239703 0.120122 1.0184)
(-0.357615 0.000808031 0.975267)
(-0.177004 -0.241185 1.11862)
(-0.389502 -0.565691 0.918876)
(-0.360288 -0.157989 1.07266)
(-0.273502 -0.550061 1.25128)
(-0.262301 -0.291537 1.10687)
(-0.371509 -0.482122 1.00231)
(-0.143003 -0.00909139 1.25128)
(-0.357648 -0.417575 1.01842)
(-0.191814 -0.243939 1.004)
(-0.251729 -0.263136 0.951534)
(-0.200343 -0.21188 1.00887)
(-0.315705 -0.373743 0.953063)
(-0.234447 -0.287684 0.951189)
(-0.253779 -0.258182 0.968126)
(-0.235292 -0.329262 0.951189)
(-0.261021 -0.296272 0.968126)
(-0.223864 -0.266795 1)
(-0.381267 -0.464063 0.909733)
(-0.35379 -0.212037 1)
(-0.264671 -0.210296 1)
(-0.267783 -0.313196 0.945627)
(-0.343694 -0.363876 0.909733)
(-0.272979 -0.205765 1)
(-0.348559 -0.256867 0.961471)
(-0.212988 -0.101687 0.996963)
(-0.109425 0.0179476 1.11862)
(-0.343002 -0.383963 0.918876)
(-0.218606 0.04504 1.07266)
(-0.274657 -0.200416 0.996963)
(-0.270573 -0.274076 0.955623)
(-0.322994 -0.238923 0.947075)
(-0.331065 -0.297091 1.00231)
(-0.293397 -0.188277 0.963335)
(-0.340149 -0.139422 0.978601)
(-0.401114 -0.458887 0.884612)
(-0.381671 -0.21276 0.964878)
(-0.326519 -0.205335 0.969583)
(-0.348739 -0.225405 0.969583)
(-0.351568 -0.206188 0.956614)
(-0.406192 -0.208584 0.956614)
(0.439337 -0.077933 0.685921)
(0.377429 -0.00508959 0.572363)
(0.359228 0.0132045 0.756808)
(0.409963 -0.0531404 0.685062)
(0.559289 -0.180177 0.496349)
(0.488363 -0.107362 0.587575)
(0.740306 -0.109316 0.495635)
(0.32159 0.102537 0.592342)
(0.120351 0.111341 0.582949)
(-0.237132 0.233919 0.577312)
(-0.0316655 0.152432 0.503279)
(-0.0601869 0.0945259 0.66765)
(0.139538 0.0870661 0.596304)
(-0.215721 0.221006 0.58552)
(0.080323 0.084698 0.596849)
(-0.00945641 0.112506 0.58188)
(0.401301 0.0254038 0.861543)
(0.169003 0.0478719 0.564922)
(0.43419 -0.145369 1.09071)
(0.439922 0.0520832 1.10087)
(0.384069 0.0627293 0.763921)
(0.432943 0.0609461 0.799136)
(0.95383 -0.10785 0.755796)
(0.491854 0.0945921 0.799061)
(0.340831 0.0224482 0.782069)
(0.0593281 0.122968 0.788406)
(0.375825 0.173831 1.09244)
(0.265071 0.294454 1.08183)
(0.374695 -0.00801475 0.737368)
(0.127917 0.154754 0.871195)
(0.688157 0.0732053 0.735513)
(0.314316 0.286771 0.871342)
(0.415365 -0.0512314 0.588552)
(0.328384 0.0712763 0.630268)
(0.483491 -0.115708 0.568275)
(0.278325 -0.0217485 0.696425)
(0.310844 0.00879494 0.590471)
(0.346581 0.0615269 0.661541)
(0.24072 0.0316269 0.638259)
(0.28119 0.00489212 0.651975)
(0.213539 0.0351162 0.603209)
(0.0185053 0.101548 0.739892)
(0.0905402 0.19253 0.638014)
(0.454178 0.0396533 0.666116)
(0.196036 0.060355 0.603757)
(0.159074 0.0907351 0.66838)
(0.291842 0.128118 0.596596)
(0.260965 0.147699 0.682552)
(0.7567 -0.0398224 0.624416)
(0.678483 -0.0656885 0.567114)
(0.186702 0.0774626 0.698804)
(0.789987 0.0370176 0.808836)
(0.355508 0.0642185 0.879349)
(0.244684 0.147459 0.654462)
(0.310691 0.126952 0.814871)
(0.255119 0.112145 0.783682)
(0.364963 0.13545 0.66842)
(0.441965 0.207711 0.878288)
(0.174958 0.101585 0.738361)
(0.250845 0.0533811 0.634366)
(0.40183 0.0767753 0.760452)
(0.282649 0.169726 0.87928)
(0.339698 0.0411611 0.68019)
(0.222247 0.105066 0.778056)
(0.181334 0.325099 0.846484)
(0.199647 0.275672 0.998037)
(0.22689 0.0806728 0.898622)
(0.178352 0.315252 0.942859)
(0.221786 -0.0155691 1.22939)
(0.234284 0.101531 0.955969)
(0.261487 0.0599465 1.0607)
(0.248786 0.0908653 1.01004)
(0.157275 0.213601 1.10729)
(0.107422 -0.0408678 1.12945)
(0.302988 -0.294578 0.840142)
(0.158269 -0.0626461 1.20213)
(0.108933 -0.260702 1.64588)
(0.183101 -0.0356687 1.05295)
(0.151943 -0.0904113 1.19551)
(0.122895 -0.218375 1.51501)
(0.334837 -0.0404569 0.802993)
(0.354796 -0.27511 0.691926)
(0.342698 -0.318582 0.630327)
(0.132291 -0.267193 0.876233)
(0.296518 -0.111141 0.884884)
(0.391058 -0.0681394 0.663449)
(0.209238 -0.182444 0.969291)
(0.265774 -0.269417 1.08381)
(0.183217 0.242056 1.10843)
(0.204184 -0.0721774 1.23661)
(0.169227 -0.272986 1.07531)
(0.277923 -0.112987 1.26207)
(0.208252 -0.299751 1.71947)
(0.201767 -0.076463 1.23889)
(0.321799 -0.110358 1.31741)
(0.219648 -0.21425 1.68251)
(0.157178 -0.104908 1.43039)
(0.288973 0.0218993 0.961803)
(0.212448 -0.121706 1.43493)
(0.128434 -0.287957 1.69897)
(0.17771 0.012026 1.1076)
(0.212606 0.0366363 1.07322)
(0.217908 0.194222 1.14933)
(0.244357 0.00471939 1.11495)
(0.21549 0.0368796 1.04122)
(0.162962 -0.0799417 1.19668)
(0.34718 -0.0408909 0.805496)
(0.340153 0.0207027 0.895563)
(0.192423 0.00470421 1.10385)
(0.158124 -0.0699936 1.19006)
(0.283252 -0.014787 0.951814)
(0.253869 -0.0897122 1.03803)
(0.226364 -0.0493927 1.08328)
(0.243966 -0.0279292 1.1987)
(0.205362 -0.097751 1.23938)
(0.206985 -0.110223 1.11493)
(0.159774 -0.019477 0.997593)
(0.244811 -0.00774623 1.15334)
(0.208499 -0.0998757 1.08591)
(0.203657 -0.0839882 1.24166)
(0.285422 -0.0236484 0.947398)
(0.173875 -0.217079 1.39364)
(0.133912 -0.25218 1.67392)
(0.230506 -0.220846 1.17432)
(0.195419 -0.0919419 1.02929)
(0.211119 -0.0845343 1.04877)
(0.17809 -0.129805 1.04534)
(0.186158 -0.315856 1.06482)
(0.549046 0.917922 1)
(0.211842 0.455347 1)
(0.373107 1.0047 1)
(0.516333 0.16628 0.624103)
(0.519157 0.495547 0.720222)
(0.248073 0.435364 1)
(0.603245 0.529053 0.624103)
(0.393847 0.479843 0.833736)
(0.0830698 0.266442 1)
(0.0448451 0.11565 1)
(-0.0999967 0.297617 1)
(0.0636714 0.189846 1.01407)
(0.0743943 0.217637 0.97005)
(-0.0340236 0.159151 1)
(0.0342357 0.271282 1.01407)
(-0.101579 0.207921 1.07518)
(0.0275172 1.01386 1)
(-0.201221 0.500965 1)
(-0.392011 0.740923 1)
(-0.162646 0.443224 0.764903)
(-0.0552383 0.740092 0.847516)
(-0.373115 0.595773 1)
(0.014182 0.88855 0.764903)
(-0.392629 0.72841 1.01852)
(0.401394 -0.0273848 0.738821)
(0.171988 0.121044 1.03238)
(-0.00583958 0.291768 0.813942)
(0.307967 -0.313702 1.03126)
(0.344479 0.211563 0.930711)
(0.163007 0.0799772 0.900628)
(0.252403 0.349175 1.03126)
(-0.0179629 0.201775 1.10226)
(0.218305 0.34258 0.918728)
(0.284776 0.688133 0.820324)
(0.460648 0.265138 0.718125)
(0.194814 0.280224 0.921171)
(0.244133 0.407668 0.887725)
(0.294779 0.34357 0.784186)
(0.239346 0.261263 0.887725)
(0.303366 0.189788 0.784186)
(0.0651519 0.276325 1)
(0.0303404 0.19241 0.96878)
(-0.15681 0.328952 1)
(-0.000565048 0.576561 1)
(0.0736921 0.338338 0.988656)
(0.0107071 0.268439 0.96878)
(0.0683579 0.538546 1)
(0.0087505 0.411936 0.939195)
(0.346272 0.793374 0.74785)
(0.440704 0.335048 0.738821)
(0.0948584 0.353245 1.03238)
(0.145275 0.650008 0.813942)
(0.263584 0.489285 0.74785)
(0.265291 0.256473 0.8255)
(0.137911 0.519148 0.825813)
(0.139852 0.282409 0.900628)
(0.0378171 0.677691 0.953809)
(-0.174823 0.509523 0.979022)
(-0.0465686 0.269531 1.05378)
(-0.201304 0.404049 1.04835)
(-0.0504108 0.495807 0.867641)
(-0.0737981 0.397945 0.867641)
(0.00203864 0.493754 0.944586)
(-0.0444808 0.40865 0.944586)
(0.760671 0.646854 1.44981)
(0.473426 0.491987 0.890518)
(0.500521 0.382712 0.901589)
(0.401577 0.981664 1.8219)
(0.310434 0.60127 1.46799)
(0.238313 0.660343 1.08777)
(0.462288 1.02468 1.7109)
(0.368371 0.560389 0.8988)
(0.247763 0.349086 0.907227)
(-0.463049 -0.371537 1.46325)
(-0.153443 -0.280407 1.03961)
(-0.785722 -0.11695 1.86451)
(-0.202853 0.386701 1.25046)
(-0.207555 0.296327 1.17049)
(-0.202589 0.352501 1.2209)
(-0.212425 0.138859 1.03921)
(0.286106 0.145649 0.739298)
(-0.0847269 -0.300169 0.847898)
(-0.0690378 -0.411229 0.597001)
(-0.350933 -0.0758713 0.845557)
(0.0514922 0.148361 0.852115)
(0.0265485 0.144253 0.706243)
(0.105749 0.380653 1.00843)
(0.0676307 0.0602077 0.601516)
(0.257122 1.09267 1.9107)
(-0.658165 0.139086 2.0318)
(-0.521382 0.0446032 1.18445)
(-0.577508 0.491548 2.22855)
(0.142337 1.0574 1.82301)
(0.0928722 0.657589 1.30435)
(0.207046 1.19319 1.88821)
(0.149135 0.590577 1.2022)
(0.0452778 0.483744 1.04489)
(0.206441 0.391864 1.06547)
(0.290913 0.929851 1.66779)
(-0.106384 0.691957 1.5068)
(0.052422 0.642294 1.1753)
(0.180107 0.582019 1.0653)
(0.0520506 0.6606 1.31532)
(0.231025 0.642456 1.15502)
(0.0465111 0.520575 1.07355)
(-0.120811 0.344392 1.22027)
(-0.0980568 0.209971 0.944297)
(0.179549 0.511692 0.980977)
(0.0404697 0.362523 0.942696)
(-0.0558747 0.388173 1.08484)
(0.246017 0.223566 0.947376)
(-0.0750718 0.222714 1.08396)
(0.277431 0.718724 1.28967)
(0.388689 1.20692 1.82801)
(-0.111248 0.577256 1.41222)
(0.109796 0.657316 1.27262)
(0.0890031 0.513376 1.09501)
(0.317988 0.659866 1.10097)
(0.0722847 0.538504 1.20042)
(0.112661 0.662753 1.20171)
(0.22697 0.272618 0.738168)
(0.0759726 0.279626 0.85688)
(-0.120785 0.34709 1.22256)
(-0.0608096 0.134025 0.849564)
(0.0855874 0.286323 0.853292)
(0.0419622 0.244887 0.85405)
(-0.0383213 0.134841 0.979386)
(-0.322958 -0.104573 1.2165)
(-0.102537 -0.477365 1.11203)
(-0.29712 -0.267508 1.25177)
(-0.0296521 -0.380937 0.921613)
(0.0888086 -0.455631 1.15439)
(-0.17524 -0.190893 0.953432)
(-0.177323 -0.376382 1.04807)
(-0.0528706 -0.237211 0.952296)
(-0.0660996 -0.348753 1.04864)
(-0.376623 -0.182528 1.29587)
(-0.379609 -0.0802795 1.5309)
(-0.384507 -0.148076 1.62142)
(-0.275187 -0.104221 1.14921)
(-0.450242 0.135298 1.11344)
(-0.430192 0.0360125 1.09439)
(-0.439755 -0.0638307 1.10883)
(-0.400952 -0.287537 1.08691)
(-0.165606 -0.329908 1.08688)
(-0.435236 -0.19562 1.77589)
(-0.420361 -0.271007 2.05004)
(-0.192866 -0.431734 1.50934)
(-0.361285 -0.293035 1.23772)
(-0.375229 -0.191154 1.23543)
(-0.38945 -0.142163 1.24122)
(-0.336706 -0.482718 1.22868)
(0.0925065 -0.370205 1.22357)
(-0.154871 -0.124137 1.11773)
(-0.123007 -0.389504 1.40522)
(0.00239011 -0.228514 1.33998)
(-0.162166 0.0632884 1.11653)
(-0.112667 -0.164563 1.06134)
(-0.212772 0.0128334 1.11539)
(-0.123201 -0.480877 1.05405)
(-0.36572 0.0261307 1.08376)
(-0.202711 -0.321209 1.03368)
(-0.0954217 -0.0926523 1.0381)
(-0.325635 0.107187 1.04124)
(-0.266391 -0.182671 1.07889)
(-0.163808 -0.302494 1.10205)
(-0.126889 -0.220794 1.11665)
(-0.0805772 -0.267464 1.07194)
(-0.350717 -0.19061 1.13692)
(-0.290623 -0.0677529 1.00872)
(-0.40285 -0.0619965 1.13687)
(-0.198927 -0.452131 1.08317)
(-0.274939 -0.243169 1.13566)
(-0.307173 -0.219787 1.14689)
(-0.398708 -0.236753 1.17164)
(-0.382327 -0.222061 1.14503)
(-0.160898 -0.192172 1.03663)
(-0.0398954 -0.167875 1.03633)
(-0.336533 -0.0407727 1.03783)
(-0.309592 -0.161879 1.19376)
(-0.117603 -0.285388 1.12251)
(-0.0319836 -0.296691 1.07123)
(-0.210559 -0.264284 1.19134)
(-0.147966 -0.271472 1.15799)
(-0.156085 -0.32992 1.08597)
(-0.231487 -0.535664 1.11342)
(-0.273289 -0.40302 1.00097)
(-0.371446 -0.362171 1.12992)
(-0.27708 -0.306397 1.17867)
(-0.192417 -0.240244 1.12022)
(-0.406258 -0.155118 1.14658)
(-0.14297 -0.321178 1.30361)
(-0.306768 -0.523394 0.899093)
(-0.20456 -0.37534 0.900098)
(-0.167426 -0.353551 0.917154)
(-0.393641 -0.280876 0.904537)
(-0.579782 -0.530499 1.15562)
(-0.504174 -0.385726 1.04108)
(-0.410551 -0.388456 1.0295)
(-0.344177 -0.253785 0.921769)
(-0.179693 -0.320577 0.976525)
(-0.139228 0.0979577 1.5013)
(-0.0339394 0.109019 1.16733)
(-0.25126 -0.00664274 1.22851)
(-0.502089 -0.365282 1.30803)
(-0.471968 -0.235221 1.19377)
(-0.246461 -0.153072 1.11745)
(-0.453004 -0.281955 1.17759)
(-0.066689 -0.221693 0.880296)
(0.00469518 0.13974 1.03721)
(0.0734698 0.103756 0.969647)
(-0.279377 0.102731 0.990207)
(-0.261987 -0.0707407 0.941016)
(-0.284538 -0.0497581 0.91435)
(-0.285934 -0.12867 0.957626)
(-0.376126 -0.181698 0.980806)
(-0.35842 -0.216148 0.938119)
(-0.256186 0.0551375 1.17774)
(-0.262142 0.121553 1.02299)
(-0.252246 0.141812 1.28261)
(-0.521952 -0.37475 1.21323)