/*--------------------------------*- C++ -*----------------------------------*\
| =========                 |                                                 |
| \\      /  F ield         | OpenFOAM: The Open Source CFD Toolbox           |
|  \\    /   O peration     | Version:  2506                                  |
|   \\  /    A nd           | Website:  www.openfoam.com                      |
|    \\/     M anipulation  |                                                 |
\*---------------------------------------------------------------------------*/
FoamFile
{
    version     2.0;
    format      ascii;
    arch        "LSB;label=32;scalar=64";
    class       surfaceScalarField;
    location    "700";
    object      phi;
}
// * * * * * * * * * * * * * * * * * * * * * * * * * * * * * * * * * * * * * //

dimensions      [0 3 -1 0 0 0 0];

oriented        oriented;

internalField   nonuniform List<scalar> 
82592
(
2.74202e-06
-7.12173e-06
1.52924e-06
2.85058e-06
3.10862e-06
2.43138e-06
-7.24358e-06
1.7037e-06
-7.52163e-06
2.58268e-06
1.76718e-06
3.17178e-06
1.77422e-06
2.2541e-06
-7.07978e-06
3.05152e-06
4.27442e-06
5.44862e-06
-6.98109e-06
5.62055e-06
1.76249e-06
4.28851e-06
2.93431e-06
2.38745e-06
1.95303e-06
3.41483e-06
-7.64685e-06
2.27906e-06
3.65793e-06
1.26417e-06
-7.97705e-06
3.05499e-06
-8.16813e-06
3.71186e-06
1.51515e-06
2.94115e-06
2.88616e-06
3.57358e-06
1.37563e-06
-7.83538e-06
4.48268e-06
5.16596e-06
-7.69571e-06
5.23371e-06
2.90686e-06
4.56253e-06
3.48957e-06
1.62808e-06
2.46752e-06
-8.18515e-06
2.1542e-06
3.56351e-06
3.87935e-06
-8.55602e-06
1.92295e-06
2.75372e-06
-8.98146e-06
2.65686e-06
2.62472e-06
3.6999e-06
2.77095e-06
-8.45125e-06
1.91484e-06
3.76545e-06
5.09738e-06
6.08921e-06
-8.71909e-06
6.33371e-06
2.643e-06
5.16521e-06
3.69495e-06
2.51746e-06
1.7645e-06
2.29643e-06
-7.49333e-06
3.43236e-06
3.78017e-06
2.80241e-06
1.24086e-06
-7.82341e-06
-8.19247e-06
2.77176e-06
1.577e-06
3.84367e-06
2.83078e-06
9.45057e-07
-7.74635e-06
3.97038e-06
4.33335e-06
5.163e-06
-7.73195e-06
5.36273e-06
2.75076e-06
4.34266e-06
3.6511e-06
1.51292e-06
5.33584e-06
4.33205e-06
-7.2365e-06
-7.79153e-06
4.59132e-06
5.78301e-06
4.1915e-06
5.23605e-06
-7.17345e-06
-1.89313e-06
4.38706e-06
5.22381e-06
-7.71771e-06
3.20399e-06
-2.2584e-06
4.3903e-06
-2.20009e-06
3.3523e-06
-7.50381e-06
5.3437e-06
5.5603e-06
2.18661e-06
2.75037e-06
5.2103e-06
-4.76607e-06
5.69885e-06
2.77907e-06
-3.51285e-06
5.93766e-06
2.16655e-06
2.03667e-06
7.91392e-06
8.27662e-06
2.20063e-06
2.20043e-06
5.71119e-06
-2.14713e-06
4.60094e-06
3.32922e-06
4.19969e-06
3.33277e-06
3.69599e-06
4.33026e-06
-5.77502e-06
4.68677e-06
3.86001e-06
-7.69997e-06
2.09091e-06
3.46191e-06
1.84341e-06
-8.29015e-06
4.60603e-06
2.35349e-06
-5.65075e-06
1.88632e-06
7.97253e-06
1.568e-06
-4.76381e-06
1.9068e-06
-2.67703e-06
-3.68854e-06
-3.72176e-06
-2.74118e-06
1.50965e-06
6.20664e-06
-4.94919e-06
1.23519e-07
-1.38098e-06
-1.42632e-06
6.36965e-06
-5.34521e-06
4.01874e-07
8.6532e-07
6.51184e-06
-5.45961e-06
-1.91756e-06
-5.64561e-06
6.5207e-06
7.92262e-07
-1.66737e-06
9.66399e-07
4.85513e-06
3.85088e-07
4.76989e-06
-5.22981e-06
8.27418e-07
-1.6179e-06
6.46261e-06
6.89005e-06
-1.36358e-06
-6.07141e-06
5.4489e-07
-9.62421e-07
-7.46599e-06
5.82817e-07
7.84552e-06
8.63903e-07
-1.79982e-06
-6.76291e-06
7.69878e-06
-6.81046e-06
-1.60246e-06
9.02578e-07
7.51036e-06
4.70658e-07
5.7437e-06
6.75638e-07
6.34808e-06
-6.83988e-06
4.69048e-07
-1.53583e-06
7.68102e-06
7.47385e-06
1.67162e-06
-6.18935e-06
-2.95616e-06
-2.74363e-06
1.47896e-06
-6.68065e-06
7.94533e-06
2.36077e-06
-6.15172e-06
-4.26981e-06
8.06075e-06
-7.02091e-06
2.3846e-06
-3.46099e-06
8.09732e-06
8.76927e-07
4.76451e-06
1.83244e-06
4.83766e-06
-6.70436e-06
1.23462e-06
-3.49103e-06
8.43305e-06
6.94046e-06
-6.32843e-06
1.41399e-06
-2.02607e-06
-2.11253e-06
-6.75525e-06
1.35348e-06
7.51428e-06
2.20252e-06
-6.89889e-06
-3.02888e-06
7.72524e-06
-6.99975e-06
1.86022e-06
-2.50746e-06
7.64704e-06
4.62846e-07
4.92501e-06
1.55259e-06
4.99036e-06
-6.64005e-06
5.34922e-07
-2.60966e-06
7.72779e-06
5.0183e-06
7.43718e-07
6.07646e-07
1.1051e-06
8.72245e-07
4.53451e-06
7.35054e-07
4.79445e-06
9.9117e-07
-6.83559e-06
5.6764e-07
5.20738e-06
1.06056e-06
-1.66853e-06
6.00931e-06
6.77509e-07
5.89915e-06
-1.73736e-06
9.11048e-07
4.89683e-06
5.26073e-06
-5.88058e-06
-6.54354e-06
5.5087e-06
-6.92992e-07
5.57234e-06
-6.67918e-06
1.98473e-06
4.82033e-06
-5.93283e-06
6.9528e-06
-1.01457e-06
-1.12659e-06
6.9208e-06
-5.95069e-06
5.10122e-06
6.09682e-06
8.31416e-07
-2.39375e-06
5.482e-07
-2.08221e-06
-2.19124e-06
6.43356e-07
-4.57948e-06
8.7892e-07
-3.19832e-06
1.62887e-06
7.11373e-06
-2.64579e-06
7.0739e-06
1.7574e-06
7.76855e-07
7.32337e-06
-4.97118e-06
8.23471e-06
-1.45438e-06
7.60644e-06
-8.62654e-07
7.91393e-06
6.6652e-06
2.49062e-06
2.47086e-06
6.72914e-06
7.7456e-06
-5.47434e-06
5.89453e-06
-7.31586e-06
-6.68855e-06
-5.05594e-06
5.64284e-06
5.7215e-06
-5.02507e-06
-8.22723e-06
6.09232e-06
-5.00688e-06
5.50981e-06
-6.59524e-06
1.13487e-06
-1.21005e-05
5.49136e-06
-1.22034e-05
1.25849e-06
-7.26669e-06
-5.22343e-06
-4.41743e-06
-5.06645e-06
4.56473e-06
-4.2329e-06
-4.38818e-06
4.07659e-06
4.28799e-06
-4.99136e-06
-4.4607e-06
4.43736e-06
-4.50647e-06
-4.05031e-06
4.11944e-06
1.08628e-07
-8.63254e-06
4.1065e-06
-8.96254e-06
2.19936e-07
-4.4151e-06
-4.4546e-06
-4.99671e-06
5.40574e-06
-7.66089e-06
-5.88108e-06
4.59128e-06
-4.63118e-06
4.62505e-06
-4.86879e-06
-6.20256e-06
5.71092e-06
4.62481e-06
-4.37895e-06
-5.95675e-06
1.2826e-06
-1.11616e-05
4.88229e-06
-1.08365e-05
1.38596e-06
-6.83662e-06
-4.8255e-06
-4.06047e-06
5.02397e-06
4.9405e-06
-5.90401e-06
-4.55167e-06
4.32212e-06
-3.68145e-06
3.91099e-06
4.61159e-06
5.02465e-06
-4.40927e-06
-5.22693e-06
4.31679e-06
-3.83357e-06
4.26592e-06
-4.74923e-06
3.28077e-07
-8.47882e-06
4.09025e-06
-8.95668e-06
4.73308e-06
4.19088e-07
-4.58112e-06
-3.926e-06
-1.04063e-05
3.89076e-07
4.96131e-06
5.50487e-06
1.29988e-06
-1.18298e-05
3.51757e-07
-1.00951e-05
4.73641e-06
4.54236e-06
1.98322e-07
-9.02276e-06
4.28206e-06
-5.76751e-06
-5.15469e-06
5.15895e-07
-5.48608e-06
-5.37187e-06
4.7595e-06
-1.05062e-05
-9.97938e-06
4.48374e-06
-8.79189e-06
-5.44941e-07
-9.84717e-06
6.42068e-06
-1.13881e-05
-4.44767e-06
-5.01579e-06
-4.37903e-06
-4.71646e-06
-9.64042e-06
-5.9516e-06
1.33824e-06
-7.21644e-06
6.18934e-07
-5.69006e-06
-4.97347e-06
2.72826e-07
1.01125e-05
6.47748e-07
-5.73558e-06
5.10759e-06
-4.58461e-06
-6.47461e-06
-4.77971e-06
5.0201e-06
5.07762e-07
-4.64412e-06
9.759e-06
-4.4865e-06
-4.42899e-06
-4.09004e-06
-7.09866e-07
-4.54601e-06
-5.08444e-06
5.3226e-06
5.18234e-06
-5.02768e-06
-4.27437e-06
2.48812e-06
1.9969e-07
-2.6878e-06
5.15807e-07
2.74413e-06
-3.25994e-06
-2.92551e-06
3.33513e-06
-4.09633e-07
-4.21615e-07
2.81796e-06
7.64181e-07
-3.16051e-06
2.45709e-06
4.32348e-06
-4.29245e-06
2.9729e-06
3.02051e-06
8.81353e-07
3.0679e-06
2.7097e-06
5.99908e-07
-3.30962e-06
3.93487e-07
2.85567e-06
-3.24917e-06
-3.0835e-06
3.328e-08
3.05024e-06
-1.80772e-07
7.45359e-07
2.6118e-06
-3.17633e-06
2.63089e-06
3.48666e-06
-3.40785e-06
3.02438e-06
3.0939e-06
2.11986e-07
3.03478e-06
3.04493e-06
-3.1628e-06
1.17862e-07
1.84592e-07
-3.3685e-06
3.18391e-06
-3.39946e-06
2.27179e-07
3.17227e-06
-2.44348e-08
-3.24612e-06
3.05305e-07
2.96525e-06
2.96964e-06
3.19845e-06
-3.12315e-06
3.15423e-06
3.40661e-06
-2.32605e-07
3.16137e-06
1.90873e-06
-2.49684e-07
7.50667e-07
-2.4097e-06
1.0232e-06
-2.87729e-07
1.89279e-06
-2.62823e-06
-2.80457e-06
-2.78943e-07
9.08672e-07
2.17481e-06
-2.68687e-07
9.34906e-07
1.76097e-06
-2.4272e-06
1.73575e-06
2.6456e-06
-2.47262e-06
3.07184e-06
-3.12896e-07
1.60033e-06
7.7657e-07
1.86759e-06
3.87302e-06
2.63482e-06
-3.76371e-06
-3.2768e-06
3.06795e-06
3.54399e-06
2.50668e-06
3.2338e-06
-2.9225e-06
-2.7542e-06
2.50968e-06
3.39495e-06
-3.1504e-06
3.9853e-07
2.29438e-07
3.24504e-06
1.89638e-07
6.52948e-07
-3.17766e-06
3.34929e-06
3.23473e-06
-9.59186e-08
3.35097e-06
-3.0521e-06
3.08541e-06
-2.98664e-08
3.09782e-06
3.24778e-06
3.23199e-06
3.36386e-06
3.20213e-06
3.5139e-06
1.55862e-07
3.21977e-06
1.6836e-07
2.56004e-06
4.24082e-07
6.69622e-07
2.43762e-06
-3.30872e-06
2.68332e-06
3.46463e-07
-3.14884e-06
2.98841e-06
3.16305e-07
2.7605e-06
-3.11722e-06
2.79693e-06
3.15481e-06
-3.24279e-06
2.68001e-06
3.27089e-06
2.51771e-06
-3.38031e-06
3.09724e-06
2.19577e-09
2.94999e-08
-4.43643e-07
1.63093e-07
2.99035e-06
3.37748e-06
7.38893e-07
-4.11638e-06
4.34369e-07
2.7433e-06
-3.17767e-06
-3.07314e-06
3.25471e-06
-1.81566e-07
-4.17084e-07
2.63137e-06
4.34871e-07
-2.64916e-06
2.64174e-06
4.23082e-06
-3.49508e-06
3.07611e-06
3.38109e-06
4.32643e-07
3.38405e-06
3.09396e-06
-1.08924e-07
-2.98504e-06
-2.67126e-07
3.28854e-06
-3.02142e-06
-2.94273e-06
-3.06149e-07
3.24889e-06
-4.59855e-08
3.77032e-07
2.5965e-06
-2.92755e-06
3.15938e-06
2.94044e-06
-3.00585e-06
2.89225e-06
3.30726e-06
-4.12807e-07
3.25678e-06
3.2417e-06
-3.00774e-06
-2.33959e-07
-2.46286e-07
-2.90165e-06
3.14793e-06
-3.04783e-06
-1.94565e-07
3.24239e-06
2.15139e-08
-2.60819e-06
-1.92592e-07
2.77926e-06
3.1403e-06
3.03691e-06
-2.93551e-06
2.89402e-06
3.40302e-06
-3.44595e-07
3.24921e-06
1.99558e-06
-1.75357e-07
8.23907e-08
-1.90262e-06
-3.21035e-08
-2.41406e-07
2.41939e-06
-2.14589e-06
-2.11325e-06
-2.30908e-07
2.64e-08
2.31775e-06
4.65079e-08
-6.63099e-10
1.93894e-06
-1.98478e-06
2.11921e-06
1.85195e-06
-1.97559e-06
2.30762e-06
-2.20507e-07
1.96498e-06
-6.6523e-08
2.15935e-06
3.14129e-06
2.55651e-06
-2.9545e-06
-3.05951e-06
3.03519e-06
3.27903e-06
2.42917e-06
2.87879e-06
-2.67659e-06
-2.42248e-06
2.34518e-06
2.75412e-06
-2.67682e-06
-2.86174e-07
9.62135e-08
3.33124e-06
3.83662e-08
3.39584e-07
-2.66584e-06
2.80712e-06
2.44759e-06
1.14898e-07
2.60732e-06
-3.14206e-06
2.83592e-06
2.43272e-07
2.79192e-06
3.05716e-06
2.72168e-06
2.75925e-06
2.96495e-06
2.58214e-06
7.64059e-08
3.46876e-06
-2.6614e-07
2.49136e-06
2.12074e-07
3.63053e-07
2.14966e-06
-2.97438e-06
2.69306e-06
5.04119e-08
-2.73977e-06
3.00288e-06
-1.867e-07
2.55871e-06
-2.70125e-06
2.72975e-06
3.25294e-06
-2.52974e-06
2.61462e-06
2.35982e-06
2.39717e-06
-3.18844e-06
3.12271e-06
-1.29651e-07
4.47082e-07
7.03697e-08
-1.59214e-07
2.27098e-06
-2.93963e-06
1.20831e-06
3.96572e-06
-3.63762e-06
1.59499e-06
-2.3102e-06
-3.88422e-06
1.73379e-06
1.2884e-06
-3.42384e-06
-1.8369e-06
1.41477e-06
4.83124e-07
1.64577e-06
-1.75141e-06
-3.57845e-06
-3.75563e-06
3.54061e-06
1.73013e-06
2.69026e-06
1.78947e-06
-3.21553e-06
-1.53045e-06
3.25252e-06
2.37258e-06
-4.09457e-06
1.86388e-06
3.3194e-06
-3.80756e-06
-1.84636e-06
-2.81166e-07
-1.38222e-06
2.22614e-06
-2.06626e-06
3.64891e-06
-4.97893e-06
-5.05891e-06
-1.97719e-06
2.40497e-06
4.02064e-06
-1.8872e-06
2.95251e-06
-5.08589e-06
-2.41994e-06
3.45094e-06
-5.89974e-06
3.14207e-06
-1.97896e-06
-5.54199e-06
-2.25135e-06
-7.18979e-07
-2.08846e-06
-1.64628e-06
3.41563e-06
-2.40239e-06
-6.4686e-06
-3.6053e-06
1.50086e-06
3.22841e-06
1.82086e-06
-3.80837e-06
-1.52046e-06
2.11146e-06
-5.00022e-06
1.74428e-06
-4.63282e-06
-2.03763e-06
-5.47314e-08
-6.51552e-07
1.84244e-06
-2.23643e-06
-4.40844e-06
1.91233e-07
-1.9219e-06
-2.22787e-06
-2.16247e-06
5.06412e-07
-1.93369e-06
3.9612e-07
3.8939e-06
-2.00534e-06
-3.2043e-07
3.95252e-06
-1.85876e-06
-1.90245e-06
-1.85383e-06
3.54472e-06
-2.42995e-07
-2.12516e-07
1.83134e-06
1.98073e-06
-6.66459e-07
2.06105e-06
-1.61851e-06
2.81e-06
-4.03915e-06
-3.33631e-07
2.21032e-06
-3.88752e-06
1.77235e-06
1.74211e-06
-4.3711e-06
2.10429e-06
-5.6794e-07
-1.83779e-06
-2.20182e-06
-2.1931e-06
3.93097e-06
-2.43052e-06
4.91921e-07
-2.86705e-06
-1.76264e-06
-4.34963e-06
-4.19875e-06
-1.57465e-06
-2.28309e-06
-4.51262e-06
5.51833e-07
-5.39775e-06
1.61889e-06
-4.71574e-06
2.52121e-06
-6.02692e-06
-2.25099e-06
-4.35009e-06
-3.9822e-06
-2.3968e-06
-4.76009e-06
5.82942e-06
-3.13952e-06
-1.41133e-06
-1.27863e-06
-1.00628e-06
6.31143e-06
-2.86475e-06
-2.44045e-06
-2.06015e-06
6.16405e-06
-3.08055e-06
-1.02344e-06
-2.8676e-06
6.26648e-06
-9.65081e-07
-2.43389e-06
2.93677e-06
4.86826e-06
-1.97569e-06
5.03493e-06
-3.1045e-06
3.1374e-06
-1.1368e-06
6.11215e-06
7.0746e-06
-8.04331e-07
-2.74035e-06
-3.52998e-06
-8.44907e-07
-2.90437e-06
-4.22772e-06
-3.69547e-06
-7.62237e-07
-3.18918e-06
-2.81352e-06
-5.56983e-07
-4.46491e-06
4.57219e-06
6.74582e-06
-4.24335e-06
6.79526e-06
-3.06797e-06
4.59592e-06
-6.63653e-07
6.56537e-06
-2.27373e-06
-3.35633e-06
-9.35306e-07
-8.55126e-07
-2.90006e-06
-3.48837e-06
-2.39271e-06
-3.66002e-06
-1.06895e-06
-3.29724e-06
-2.99518e-06
-7.87339e-07
3.29753e-06
5.75493e-06
-2.48711e-06
5.98628e-06
-3.54384e-06
3.38751e-06
-9.29759e-07
7.0857e-06
-2.79772e-06
-6.86527e-07
-3.6015e-06
-5.11479e-07
-2.83662e-06
-4.47529e-06
-3.88676e-06
-3.01008e-06
-5.96474e-07
-2.86718e-06
-4.47549e-07
-4.43163e-06
4.45674e-06
6.99386e-06
-4.36485e-06
6.93709e-06
-2.99187e-06
4.68162e-06
-5.54971e-07
5.77819e-06
3.68283e-06
-3.14965e-06
-2.38174e-06
3.17352e-06
5.37218e-06
3.64694e-06
5.82771e-06
-3.20823e-06
-7.12843e-06
4.48053e-06
6.80352e-06
-4.15564e-06
-7.85411e-07
2.86283e-06
3.70072e-06
2.945e-06
-7.21398e-07
-3.54422e-06
5.87051e-06
5.91029e-06
-3.0319e-06
-2.95596e-06
6.87946e-06
-3.79759e-06
6.28637e-06
-3.25113e-06
7.91811e-07
5.54723e-06
-3.16565e-06
6.76373e-06
2.8472e-06
3.14408e-06
6.78254e-06
-3.14362e-06
6.12904e-06
3.05356e-06
3.23814e-06
-9.19473e-07
3.85589e-06
-8.25987e-07
-6.1627e-07
4.58315e-06
-6.1457e-06
3.86322e-06
-7.27631e-07
-2.94606e-06
6.73455e-06
-7.3497e-07
6.78031e-06
-3.17218e-06
3.761e-06
6.51159e-06
-6.30543e-06
3.74491e-06
-3.85019e-06
3.20977e-06
8.14695e-07
6.65351e-07
3.09355e-06
6.4126e-06
-4.42954e-06
-1.35147e-06
-6.31624e-07
-1.45237e-06
6.59337e-06
-4.52271e-06
-6.18297e-07
-4.54206e-06
6.68366e-06
-1.56356e-06
-5.78063e-07
-3.69523e-07
6.67977e-06
-4.66997e-06
-1.64028e-06
5.89524e-06
4.97457e-06
-4.45719e-06
5.0186e-06
-5.75724e-07
6.12919e-06
-1.52415e-06
6.60572e-06
6.9638e-06
-1.52628e-06
-4.78835e-06
-6.49176e-07
-1.58368e-06
-5.42438e-06
7.6441e-06
-6.36036e-07
-5.13406e-06
-1.71865e-06
7.36399e-06
-5.11261e-07
-2.87829e-07
-1.76801e-06
-5.25411e-06
7.30998e-06
6.65302e-06
5.39285e-06
-5.08203e-06
5.61038e-06
-5.41017e-07
6.88017e-06
-1.77513e-06
7.35649e-06
6.98731e-06
-4.70088e-06
-1.79628e-06
-4.9016e-07
-1.91807e-06
-5.07532e-06
7.3796e-06
-3.86264e-07
-5.07172e-06
7.48848e-06
-2.06258e-06
-3.54142e-07
2.05749e-08
-5.21761e-06
7.4073e-06
-2.21027e-06
6.77237e-06
5.1324e-06
-4.9174e-06
5.23675e-06
-3.82423e-07
7.20125e-06
-2.04824e-06
7.36628e-06
6.9766e-06
7.18747e-09
-5.00963e-06
-1.97417e-06
-2.05135e-06
2.96805e-08
-5.22441e-06
7.2461e-06
-5.36211e-06
2.7404e-07
7.40515e-06
-2.31708e-06
4.87668e-07
-5.45099e-06
7.37877e-06
-2.41539e-06
7.20148e-06
4.93544e-06
-5.16026e-06
5.0605e-06
8.96415e-08
7.6348e-06
-2.21168e-06
7.3332e-06
5.09323e-06
6.18579e-06
-4.6857e-06
-4.64075e-06
6.35102e-06
4.97339e-06
6.49023e-06
4.95146e-06
-4.76193e-06
-6.90437e-06
6.78709e-06
5.16202e-06
-5.04477e-06
-1.70192e-06
2.93969e-07
6.50116e-06
2.63047e-07
-1.73368e-06
-4.87673e-06
5.0196e-06
5.23963e-06
-5.80113e-07
-2.63113e-07
5.28219e-06
-6.69115e-06
5.39758e-06
-4.2512e-07
1.73472e-06
5.10306e-06
-4.86781e-07
6.91872e-06
4.82204e-06
4.88047e-06
7.03928e-06
-4.82535e-07
5.22859e-06
1.53489e-07
6.57818e-06
-1.75831e-06
6.81723e-06
-1.85859e-06
-1.99959e-06
7.1913e-06
-5.00102e-06
7.43228e-06
-2.15724e-06
-4.91068e-06
6.99558e-06
-1.93141e-06
6.92616e-06
-5.01621e-06
7.01077e-06
6.98035e-06
-5.11531e-06
7.32999e-06
5.19838e-06
7.27509e-06
-7.05331e-06
7.37556e-06
9.59413e-08
1.96701e-06
1.9914e-06
1.42275e-07
7.33206e-06
-2.24201e-06
-3.01219e-06
5.25425e-06
5.26376e-06
-2.31834e-06
-2.94532e-06
-2.84408e-06
-2.78019e-06
5.62432e-06
-2.84772e-07
-2.26292e-06
-2.61264e-06
5.16033e-06
-2.34291e-06
3.19871e-06
-3.09778e-06
2.92086e-06
-2.46808e-06
5.38204e-06
-2.39126e-06
-2.48866e-06
5.54424e-06
-3.05561e-06
6.99534e-06
-3.06581e-06
-3.9295e-06
-3.08742e-06
7.77757e-06
-4.69015e-06
-5.76899e-07
6.10982e-06
-2.87539e-06
-2.65752e-06
-3.01756e-06
4.1222e-06
-3.59332e-06
3.97779e-06
-3.32241e-06
6.86772e-06
-2.43204e-06
-4.48943e-06
-3.19317e-06
7.68264e-06
8.72941e-06
-2.76944e-06
-5.95995e-06
-3.13874e-06
-5.23104e-06
8.36977e-06
-6.39583e-07
-3.31494e-06
-3.23409e-06
7.18863e-06
-5.18507e-06
4.08126e-06
-3.38561e-06
3.54435e-06
-4.63276e-06
8.07445e-06
-4.22715e-06
-2.07802e-06
-4.81437e-07
-2.18721e-06
4.74666e-06
4.75718e-06
-5.58466e-07
-2.18286e-06
-2.01587e-06
-2.24864e-06
-6.29456e-07
-2.37841e-06
5.25648e-06
-6.06884e-07
-1.48683e-06
-2.09138e-06
4.18513e-06
-2.63897e-06
2.76036e-06
-2.19948e-06
2.71473e-06
-5.96557e-07
-2.44623e-06
4.5997e-06
-1.98015e-06
3.24997e-06
-2.47524e-06
-3.09299e-06
-3.00325e-06
-3.19777e-06
3.42085e-06
-2.73919e-06
3.08355e-06
-2.60729e-06
2.66308e-06
-3.34464e-06
3.33904e-06
-2.65756e-06
5.782e-06
3.13012e-07
-2.84503e-06
3.87495e-07
5.53006e-06
-2.55398e-06
3.17836e-06
3.069e-06
-7.3451e-07
3.49967e-06
4.2375e-06
3.54009e-06
-6.6588e-06
3.46104e-06
-2.75339e-06
2.97738e-06
3.37983e-06
-3.68139e-06
3.93595e-06
4.67487e-07
-3.63324e-06
6.58662e-06
-2.8022e-06
5.4043e-06
6.08429e-06
-3.30374e-06
-3.6105e-06
-3.45727e-06
6.43834e-06
-2.99747e-06
-2.66587e-06
6.13083e-06
-2.62131e-06
-2.86642e-06
-3.40993e-06
-3.36534e-06
-3.79704e-06
-2.97513e-06
2.95028e-06
-2.75437e-06
3.95661e-06
-3.18596e-06
6.25461e-07
-7.3764e-06
-6.58153e-06
5.16154e-07
-3.11506e-06
3.52358e-07
2.69977e-06
-4.12285e-07
2.63343e-06
4.21786e-08
-3.57203e-08
-1.4881e-08
-1.21012e-07
2.77605e-06
-2.89649e-06
1.16464e-06
2.79281e-06
-1.06122e-06
-2.5551e-06
3.47908e-06
-5.71906e-07
2.71851e-06
-2.31314e-06
2.8957e-06
3.90486e-07
-1.34042e-07
2.73687e-06
3.71703e-08
2.78217e-06
-2.47986e-07
1.05975e-07
1.25017e-07
2.75643e-06
-2.41266e-07
-2.78384e-06
2.72737e-06
3.69832e-07
-3.13375e-07
-2.86074e-06
2.95235e-06
-2.25641e-07
2.56164e-06
-2.6626e-06
2.83115e-06
2.40747e-08
-2.39969e-07
9.67033e-08
2.78334e-06
2.79407e-06
1.23503e-07
-2.77485e-07
1.32069e-07
-2.9185e-07
2.79987e-06
-2.77138e-06
-5.11154e-07
3.98231e-07
2.88426e-06
-2.91607e-06
2.91564e-06
-2.39696e-07
2.51816e-06
-2.69526e-06
2.83946e-06
-4.50841e-08
1.50437e-06
-3.04988e-06
2.87327e-06
-1.32811e-06
2.94356e-06
-3.05941e-06
8.93105e-07
-7.77365e-07
-9.30968e-07
-3.06516e-06
9.9142e-07
3.0046e-06
-3.53859e-06
1.28443e-06
3.2733e-06
-1.01908e-06
-1.94718e-06
4.43734e-06
-9.85974e-07
4.0596e-06
-3.06329e-06
-2.09652e-06
2.99521e-06
1.03208e-06
3.10064e-06
-2.78203e-06
-2.7654e-07
-3.85871e-07
-2.83094e-06
3.09574e-06
-1.87899e-06
4.17807e-06
-1.13454e-06
-7.36972e-07
-2.19933e-06
3.68854e-06
-7.52228e-07
2.80673e-06
2.67729e-06
-2.38337e-06
2.81133e-06
2.55399e-06
-6.13693e-07
3.48632e-06
2.59505e-06
-2.80535e-06
3.3334e-06
2.87371e-06
2.52292e-06
-2.72867e-06
2.53786e-06
2.70816e-07
-5.9142e-08
2.9661e-07
-1.47615e-07
3.02269e-06
2.78826e-06
-2.49473e-06
2.80214e-06
-1.75914e-06
2.88729e-06
2.84503e-06
-2.21595e-06
-3.78741e-06
-2.2184e-06
2.9406e-06
-6.69899e-07
6.96766e-07
2.76135e-06
1.05725e-06
-8.38988e-07
-2.25172e-06
1.39793e-07
-3.34183e-06
6.12241e-07
4.51705e-07
6.65736e-07
2.68129e-06
-3.49485e-08
2.83464e-06
-2.93458e-06
-2.75891e-06
2.7694e-06
4.62198e-07
6.01038e-07
-3.37916e-06
-1.65144e-06
4.43159e-06
5.69653e-07
-3.36916e-06
-1.63214e-06
-1.76224e-06
6.01287e-07
-3.36177e-06
-3.29685e-06
5.27758e-07
-1.90088e-06
-2.72353e-06
5.07171e-06
-1.74716e-06
5.05452e-06
-3.34646e-06
-2.68233e-06
6.09949e-07
5.406e-07
4.4523e-06
-3.36355e-06
-1.62941e-06
4.46146e-06
-3.35162e-06
5.26461e-07
-1.63637e-06
-1.79422e-06
4.66215e-06
-3.3439e-06
4.75943e-07
-3.23602e-06
4.66303e-06
4.51008e-07
-1.87805e-06
-2.74398e-06
5.08728e-06
-1.80273e-06
5.03565e-06
-3.31819e-06
-2.75569e-06
4.60694e-06
4.8573e-07
5.74157e-07
-1.86012e-06
-3.50241e-06
4.93953e-06
-1.89236e-06
-3.53458e-06
4.87341e-07
-2.00037e-06
-3.9076e-06
4.83584e-07
-3.609e-06
-2.09252e-06
4.47419e-07
-2.98593e-06
5.59143e-06
-2.03136e-06
5.63783e-06
-3.68422e-06
-3.09959e-06
5.37861e-07
3.89635e-07
-3.20475e-06
-2.19452e-06
4.95476e-06
-3.1293e-06
3.62624e-07
-2.18807e-06
-2.26087e-06
-3.32282e-06
3.59275e-07
-3.13459e-06
3.26621e-07
-2.64299e-06
-2.73063e-06
5.55619e-06
-2.43591e-06
5.38415e-06
-3.16e-06
-2.73863e-06
3.84674e-07
5.09065e-06
-2.73582e-06
-1.7852e-06
-1.92955e-06
-2.75672e-06
5.28756e-06
-2.6966e-06
5.25666e-06
-2.03231e-06
-4.60587e-07
-2.71326e-06
5.2547e-06
-2.08087e-06
4.57695e-06
3.24992e-06
-2.73622e-06
3.25735e-06
4.62537e-06
-1.83604e-06
5.18613e-06
5.04842e-06
-3.33194e-06
-3.21169e-06
5.16146e-06
2.81943e-06
5.23582e-06
-3.39312e-06
-4.57523e-06
5.2158e-06
-3.3973e-06
5.34029e-07
1.77817e-06
1.92928e-06
5.46248e-07
-3.34331e-06
5.29495e-06
3.37567e-06
-2.77383e-06
-2.71001e-06
4.85516e-06
-2.72977e-06
-5.51231e-06
-2.85529e-06
-1.97014e-06
4.69079e-07
5.05991e-07
-2.20115e-06
-2.84209e-06
5.81846e-07
-5.43153e-06
4.83732e-07
1.9967e-06
4.34984e-07
2.85505e-06
4.88399e-07
3.40819e-06
-4.85773e-06
-4.86544e-06
3.29228e-06
4.23546e-07
4.9005e-06
1.63653e-07
-2.741e-06
-2.32311e-06
-2.51097e-06
5.46066e-06
-1.55576e-07
-2.79423e-06
2.13429e-07
4.83652e-06
-2.70068e-06
-2.34929e-06
-2.59978e-06
5.47661e-06
-2.045e-07
-2.67235e-06
2.48333e-06
2.42689e-06
-9.83566e-09
2.57717e-06
-2.60482e-06
2.43256e-06
-2.60548e-06
5.22316e-06
5.96756e-06
-2.14818e-06
-2.09007e-07
-3.61035e-06
-1.70586e-06
2.77668e-07
-4.72355e-06
-9.08439e-08
-2.10957e-06
-3.98892e-06
-3.97867e-06
-2.36336e-06
-3.38595e-07
1.95661e-06
3.99296e-06
1.80201e-08
4.59122e-06
-4.34045e-06
2.20399e-06
-2.18966e-06
4.83117e-06
2.29742e-07
-2.70776e-06
-2.35311e-06
-2.32298e-06
-9.41017e-08
-3.04251e-06
1.53421e-07
-2.71486e-06
-2.38774e-06
-2.64754e-06
-1.44237e-07
-2.55344e-06
2.37492e-06
2.44093e-06
1.53124e-08
2.66763e-06
-2.61569e-06
2.40876e-06
-2.61537e-06
6.28097e-06
-2.80798e-06
-5.1223e-07
-2.96082e-06
-2.9469e-06
-3.2815e-06
-5.34544e-07
-5.18964e-07
-2.76955e-06
-2.78291e-06
-2.80439e-06
-1.08252e-06
-3.57913e-06
3.56735e-06
3.3991e-06
-6.85525e-07
3.647e-06
-3.02655e-06
3.71184e-06
-3.11716e-06
3.29062e-06
2.38113e-06
-2.11016e-07
1.29428e-08
2.39623e-06
2.42728e-06
2.7537e-06
3.0364e-06
-3.13401e-07
-6.06443e-06
2.82907e-06
3.53669e-06
-3.01225e-07
-2.41079e-06
3.1708e-06
2.53063e-06
2.82532e-06
-2.49631e-06
-3.97204e-07
3.08272e-06
3.59504e-06
-3.36209e-06
-3.61717e-06
4.0829e-06
-2.3181e-06
3.59564e-06
-3.3871e-06
2.38251e-06
2.62178e-06
-2.60805e-06
6.05617e-06
6.95578e-08
2.4936e-07
5.3634e-06
-2.91136e-06
3.29465e-06
2.64441e-06
2.38746e-06
-2.6046e-06
2.98915e-06
-2.76072e-06
-2.66078e-06
2.91599e-06
-2.95316e-06
2.8437e-06
-2.66011e-06
-1.05337e-07
5.36849e-06
-2.61874e-06
5.96653e-06
-2.79194e-07
2.69451e-06
5.23897e-06
-3.18113e-06
3.19695e-07
-2.4313e-06
2.89918e-06
2.3551e-06
2.41255e-06
3.21844e-06
3.39786e-06
-8.49753e-07
-1.32918e-07
-8.4147e-07
3.3906e-06
-1.33935e-07
-1.2348e-07
3.39392e-06
-8.55245e-07
-2.44984e-06
3.46825e-06
-8.81655e-07
-1.36772e-07
9.77056e-07
2.54937e-06
-1.28581e-07
2.55079e-06
9.63347e-07
-8.63819e-07
3.39066e-06
3.38413e-06
-8.38119e-07
-1.30793e-07
-8.39312e-07
-1.24654e-07
-1.10938e-07
-8.43022e-07
-2.45145e-06
-8.16068e-07
-9.42635e-08
9.61577e-07
2.53912e-06
-1.16566e-07
2.53746e-06
9.19942e-07
-8.32275e-07
3.37132e-06
-1.07502e-07
-8.48593e-07
-8.53237e-07
-9.51221e-08
-7.86307e-08
-8.57796e-07
-2.45572e-06
-1.94346e-08
-8.68752e-07
9.52442e-07
2.48738e-06
-6.8508e-08
2.5144e-06
8.82419e-07
-8.50757e-07
3.67976e-06
-2.58631e-06
-9.54308e-07
-1.39141e-07
-8.62919e-07
-2.54911e-06
-9.03878e-08
-3.52711e-08
-2.55689e-06
-9.42431e-07
-2.75681e-06
-1.0488e-06
-1.02e-07
9.98811e-07
2.76719e-06
-8.62462e-08
2.70138e-06
-2.5655e-06
1.01811e-06
-1.00774e-06
2.54813e-06
9.66864e-07
-1.24381e-07
-9.83682e-08
9.6333e-07
2.52896e-06
9.47195e-07
2.64281e-06
-1.21741e-07
-3.40027e-06
9.10375e-07
2.59591e-06
-1.06014e-07
-8.4487e-07
2.44619e-06
9.46813e-07
2.44742e-06
-8.22332e-07
-1.31747e-07
2.57229e-06
2.54395e-06
-2.44799e-06
2.5423e-06
-9.57477e-07
2.52964e-06
8.39662e-07
2.53889e-06
3.37209e-06
1.18688e-07
9.18209e-08
3.37355e-06
2.50789e-06
2.45765e-06
9.40368e-07
-8.69052e-07
9.88256e-07
-9.31761e-07
-8.6679e-07
9.13591e-07
-2.53515e-06
8.80607e-07
-9.02357e-07
-7.84724e-08
3.38831e-06
-8.52195e-07
3.48207e-06
-4.97874e-08
9.02953e-07
3.37175e-06
-2.53195e-06
5.85938e-08
-8.97416e-07
2.46047e-06
8.42774e-07
8.31472e-07
2.45325e-06
1.03871e-07
-4.19162e-06
4.67051e-06
-3.55752e-06
-3.55947e-08
4.49566e-06
4.19443e-06
-2.13945e-07
-3.4356e-06
-6.82275e-07
-2.34275e-08
-3.8348e-06
4.54041e-06
-7.81278e-07
-3.70374e-06
4.58878e-06
-3.6632e-06
-6.42914e-07
-3.74312e-06
-1.11707e-07
-4.22619e-08
-3.11404e-06
4.5097e-06
-2.7783e-06
4.44501e-08
4.59404e-06
4.22234e-06
-2.7343e-06
-7.40792e-08
-1.31137e-06
-3.16409e-06
-8.25689e-08
4.55798e-06
-1.53591e-06
-3.03667e-06
4.53021e-06
-2.76165e-06
-1.46581e-06
-2.88226e-06
-5.13604e-09
-4.46112e-07
3.85446e-06
-3.00652e-06
-2.78522e-06
3.89151e-06
-3.14051e-07
3.64873e-06
-2.91791e-06
-6.0731e-07
-3.76594e-07
3.84042e-06
-3.01278e-06
-4.51075e-07
-8.91482e-07
-3.38828e-06
3.83361e-06
-3.29165e-06
-8.33612e-07
-2.93129e-06
-4.76545e-07
-1.04186e-07
-6.88835e-07
-3.7131e-06
4.50604e-06
-3.47607e-06
-8.75545e-07
-2.00972e-07
4.5526e-06
4.13123e-06
-5.64099e-07
-3.28382e-06
-2.83353e-07
-6.45889e-07
-3.68549e-06
-1.99291e-07
4.53062e-06
-8.53655e-07
-3.69513e-06
4.4445e-06
-3.56299e-06
-7.66771e-07
-8.06321e-07
-3.53472e-06
-2.38079e-07
-3.37624e-06
-1.16813e-06
4.50874e-06
4.14065e-06
-9.1038e-07
-3.44426e-06
-8.43585e-07
-3.66444e-06
4.48447e-06
6.53198e-08
-1.14566e-06
-3.39926e-06
4.47957e-06
-3.26327e-06
9.37041e-07
-1.05007e-06
7.65655e-07
-3.46539e-06
4.46772e-06
-3.54337e-06
-3.22165e-06
-1.12531e-06
-3.18449e-06
1.2069e-06
-2.95005e-06
3.04271e-06
-3.34548e-06
-1.21612e-07
-4.15014e-06
-4.12918e-06
-1.9639e-07
-3.1187e-06
5.93116e-07
-8.3174e-07
-3.20566e-06
-7.84507e-07
-3.5688e-06
-3.20066e-06
-1.07415e-06
3.4493e-06
-8.61833e-07
-3.15161e-06
4.1591e-06
-2.4348e-07
-3.32255e-06
-1.68777e-07
4.13621e-06
-9.30398e-07
-3.22753e-07
3.33465e-06
-3.56069e-07
-4.11467e-06
-1.43964e-07
1.1302e-06
-1.88756e-07
6.44711e-07
2.86612e-06
3.04896e-06
8.77614e-07
-1.88087e-07
-5.84905e-06
2.09703e-07
5.11399e-06
5.25384e-07
2.54127e-07
-5.73628e-06
4.88629e-06
5.95834e-07
5.95044e-07
-5.32017e-06
2.28633e-07
4.49645e-06
4.95931e-06
-5.54508e-06
2.24238e-07
3.61559e-07
-7.90991e-07
-5.47698e-06
4.18927e-07
-5.33444e-06
4.7976e-06
-7.47534e-07
2.29873e-07
-5.48692e-06
-5.70412e-06
3.66257e-07
4.73441e-06
6.03415e-07
4.51258e-07
-5.69012e-06
4.59976e-06
6.39101e-07
6.26587e-07
4.81864e-07
-5.54991e-06
4.44149e-06
4.55391e-06
3.30979e-07
-5.36928e-06
4.84454e-07
-1.04387e-06
-5.19582e-06
5.35579e-07
-5.21567e-06
4.62305e-06
-9.78666e-07
3.36778e-07
-5.56777e-06
-5.16464e-06
6.38224e-07
3.23806e-07
4.20254e-06
4.69109e-07
6.40404e-07
-5.35795e-06
4.2484e-06
7.25169e-07
-5.1805e-06
4.13958e-07
4.04135e-06
3.94297e-06
6.18366e-07
-4.83318e-06
2.71903e-07
-1.12472e-06
-4.70274e-06
6.62798e-07
-4.86566e-06
4.21003e-06
-1.08418e-06
3.24408e-07
-5.2247e-06
-5.15262e-06
4.73562e-06
1.55177e-07
2.61792e-07
2.21152e-07
4.4745e-06
-5.04537e-06
3.49612e-07
4.29091e-07
4.07491e-06
-4.70879e-06
2.04834e-07
4.42182e-06
-4.78352e-06
1.47086e-07
2.14653e-07
-5.93118e-07
-4.80644e-06
2.46892e-07
-4.88286e-06
4.51087e-06
-5.65727e-07
1.81083e-07
-5.01953e-06
-5.32527e-06
-9.23743e-07
5.12725e-07
5.81387e-07
-9.46466e-07
-4.95509e-06
-6.83658e-07
-5.17526e-06
3.13868e-07
5.39047e-06
-8.04902e-07
-4.9977e-06
4.12185e-07
2.48992e-07
-4.70316e-06
-8.71062e-07
-4.65652e-06
2.46381e-07
4.40976e-07
-5.09381e-06
-5.25615e-06
4.6987e-06
4.57903e-06
-5.05295e-06
1.07107e-06
-4.99368e-06
4.4045e-06
-3.2842e-07
-4.99535e-06
4.37729e-06
-5.50137e-06
-6.25805e-07
-5.85559e-07
-5.39059e-06
4.43639e-06
-4.90509e-06
-4.32227e-06
-8.72545e-07
2.39703e-07
-6.4395e-07
2.04299e-07
2.55751e-07
-7.78974e-07
4.66236e-06
-8.48475e-07
2.61041e-07
4.99308e-07
-5.03915e-06
2.1759e-07
-5.23847e-06
4.71848e-07
-8.48667e-07
-5.22968e-06
4.77338e-06
-5.0035e-06
-5.48635e-07
-5.28331e-06
1.01231e-06
-5.3656e-06
-4.23075e-06
-3.36176e-07
-3.0607e-07
-4.22897e-06
-5.08371e-06
5.17506e-06
1.46379e-08
2.2988e-06
2.379e-06
5.08615e-06
-8.55451e-08
-7.81388e-06
5.33598e-06
1.16196e-07
2.3617e-06
3.70691e-07
4.94915e-06
2.08745e-06
5.2046e-06
7.33675e-06
7.61606e-06
-3.24524e-08
5.44221e-06
2.26523e-06
5.2444e-06
5.05622e-06
2.55296e-06
-2.45179e-07
2.83917e-06
-3.7558e-07
-7.83746e-06
2.6929e-06
-2.13438e-07
1.41299e-08
2.46267e-06
4.93294e-06
7.47974e-06
8.02791e-06
-2.55829e-07
5.03425e-06
2.4596e-06
5.56385e-06
-8.2524e-06
1.34104e-07
2.55448e-06
2.65064e-06
-8.12959e-06
-7.09536e-08
-8.46061e-06
6.38447e-08
2.70663e-06
3.33977e-07
-8.08157e-06
2.37832e-06
5.68975e-06
7.95431e-06
-8.08021e-06
8.27723e-06
6.31482e-08
5.75115e-06
2.53713e-06
4.81156e-06
6.23381e-07
1.97019e-06
2.17652e-06
3.6079e-07
-7.69816e-06
5.44433e-07
2.10832e-06
7.99455e-07
1.79579e-06
5.38402e-06
6.7607e-06
7.12501e-06
4.3548e-07
5.59267e-06
1.96747e-06
7.35156e-06
5.11012e-06
-7.82098e-06
5.522e-06
7.63501e-06
5.30792e-06
6.97119e-06
-4.86396e-06
5.0702e-06
7.06886e-06
2.32299e-06
-1.92609e-07
5.22118e-06
-2.53598e-07
2.27548e-06
7.3298e-06
7.79306e-06
-1.29978e-07
4.18001e-08
7.49106e-06
-5.32927e-06
8.12532e-06
-1.0318e-07
-2.51765e-06
7.94922e-06
9.04418e-08
5.21635e-06
7.79789e-06
7.71773e-06
5.25694e-06
2.32791e-08
7.64537e-06
-3.7446e-07
5.63682e-06
2.37266e-06
5.52476e-06
2.0698e-06
2.23485e-06
5.19481e-06
-7.36792e-06
5.69023e-06
2.22211e-06
-7.77745e-06
5.16768e-06
2.23531e-06
5.0771e-06
-7.74742e-06
5.54717e-06
5.33362e-06
-7.67468e-06
7.68235e-06
-5.36988e-06
-3.03336e-07
-2.44327e-06
-2.43085e-06
-1.6779e-07
-5.7159e-06
5.23095e-06
6.94667e-07
5.10759e-06
-5.43203e-06
5.48677e-07
8.32442e-07
-5.30181e-06
4.69796e-06
-1.61725e-07
-5.28843e-06
4.75512e-06
6.95005e-07
-5.82861e-06
-5.56781e-07
6.69464e-07
-4.91144e-07
-5.68474e-06
4.9662e-06
-5.34344e-06
-5.10779e-06
4.81592e-06
4.47034e-07
4.55346e-06
-4.81497e-06
4.08618e-07
7.11382e-07
4.25121e-06
-4.75777e-06
-1.21803e-07
4.34679e-06
-4.73309e-06
5.08054e-07