/*--------------------------------*- C++ -*----------------------------------*\
| =========                 |                                                 |
| \\      /  F ield         | OpenFOAM: The Open Source CFD Toolbox           |
|  \\    /   O peration     | Version:  2506                                  |
|   \\  /    A nd           | Website:  www.openfoam.com                      |
|    \\/     M anipulation  |                                                 |
\*---------------------------------------------------------------------------*/
FoamFile
{
    version     2.0;
    format      ascii;
    arch        "LSB;label=32;scalar=64";
    class       volScalarField;
    location    "1500";
    object      p;
}
// * * * * * * * * * * * * * * * * * * * * * * * * * * * * * * * * * * * * * //

dimensions      [0 2 -2 0 0 0 0];

internalField   nonuniform List<scalar> 
49664
(
669.405
635.363
577.063
769.41
670.534
702.776
623.79
588.949
655.974
681.135
414.246
463.866
588.255
619.832
367.503
422.455
338.721
294.922
377.203
567.044
399.732
304.343
479.581
298.171
562.719
432.794
296.827
409.948
520.828
456.049
445.003
353.895
573.702
527.094
803.469
596.667
453.742
538.692
608.409
610.661
679.995
562.827
394.067
438.899
468.407
365.034
493.561
384.062
485.921
634.314
439.991
311.547
451.903
541.34
402.045
465.983
415.229
402.516
442.118
370.094
404.447
359.515
351.494
339.088
957.094
781.553
681.259
774.364
954.325
911.178
789.585
856.384
858.214
789.408
609.968
808.347
775.483
714.047
635.791
581.561
495.592
401.024
460.716
605.33
509.381
462.041
588.694
474.658
717.218
596.367
389.925
465.479
623.54
593.511
525.655
471.422
844.452
699.688
794.261
845.284
638.946
745.207
870.963
690.812
719.247
704.942
588.31
583.106
685.798
537.554
687.907
634.255
569.275
672.331
660.131
404.196
554.751
625.471
473.028
676.938
537.978
400.28
630.218
485.182
538.339
481.756
503.174
467.887
220.24
47.9299
60.1909
172.295
247.634
127.559
264.968
-13.0506
-30.2718
-34.4248
45.0681
-2.05121
-63.0031
12.7964
51.751
-19.9131
78.1297
41.6115
127.61
-3.3517
31.396
54.6376
106.85
47.5067
-70.686
-89.8568
7.21697
-89.907
-89.2951
-74.2319
38.1673
-60.3287
49.4973
3.77023
99.7308
40.5189
-0.702409
8.40547
44.5695
63.5473
44.1353
-0.475947
64.4381
59.4734
68.3579
13.6615
37.8054
67.0174
38.307
172.112
18.1406
-13.0145
-106.005
-24.3252
-72.6466
-49.4821
78.7672
-57.6457
-39.0083
26.996
68.9488
-66.2938
-10.3551
-81.5621
222.597
-4.23988
367.378
64.4857
231.814
230.514
422.253
225.92
24.5291
156.026
77.1867
-2.84896
73.611
116.807
64.7571
77.9816
382.759
488.135
401.85
449.719
468.683
767.825
235.662
658.11
-126.69
12.0496
104.323
-119.735
19.0003
68.5758
-28.7083
24.5479
32.3776
301.595
133.882
-40.1701
63.968
177.903
-105.048
397.946
121.17
-17.4479
237.571
157.701
81.581
49.3361
9.5352
184.444
483.499
192.563
-31.3511
345.248
-121.509
152.108
107.437
35.2391
203.179
-86.3415
-24.8066
61.9313
-95.7815
-198.93
7.05415
-117.13
991.456
803.95
1545.36
386.986
1132.88
857.003
1328.31
1234.9
702.08
550.639
1216.24
-131.914
537.656
704.317
991.025
827.698
1380.57
820.572
1528.93
1088.75
1277.66
1512.06
1201.72
1507.58
40.5031
-169.725
-134.212
-5.80328
207.981
20.1467
537.834
285.498
964.521
1302.95
506.812
485.325
1334.12
1184.79
81.7293
390.964
757.494
155.521
1493.16
1498.69
1227.91
1225.54
1353.23
1340.25
1031.05
593.414
305.479
929.92
597.372
619.376
718.025
355.775
1282.8
1120.17
575.458
1201.93
886.487
589.221
1086.96
332.218
959.151
1064.12
1086.63
990.233
955.725
1055.92
1041.1
1281.38
1300.73
1265.99
1311.7
271.552
1407.12
1238.72
872.651
1675.44
717.995
368.909
-156.12
-21.4349
575.58
434.732
140.514
375.875
88.8495
-407.519
-119.119
-88.3691
365.789
-666.272
206.785
42.8069
1244.62
1039.23
585.906
1130.21
1151.3
1114.03
751.863
724.447
1356.87
141.394
1344.96
976.307
1370.99
743.251
997.344
977.662
850.355
376.473
542.814
71.74
722.077
796.685
586.504
458.593
1003.45
241.1
712.598
916.952
799.536
591.37
920.22
564.743
961.691
526.88
424.17
981.163
687.831
505.869
451.914
459.102
50.8367
109.157
31.0525
10.7485
2.14793
23.7046
69.3514
61.9311
173.298
92.3355
125.686
48.7016
233.29
32.6987
123.121
-79.1966
1093.7
656.85
124.252
883.971
924.691
667.439
812.55
378.643
492.531
157.146
433.874
295.848
393.101
299.072
576.702
659.585
234.596
57.4728
156.862
165.167
262.037
282.137
260.047
353.393
144.015
552.416
240.15
309.947
266.938
510.144
230.392
331.384
267.681
352.755
-93.3882
130.056
302.7
390.04
354.156
425.101
16.4472
-77.1972
411.837
-141.028
-595.437
-863.3
-977.676
354.713
30.7451
94.4573
-18.9718
-51.1149
-15.3204
-8.98565
-21.6068
-18.0453
209.961
66.7932
43.3985
-625.054
128.309
-59.9666
211.078
75.0732
-143.566
-4.28357
-8.12998
196.941
-165.172
-146.075
-6.29919
-121.085
-200.351
-20.5069
-112.423
-27.4506
-164.899
167.643
-151.222
-193.027
-82.2938
-64.8064
-177.368
-376.542
-62.4846
-36.09
-80.5054
-123.108
-41.4012
279.796
10.5899
448.297
-320.008
-135.904
-352.365
-436.57
-22.299
260.937
-12.4355
-24.568
116.039
66.2571
-186.769
-102.321
549.479
604.9
181.292
227.051
615.123
563.039
380.069
519.773
569.218
576.86
315.068
-721.658
573.742
628.312
355.046
591.948
102.477
297.736
64.1126
224.441
140.271
-4.9131
400.602
256.591
-8363.76
1835.63
-134.268
100.652
2020.36
8288.42
-5748.87
-482.016
730.916
114.418
87.473
-281.514
675.106
328.046
-466.606
-178.952
713.377
-1022.55
262.117
116.119
875.155
255.349
363.53
447.293
85.8254
1073.31
1318.26
17.5635
347.314
998.284
841.713
758.685
94.8023
363.865
755.278
454.359
170.595
1919.11
529.928
1021.5
474.424
499.797
568.264
350.968
618.412
609
447.411
496.846
580.275
594.333
683.498
-221.23
503.292
621.3
519.462
686.45
651.673
873.987
775.959
632.27
573.114
797.75
568.717
589.381
91.2935
-508.663
-3682.93
430.679
-411.069
-1425.21
744.578
-2852.25
577.268
581.671
288.347
-103.121
380.975
367.518
128.014
160.08
597.394
-259.194
701.757
654.561
582.234
485.813
644.398
685.445
383.797
167.729
100.451
-602.624
-57.6265
84.1512
-646.934
15.3892
650.633
-31.8508
-327.569
754.93
438.779
-162.555
474.572
-204.315
10073.8
887.211
-1611.88
72.0951
737.547
-189.399
-5166.37
-1751.98
-358.062
330.288
220.557
367.265
380.306
299.768
550.333
533.953
-543.92
67.1336
-562.281
85.8822
29.8471
-82.7366
-12.6907
-209.202
868.849
-183.012
464.268
240.117
97.56
486.298
129.792
341.795
72.0806
130.299
586.491
67.381
658.634
108.041
1511.26
697.014
-282.367
151.578
226.258
744.46
255.919
119.315
683.979
135.309
589.29
1276.22
106.106
336.55
925.361
61.0691
373.74
487.561
-444.336
-6.15683
-206.812
88.0822
301.719
149.968
145.291
6.62063
982.87
634.798
124.553
1704.38
976.391
767.634
949.708
855.26
226.846
157.809
245.991
142.995
237.029
199.442
305.74
210.09
954.675
-72.7274
712.366
500.786
835.595
568.808
1268.98
1005.99
678.271
-166.918
-91.1694
-254.065
259.096
106.199
-110.148
67.2055
297.102
766.653
954.453
62.6066
317.9
990.92
103.885
623.099
258.921
109.878
400.121
543.272
234.561
44.7257
200.35
222.832
1261.66
1096.79
-132.744
664.754
1290.05
881.06
650.728
315.218
893.168
581.9
63.5733
249.236
424.078
561.465
332.762
-14.3871
2599.16
2085.29
1466.97
1464.49
2044.54
2002.25
1298.01
1516.35
1939.96
1217.26
814.623
874.248
1590.21
1048.06
1267.77
1233.48
1397.08
721.093
806.445
1104.02
1049.49
1155
211.883
1101.2
771.559
32.5185
956.891
726.182
530.988
-1370.38
1979.19
1727.14
1838
1376.26
2087.95
964.462
1108.65
957.41
994.512
1292.26
1493.28
841.46
691.671
1214.69
1059.43
1397.62
858.303
906.184
954.077
1776.02
596.047
1261.41
1637.42
2039.87
811.452
844.19
1229.4
1414.79
698.931
710.274
765.456
-282.888
316.211
255.053
1127.51
1788.65
2284.02
813.122
1827.63
1891.2
1153.48
1523.18
1872.77
1624.9
1376.39
628.923
1642.07
1732
1473.1
1362.14
2263.47
1834.13
2133.55
1602.12
2397.65
2009.98
934.694
1563.61
833.664
171.036
538.899
309.141
1070.91
-1101.8
671.462
1013.63
2256.77
2325.03
1490.58
1776.58
1479.83
1938.99
1163.02
1275.28
1904.45
1056.09
1612.71
2204.93
1576.69
1949.87
2368.42
2252.96
1325.63
265.734
-10.4703
405.915
1068.59
1385.57
1101.86
345.788
1352.66
1746.5
1455.86
1576.36
1838.78
831.901
1203.63
987.724
42.8849
222.825
179.571
52.0616
112.693
181.954
32.7784
81.5496
483.589
682.477
-61.5216
392.511
503.898
613.568
669.816
566.228
207.716
156.911
9.9184
168.873
82.5133
119.6
175.857
94.9837
69.3759
-166.318
-111.944
-78.7262
63.1164
166.331
-2.54385
-37.4633
247.833
-145.473
142.711
336.415
243.926
201.094
308.163
200.731
293.404
543.914
172.025
122.57
279.363
584.503
212.858
51.6156
225.242
136.63
511.024
120.149
128.432
109.533
-27.4789
219.834
226.945
257.23
544.177
466.788
411.768
92.8284
337.667
-17.5519
735.856
740.661
584.537
686.362
699.099
687.895
611.487
680.118
750.726
747.43
459.671
793.719
686.076
727.757
625.7
716.815
457.67
413.854
344.576
579.795
467.905
358.588
467.804
456.71
681.881
710.297
607.973
680.88
740.842
696.808
748.003
701.677
680.037
537.745
698.015
730.028
617.418
588.166
617.039
568.42
694.652
708.536
423.754
513.141
679.509
581.134
560.602
552.283
457.382
625.754
727.339
563.686
636.86
694.246
685.28
702.404
575.43
618.083
811.778
543.2
441.433
532.013
462.578
618.404
730.903
779.274
733.148
669.482
734.611
765.768
734.816
770.003
798.263
957.906
914.5
924.353
917.667
884.45
944.717
943.994
794.074
884.778
838.225
747.588
755.198
830.734
710.985
797.227
738.69
923.135
811.962
735.168
808.187
772.179
876.719
854.642
801.155
732.657
708.187
830.387
829.364
787.832
789.976
700.095
795.76
844.905
874.53
815.552
831.202
876.322
816.806
802.958
711.094
766.621
965.105
760.836
683.885
778.829
753.264
834.33
764.4
830.146
916.998
831.108
791.317
724.264
788.128
762.554
1094.17
1002.35
725.522
943.092
1081.37
859.326
1054.94
1065.02
884.955
704.334
746.488
619.544
730.841
726.915
801.126
719.347
672.865
754.115
621.527
601.335
790.646
733.143
789.714
713.639
721.078
655.395
688.804
667.226
744.022
718.162
819.215
690.622
851.987
900.729
798.346
735.279
946.248
992.279
822.924
696.031
706.646
638.054
707.857
885.31
857.469
858.674
755.827
741.456
851.819
846.255
758.965
913.68
452.77
794.988
797.862
954.025
834.067
717.533
672.844
693.419
882.939
786.539
755.778
611.98
526.554
739.548
568.85
643.805
639.685
643.175
547.827
605.736
692.651
656.883
520.35
551.904
664.844
623.735
653.956
591.918
416.432
463.64
265.753
414.484
453.331
478.227
360.438
416.079
678.898
577.193
515.931
412.7
615.387
713.475
521.655
650.746
640.922
547.283
658.032
637.922
604.173
550.972
586.823
611.54
691.229
640.246
544.954
552.073
609.539
650.605
565.056
557.95
481.333
719.8
613.266
531.638
497.19
608.242
553.153
625.078
514.684
511.944
607.346
505.621
533.748
532.701
522.341
538.383
18859.1
621.361
1478.5
-191.188
1855.23
2134.38
-63.4046
507.391
114.274
566.289
277.212
136.54
419.011
831.688
228.081
438.399
3898.93
-31.3759
3105.49
1032.98
1063.83
1065.83
5685.54
3344.23
190.419
124.37
-175.753
-977.508
-226.715
-234.991
-477.278
-372.199
1457.16
-988.851
-50.9314
262.082
789.16
-3209.71
729.448
-580.824
771.096
131.68
584.938
-853.796
343.963
204.081
-804.1
361.782
4572.83
683.98
85.3094
800.342
1676.94
350.711
-491.126
394.446
2589.1
-421.929
203.677
138.254
-818.389
-1095.82
85.2008
66.5005
1741.19
866.191
1238.91
1198.79
1660.71
1461.76
1216.57
1244.07
422.235
188.413
-3.79321
-112.398
441.373
155.212
30.4822
1.2336
1079.3
634.686
531.237
2135.72
575.555
338.541
1113.89
1253.5
2078.33
1066.45
2250.04
1794.51
2012.88
1519.98
1962.56
1753.31
1120.65
1194.16
1655.26
826.891
993.193
1187.18
970.518
1412.7
717.145
612.758
242.164
745.635
810.425
441.848
690.812
463.107
1171.12
2340.69
1227.68
2115.02
1858.91
2141.3
1687.76
1739.59
1026.19
2320.96
1148.87
472.593
1041.45
972.528
713.352
1179.32
82.4706
-45.5786
-53.58
-670.055
-55.448
27.4198
-171.391
-90.4395
-1.72113
3.34129
-19.9285
-102.946
19.3383
6.66601
-39.7375
-36.1123
42.2396
21.1023
110.779
-59.7816
11.1722
18.1153
-55.1416
-29.6751
-189.222
-22.7013
-28.9264
98.7469
-85.6914
41.2248
39.8819
-15.5962
84.6677
-14.5391
-253.842
-161.655
34.9398
-119.349
-3.38164
-241.956
28.9683
-167.178
-6.33009
-6.63831
78.4036
-31.735
-12.3747
9.20166
3.38804
32.9982
-33.8943
-64.9942
-134.878
-87.5632
-101.547
0.0709771
22.3913
-70.4443
-126.265
-44.1247
-20.0676
-102.469
-60.8317
-88.5307
1290.38
430.914
485.438
457.697
832.67
404.398
657.013
623.203
141.289
35.8659
117.815
49.6499
110.502
30.1265
83.5546
93.7134
207.163
158.98
159.906
103.374
239.255
142.06
84.3156
162.844
47.3689
27.9433
62.1499
9.55825
42.035
33.4957
26.5248
49.9453
305.524
330.415
221.005
70.1713
25.5221
239.818
50.6307
157.196
48.1275
48.2643
105.861
125.704
178.72
64.0231
160.177
172.37
68.5365
87.6493
42.0448
91.6451
117.685
105.373
68.1148
35.8853
172.952
100.127
66.2998
154.169
101.599
59.5115
78.9339
54.7004
53.1302
358.357
52.0311
75.0999
76.665
57.1429
48.2952
73.0156
684.05
1380.61
686.724
753.879
594.595
1048.65
639.931
1193.54
181.948
311.452
398.831
235.844
279.122
361.294
365.086
445.564
20.1728
155.992
-17.6195
-94.0383
18.7392
56.7969
-31.5558
60.5415
163.608
81.2073
78.2107
243.91
116.024
68.6579
124.24
85.6999
435.973
340.656
599.01
118.919
381.41
309.104
370.093
658.031
78.4191
42.9254
137.513
108.633
9.6778
80.0804
163.435
70.3151
133.549
384.976
310.478
679.166
365.624
377.689
814.11
680.942
911.077
217.466
-167.61
798.345
468.946
232.501
178.678
69.3866
-161.423
-137.58
39.6512
263.23
95.6323
22.1473
216.982
126.95
-92.1626
-35.6137
-15.5224
-65.305
-65.7571
-72.9578
-88.8277
-88.6184
164.263
-27.8776
82.3902
-12.4618
-7.68048
73.831
25.2393
88.1034
141.212
-21.2726
-23.1546
-256.332
-24.8756
-6.24817
387.675
-87.3143
-90.2688
-53.4668
16.3288
-22.9607
-87.146
15.2251
-64.4828
-61.2877
22.6458
-218.459
-94.8233
51.009
35.3544
-10.1461
18.0649
237.502
-26.8361
62.311
145.405
44.3176
7.08647
20.5237
41.2882
-34.7068
29.7167
130.345
106.908
170.029
16.0511
72.08
89.2486
116.321
132.387
441.216
487.719
364.359
330.275
409.027
295.73
298.81
224.064
405.969
583.006
388.814
285.064
319.384
365.639
407.692
241.687
212.947
412.127
304.588
207.73
216.047
231.44
297.102
120.111
185.03
113.132
217.489
136.818
156.44
170.237
108.968
116.517
252.878
351.395
117.916
109.17
172.963
138.564
199.673
229.457
229.798
312.458
373.413
191.511
166.214
257.218
190.536
161.808
411.58
331.78
398.197
246.696
372.796
281.347
398.753
1212.16
731.168
1233.84
712.559
1005.74
987.962
1186.78
1202.74
560.868
467.737
577.534
418.236
589.682
628.104
545.378
558.679
1518.86
1225.77
1600.72
1372.56
976.972
1506.38
1150.76
1313.48
678.193
236.424
806.529
485.115
549.751
454.008
674.134
571.426
725.746
1156.47
802.75
374.9
666.679
1004.58
499.31
717.646
785.141
422.655
772.746
1075.55
707.053
677.956
760.819
780.107
1218.34
832.989
335.819
796.563
977.185
755.148
623.657
563.421
1126.2
989.464
435.793
793.389
893.07
662.073
730.163
597.054
1198.42
876.293
1155.06
65.9932
640.286
733.975
558.282
832.113
898.202
636.464
965.886
504.928
655.683
403.888
684.525
817.066
2127.24
1420.77
1843.05
1039.67
1554.01
1841.7
1359.81
1357.6
-63.5766
33.8832
77.7462
-115.81
93.4443
42.9924
-134.753
9.00702
629.165
626.07
24.4583
212.928
621.409
590.924
389.886
324.808
901.716
578.675
508.24
457.077
1229.33
928.719
1275.68
1155.65
700.687
-228.59
121.811
261.482
290.953
123.648
245.77
145.543
1048.02
366.108
425.016
596.146
737.198
290.98
887.602
584.561
-184.972
570.58
17.7302
18.5047
23.9415
-54.8327
-43.985
-53.6744
842.721
-1090.72
320.102
980.983
888.864
696.76
938.3
984.603
-144.748
72.0476
8.1751
-70.866
-43.4623
12.2317
-94.0675
36.7218
182.392
872.476
257.049
744.732
480.431
651.207
373.608
530.554
334.406
5.86824
275.423
643.613
357.793
314.504
591.483
299.577
252.106
577.708
201.188
98.7345
165.704
415.394
82.0536
293.699
6.31802
207.895
641.279
170.231
81.8795
196.075
207.96
363.424
60.5899
200.837
518.535
282.769
69.4953
198.594
254.83
361.83
-101.885
5.9242
67.7469
65.5734
-25.3176
24.391
11.7699
-11.317
32.7693
-60.8889
23.1078
-113.602
228.984
104.884
-86.764
-27.76
69.5404
78.043
49.4623
54.2507
10.3144
69.532
-129.159
35.3537
308.276
205.858
252.839
713.949
353.285
215.741
391.742
97.4828
16.1607
74.7995
144.672
60.5316
-3.31465
37.9632
84.4806
108.217
10.6089
-31.7763
41.9958
123.112
-70.4421
-51.3742
6.67212
-14.3553
40.471
235.925
245.811
272.031
193.895
60.9927
315.679
184.196
79.4096
83.7389
44.6662
21.1611
140.544
291.465
36.6328
171.046
190.463
-14.3526
-125.384
-77.4789
119.193
-200.106
155.32
-131.9
394.587
805.778
-123.095
50.6166
259.142
773.548
66.7344
403.795
-96.273
-63.4439
96.5153
7.97167
-59.3559
1.48354
-65.5334
-11.5864
-271.151
23.6029
18.8158
-100.177
-236.528
-114.782
-98.0403
-97.7408
-87.5841
-126.382
-147.415
3.42796
-164.677
-180.312
-129.146
-186.459
72.8518
9.14132
96.9417
-101.567
-147.822
-31.0518
-76.8546
-56.1384
-65.2411
-74.9473
-30.715
33.806
-84.1384
-155.188
-62.9758
-117.608
-70.9011
63.2025
-223.756
15.4151
-20.8712
-4.5846
38.9768
-177.812
1245.67
295.133
864.918
908.883
543.338
409.794
664.483
742.449
-148.035
22.3789
298.252
96.6974
188.559
211.613
324.011
294.131
857.177
178.464
563.464
538.421
635.516
589.743
703.594
682.183
385.653
125.13
446.022
262.356
290.475
280.362
366.301
344.262
290.847
414.775
299.6
257.558
438.071
265.637
214.362
335.627
245.41
259.926
462.924
328.476
468.937
141.305
36.3903
235.407
639.847
323.658
280.653
603.537
512.156
453.656
426.631
240.43
780.628
549.693
245.215
643.432
343.892
459.743
559.793
188.583
-68.4386
84.8486
26.6413
69.1016
28.8965
33.973
21.8422
31.9331
99.9404
31.1251
-122.842
27.424
-116.916
-156.501
-47.7394
-184.098
41.9712
-39.4618
-33.7543
28.3635
38.1644
16.7645
32.9935
6.27106
318.265
267.487
208.029
751.113
374.536
266.875
335.312
263.594
129.924
42.7974
161.065
239.188
148.411
69.4923
220.526
137.264
55.4897
39.3912
-56.5727
61.8644
64.5001
-15.3625
65.4708
32.3514
37.2587
167.399
249.993
137.662
84.7698
140.427
138.441
221.913
68.8128
121.058
91.8339
-48.8992
71.6379
152.156
38.7987
116.353
-35.4448
-81.2951
75.0355
-105.573
-240.163
-89.3004
-197.558
-26.1709
41.3337
135.605
82.6911
-22.1829
10.0024
55.7286
0.655076
33.3152
74.4914
68.8155
-19.3702
32.1319
28.4629
44.7871
-27.6392
-25.2269
-120.358
-62.4888
-92.1331
-161.656
9.23314
-10.1181
-55.6021
-59.5409
-71.8558
-4.79147
-28.0355
-108.096
-73.3161
-68.2413
-82.4588
-75.1071
40.7376
-12.3439
33.7825
40.8139
18.6752
4.911
22.9337
12.1578
-16.07
-35.7431
-144.67
-87.5638
-12.3006
-39.96
-66.6269
-107.115
22.942
-26.96
-55.5927
91.6608
-13.495
-16.6296
28.0651
-5.74689
223.891
38.6835
61.9313
172.142
228.68
168.383
192.289
97.9243
-476.805
-108.74
-171.358
141.167
-134.946
74.0985
-198.738
29.6488
8.6021
139.784
286.41
162.426
21.1692
150.218
224.547
334.438
126.57
138.26
-389.935
229.986
136.807
-74.1747
247.374
135.132
-93.1272
61.807
85.1703
136.355
-106.713
-9.48697
-185.604
-10.3139
-134.689
-127.463
-190.488
-34.2303
-127.279
-246.745
-61.7434
-217.569
-3.25416
110.734
-206.564
-244.782
-40.4046
122.949
-183.245
-23.9818
-122.01
-261.081
-176.599
-115.965
-196.806
-187.186
-214.318
-80.3032
-214.723
292.686
-910.805
1301.57
642.347
-44.4337
954.517
185.263
383.264
342.87
221.069
358.539
397.747
336.156
471.081
402.145
-1685.06
-323.276
-1904.75
-35.7089
276.152
-813.447
838.202
-117.477
339.435
536.832
471.108
163.116
340.571
683.285
584.434
724.146
463.482
62.6169
1021.34
382.264
769.846
822.884
784.33
866.125
289.543
414.77
195.767
-479.986
318.832
487.648
-217.098
459.979
14.7291
1279.76
365.383
260.972
734.852
1266.84
423.764
649.086
-510.804
85.985
566.111
557.582
651.886
62.6584
653.085
271.382
-50.0847
109.502
-191.226
-3.01927
-276.567
-248.599
-187.52
-270.385
-320.996
249.346
-1163.58
638.687
-187.46
-404.49
290.414
-80.0687
-24.7785
-228.773
-57.0923
-1.92215
-101.327
-133.663
-40.8438
-75.4083
319.935
798.652
257.337
971.388
219.611
381.231
362.474
431.174
-129.603
-217.672
157.262
265.264
-134.807
-251.174
-52.3486
69.586
-91.3014
206.456
-234.647
-163.364
-26.2602
3.00566
-144.784
-135.491
-102.695
118.631
222.514
142.087
118.783
105.267
129.075
126.569
-117.267
62.5211
192.542
-147.975
58.4554
50.6584
21.6236
4.08748
-686.876
-41.1291
718.726
-623.082
-92.5599
-342.423
-230.525
-252.364
107.397
188.453
56.7794
208.827
238.552
166.828
141.304
95.699
-366.715
-11.9216
192.25
121.725
-226.45
-3.96031
88.0939
303.784
73.8522
122.822
-264.646
188.915
160.486
123.522
228.345
163.432
-43.7003
461.655
-151.551
67.2515
-104.716
-11.0668
7.56066
-106.39
37.9982
81.7279
110.576
437.349
14.3255
86.3105
57.3771
111.369
349.034
120.55
61.4335
-248.333
-124.283
8.5948
-110.808
77.087
248.151
-123.426
55.1176
92.7356
-10.1789
-60.7932
131.306
19.3439
-487.608
-796.54
-393.228
740.196
429.983
-705.748
664.912
-8.49668
-0.961434
147.989
357.51
110.312
47.1814
303.353
-75.4092
164.779
597.957
500.578
586.576
-17.5552
581.467
593.792
627.083
581.799
184.468
150.21
187.319
562.021
-40.3974
23.7202
70.6616
89.1301
350.437
421.349
307.684
257.187
516.869
206.346
-64.7
64.7887
321.511
-18.2369
441.126
518.282
171.31
-56.8352
347.56
229.233
461.554
193.582
244.609
130.873
203.049
37.5918
184.274
107.535
453.77
60.9877
133.945
232.595
127.86
18.9223
73.8731
-85.3819
-124.575
-15.1377
1.65893
52.9301
-28.2775
7.78008
1.17361
20.2151
21.6435
-14.5968
-0.298645
-15.6257
-18.1551
43.9094
58.3777
25.0652
10.125
-1.07787
-15.2846
-9.11225
14.6481
-7.03697
-14.1448
-3.78214
26.2885
42.0533
14.0163
125.812
25.6697
11.9891
2.10455
-19.2447
30.7519
77.7795
36.7585
50.5862
72.4795
88.8379
24.3047
51.9431
26.0934
65.5195
7.0184
66.8742
54.0546
53.3282
36.2233
-15.6329
74.0367
10.9053
39.6282
-0.333968
66.388
36.3377
17.3963
17.594
31.573
2.90693
43.2318
15.7743
20.9299
15.7133
23.7229
16.6352
4786.77
3553.93
2738.03
2313.91
3414.9
3397.08
3260.51
3451.95
3359.78
1691
2118.06
1789.26
1772.43
1995.39
2179.6
2167.72
2261.44
2097.28
1537.81
1388.16
2058.05
1899.39
1742.51
1748.54
987.637
475.698
818.457
401.786
684.074
882.605
701.964
777.056
3129.77
2613.23
1958.02
1438.62
2996.09
2780.06
2535.71
2585.87
3112.47
1527.51
2161.77
2416.52
3039.16
2197.16
2455.28
2503.13
2269.62
1247.23
1307.62
1377.57
1384.04
1464.75
1535.81
1343.88
2688.4
1404.59
1554.16
2406.56
2326.69
1690.94
2203.8
1589.18
126.262
27.2105
253.139
76.6741
21.5414
101.417
-81.7912
98.6765
26.3412
-60.5199
102.715
89.6364
-5.93304
-4.49607
110.436
45.639
296.956
78.5198
-300.292
324.215
194.137
300.035
186.134
216.528
77.1756
149.876
120.387
173.36
77.6045
84.6957
115.489
105.201
15.1882
40.7019
77.7898
82.4203
45.1462
19.5673
74.4383
52.7321
48.2803
61.2422
125.596
190.061
24.5104
111.546
169.692
85.8398
-107.023
39.3977
100.455
-43.7826
-28.7692
71.5593
133.512
109.696
88.6913
176.803
88.7394
54.0582
113.455
138.433
91.7636
56.4513
507.667
755.979
539.624
263.026
97.3098
246.452
325.844
385.373
866.916
1146.67
436.155
470.833
881.577
958.655
619.297
642.221
402.567
285.761
281.585
95.3918
171.068
236.968
145.542
134.639
86.7363
50.4465
53.9809
83.5178
21.9717
19.6199
15.8298
18.4762
233.358
221.572
91.4752
-211.301
505.97
392.857
201.964
187.935
355.958
-120.74
312.629
333.312
597.684
290.437
490.637
245.829
153.93
85.2006
-5.14513
58.8826
42.1731
170.853
-14.8088
145.434
239.27
61.885
65.259
151.7
93.3714
-13.4467
141.976
168.09
1193.7
1241.74
1247.7
1147.16
1181.01
1234.52
1290.35
1252.85
1076.47
799.629
869.227
492.589
857.713
1025.72
766.074
839.75
1263.47
890.938
1113.19
1008.93
1104.97
1491.27
1184.51
1342.49
894.165
769.9
772.225
710.384
685.536
771.752
660.804
686.268
1065.74
1167.34
1027.9
871.707
1093.5
1179.69
961.403
1094.32
1213.84
790.788
1037.98
1212.24
1168.2
882.226
1230.24
976.99
1202.48
1063.45
853.758
958.922
1036.8
1004.76
965.563
934.098
1296.49
845.03
755.696
984.492
1009.05
870.021
900.097
859.296
377.629
486.768
309.862
566.292
440.895
352.439
419.323
386.835
529.694
667.241
450.052
560.806
642.674
590.324
481.762
471.083
227.235
321.164
101.055
262.346
274.841
234.773
219.957
209.855
504.774
492.642
246.366
223.473
449.269
424.536
409.043
410.82
534.806
353.787
501.936
571.44
459.836
457.001
545.015
515.034
471.852
529.177
364.541
339.223
420.59
477.753
416.323
408.389
307.55
476.829
517.85
307.325
378.047
463.927
376.879
464.819
299.566
296.058
502.322
333.713
335.126
331.138
358.349
402.248
5254.73
2941.53
3275.32
3929.46
4228.21
3983.52
4292.23
4072.48
972.905
382.293
731.257
16.0565
129.515
430.719
151.165
397.04
2362.86
1461.25
2268.89
1472.22
2141.05
1962.25
2177.27
2103.98
2111.72
1162.98
2522.45
1627.24
1684.98
2256.49
1585.44
2174.54
2090.3
3253.5
2814.35
897.111
2298.34
3304.54
2320.67
3292.1
1314.82
957.895
1156.66
2747.63
1445.77
852.258
1504.82
991.35
3315.02
2715.35
1122.92
2749.33
3090.29
3253.43
2580.93
2662.8
2661.35
1800.58
868.244
1231.84
1789.62
1685.75
1056.73
752.97
2328.52
1813.83
3290.82
1154.97
2085.37
2311.91
2265.53
2506.47
170.41
389.832
937.98
-87.7787
287.259
279.688
-61.3636
2.39218
3461.56
2696.34
4896.86
3161.44
2951.89
2928.66
4250.79
4125.33
737.059
1066.05
1311.89
1273.02
886.248
904.188
1253.31
1311.48
1615.93
2316.69
1707.26
305.311
1321.47
1062.21
108.071
1647.7
1746.41
146.253
1774.58
2580.78
1702.97
938.886
1895.93
1909.82
2347.02
1627.15
1146.49
1861.29
1005.67
1748.94
2547.45
1634.39
2324.23
2161.32
1163.51
2166.9
1406.63
2437.87
1776.2
2310.27
647.32
557.151
608.393
655.262
697.142
588.57
785.158
726.27
600.734
552.127
652.988
543.836
585.117
591.072
574.369
704.509
793.187
513.784
452.036
726.462
928.762
640.334
991.207
825.941
420.433
294.887
494.454
22.8655
440.11
532.405
464.333
476.848
696.826
727.636
557.564
521.344
697.218
783.021
579.596
552.051
600.174
518.487
677.409
749.979
717.503
715.831
756.172
744.617
599.286
602.66
521.506
601.064
645.229
613.613
608.37
614.985
697.136
588.573
608.086
662.991
619.951
603.295
598.117
646.164
56.6929
60.1283
141.5
35.1214
73.5022
109.225
115.658
150.167
-106.285
267.879
498.25
349.447
178.583
239.78
209.59
297.621
370.301
505.339
545.461
448.104
444.412
482.538
443.202
502.222
22.3648
221.626
283.537
39.4158
356.687
230.384
248.269
169.275
61.3789
198.396
75.8234
237.771
161.435
226.849
69.3487
189.836
144.416
241.558
446.8
307.069
222.822
309.193
368.045
403.9
304.966
151.378
146.593
378.606
282.051
204.612
395.111
202.865
354.708
381.305
251.064
409.323
381.132
411.502
366.267
414.027
381.295
449.775
560.773
452.548
367.853
401.17
490.066
512.75
538.536
536.316
634.338
617.07
604.324
546.816
658.068
537.758
625.913
688.604
693.824
945.818
731.947
723.859
840.367
594.609
660.817
657.03
810.43
763.296
656.019
632.107
712.171
760.733
519.605
587.843
524.496
577.246
577.83
563.395
486.02
499.776
497.831
606.086
695.298
584.283
565.42
652.552
585.997
665.645
580.637
640.965
728.223
775.326
658.837
661.483
674.454
753.561
629.321
848.651
646.353
656.478
713.831
853.168
723.084
764.016
5128.83
3638.67
3882.22
2889.16
4616.74
4898.81
2279.62
3806.38
2783.68
1482.94
1482.81
1659.29
2728.89
1085.59
2097.54
1601.8
2528.97
1215.72
1318.74
2144.83
2029.73
1605.49
2071.75
1474.82
1846.28
2019
2316.4
1640.27
2810.63
2864.37
2360.65
2943.54
3713.84
2234.17
2511.17
2400.32
3204.62
2843.8
3034.61
2333.14
2004.21
1794.65
1169.51
2219.73
2613.32
1394.73
2444.61
1455.54
2265.09
2102.85
2088.74
2824.21
3171.14
2996.01
3500.94
3001.57
2838.41
2469.65
2371.89
1570.64
2237.92
2294.77
2061.58
1839.53
1063.46
-69.8502
1771.83
455.856
-11.6111
-315.167
1543.03
453.014
-96.9023
8.62664
19.9624
-37.7247
-97.2077
-72.7981
-64.085
-62.7645
121.231
119.261
231.118
45.9137
188.155
508.121
458.446
513.007
74.1829
39.9001
-11.1845
3.15673
124.748
117.267
114.396
60.1752
-27.9748
184.277
-19.0393
-1.31075
20.8762
-177.604
50.1738
92.4897
-63.1055
-17.9327
118.213
88.5014
-19.9785
-28.626
15.3047
3.90378
510.373
107.021
25.5368
76.2885
-55.1294
41.5637
144.236
121.697
271.102
110.536
5.93749
-25.1925
208.483
137.399
15.9137
14.2448
696.326
603.436
842.576
504.095
659.56
699.742
638.854
713.668
643.663
368.09
595.259
337.155
537.089
337.143
343.724
415.107
1098.62
837.252
1163.15
801.701
873.639
859.921
859.798
978.588
245.25
116.374
475.574
18.3246
167.665
145.383
103.302
122.836
560.286
771.102
441.405
291.004
533.132
610.963
447.652
524.59
561.552
272.577
704.928
826.858
595.73
435.718
741.424
651.701
774.323
370.905
187.253
563.636
679.447
533.557
628.202
296.281
861.562
558.646
323.678
769.303
676.609
548.549
545.766
459.569
19098.1
10799.2
3288.41
3305.05
9813.87
11605
1306.55
3750.08
938.395
4072.37
1037
2018.37
6921.83
2071.82
3247.27
1294.19
-301.757
187.144
153.932
286.248
470.849
-324.293
189.409
-1078.96
1159.12
294.791
182.633
884.408
295.154
-40.8472
-216.259
-117.79
3967.82
-235.305
-200.752
4754.93
41.7173
-586.966
3415.64
-892.619
3527.8
4625.44
1252.03
1276.2
-1246.53
1234.03
434.902
199.632
-763.626
-296.634
1654.52
-543.585
1206.88
2717.61
-226.847
4104.34
-384.51
-442.454
2720.52
-4094.25
-243.521
-378.292
126.906
3227.75
-12.0201
230.227
72.148
-24.3868
63.2807
87.828
58.8816
111.416
194.396
-16.2761
75.7373
135.659
171.409
85.9
166.124
201.659
64.9753
62.1716
159.573
37.879
76.6683
76.2337
21.2002
120.029
25.962
-142.798
-229.795
-150.465
-73.0022
-115.26
-106.657
-63.6018
105.514
106.84
47.786
64.9735
63.0037
107.486
11.937
103.597
42.0411
92.3779
29.6329
115.018
99.1618
129.094
87.2532
73.0156
43.2124
-8.25093
-72.9471
-53.8023
110.553
59.9672
14.7103
-25.8966
68.5098
14.6625
-48.8933
22.2155
35.6415
37.6856
5.63256
-40.4
1171.84
1142.75
1117.77
851.231
1145.51
1134.61
1111.15
1126.12
929.513
794.644
924.864
642.15
824.687
821.896
809.23
797.911
1133.93
996.099
1414.57
998.69
1071.7
1054.82
1080.32
998.79
547.158
715.884
785.09
565.077
691.002
689.333
650.942
784.807
986.654
1090.75
931.335
690.041
986.723
1051.54
810.268
947.95
961.637
745.197
888.29
1090.96
960.735
891.97
957.252
955.916
1077.9
846.014
702.839
904.183
985.004
921.355
879.317
792.654
1064.55
834.059
732.797
922.087
984.792
861.592
947.348
846.967
1191.63
1162.41
1215.95
1062.26
1222.59
1146.97
1120.7
1222.59
1184.7
827.871
885.007
1023.24
1119.04
1410.94
1015.53
1436.32
1066.36
889.408
819.58
762.976
888.076
1018.85
896.313
960.465
754.269
834.363
796.365
472.558
756.438
727.765
596.684
751.824
1120.47