/*--------------------------------*- C++ -*----------------------------------*\
| =========                 |                                                 |
| \\      /  F ield         | OpenFOAM: The Open Source CFD Toolbox           |
|  \\    /   O peration     | Version:  2506                                  |
|   \\  /    A nd           | Website:  www.openfoam.com                      |
|    \\/     M anipulation  |                                                 |
\*---------------------------------------------------------------------------*/
FoamFile
{
    version     2.0;
    format      ascii;
    arch        "LSB;label=32;scalar=64";
    class       surfaceScalarField;
    location    "800";
    object      phi;
}
// * * * * * * * * * * * * * * * * * * * * * * * * * * * * * * * * * * * * * //

dimensions      [0 3 -1 0 0 0 0];

oriented        oriented;

internalField   nonuniform List<scalar> 
89504
(
-4.87365e-06
4.96461e-06
-1.4911e-06
1.40014e-06
-1.47967e-06
-4.47101e-06
4.61832e-06
1.33235e-06
5.16314e-06
-5.10292e-06
-1.56418e-06
1.50397e-06
1.28153e-06
-4.24574e-06
4.29559e-06
-1.33136e-06
-3.52145e-06
-6.17033e-06
4.81813e-06
-6.55921e-06
1.55809e-06
-3.39726e-06
-1.49154e-06
-4.79333e-06
-3.8451e-06
-1.11144e-06
3.77121e-06
1.18532e-06
-9.94884e-07
3.77073e-06
-3.96022e-06
1.18438e-06
3.78904e-06
-1.0739e-06
-3.88922e-06
1.17409e-06
1.08273e-06
-9.49597e-07
3.62969e-06
-3.76281e-06
-2.77841e-06
-4.71297e-06
3.64628e-06
-4.97204e-06
1.19875e-06
-2.69468e-06
-9.35556e-07
-3.87769e-06
-5.02586e-06
5.15971e-06
-1.5408e-06
1.40695e-06
-1.38031e-06
4.16087e-06
-4.06514e-06
1.28458e-06
5.28423e-06
-5.05635e-06
-1.71039e-06
1.48252e-06
1.19251e-06
4.26286e-06
-3.94571e-06
-1.50965e-06
-3.5799e-06
-6.4416e-06
4.99564e-06
-6.42025e-06
1.46005e-06
-3.52558e-06
-1.72351e-06
-4.66161e-06
-3.75038e-06
1.12432e-06
3.68498e-06
-1.05892e-06
-9.73293e-07
1.03043e-06
3.6167e-06
-3.67383e-06
3.74074e-06
1.10939e-06
-3.7504e-06
-1.09973e-06
1.04259e-06
3.61999e-06
-3.69755e-06
-9.65024e-07
-2.7078e-06
-4.74207e-06
3.69949e-06
-4.73006e-06
1.04898e-06
-2.66086e-06
-1.03862e-06
-3.65018e-06
-5.60109e-06
-3.03203e-06
4.16211e-06
4.90513e-06
-3.53383e-06
-6.47422e-06
-2.97268e-06
-5.46624e-06
4.19317e-06
3.77994e-06
-2.75271e-06
-4.76841e-06
3.74119e-06
-1.37063e-06
-1.16243e-06
-3.06804e-06
-1.25883e-06
-1.12408e-06
3.74159e-06
-5.3556e-06
-5.42354e-06
1.28006e-06
1.0421e-06
-4.7444e-06
2.89523e-06
-5.08041e-06
1.11129e-06
1.48762e-06
-6.48272e-06
1.46128e-06
-3.91558e-06
-4.576e-06
-3.80904e-06
-4.51992e-06
1.43154e-06
-5.43374e-06
-1.33035e-06
-3.54936e-06
-1.59452e-06
-3.01861e-06
-1.32331e-06
-1.08843e-06
-2.64954e-06
5.43077e-06
-2.99244e-06
-1.32895e-06
4.40652e-06
-4.3517e-06
-1.38518e-06
-3.9677e-06
4.00715e-06
-2.92808e-06
-4.87236e-06
5.26696e-06
-3.99654e-06
-3.69731e-06
-3.69663e-06
2.96846e-06
-3.888e-06
-1.22098e-06
1.34426e-06
1.11791e-06
-1.12102e-06
-3.70043e-06
4.95903e-06
1.57102e-06
-1.56544e-06
-5.07895e-06
5.12918e-06
1.57769e-06
-1.62791e-06
1.53116e-06
4.55124e-06
-1.46407e-06
-1.5495e-06
4.37313e-06
1.47197e-06
3.37977e-06
2.09214e-08
1.55834e-06
1.3328e-09
-1.70052e-06
3.28955e-06
4.82204e-06
5.03595e-06
-5.13634e-06
1.61428e-06
-1.51389e-06
-5.15828e-06
5.05176e-06
1.64315e-06
-1.53662e-06
1.57124e-06
-4.59241e-06
4.5467e-06
-1.52553e-06
-1.52639e-06
-4.59936e-06
4.59122e-06
1.53453e-06
3.4625e-06
-6.09585e-08
1.63441e-06
-8.97346e-08
-1.60605e-06
3.28903e-06
-4.87638e-06
4.77054e-06
3.6378e-06
1.37286e-06
-1.23944e-06
-3.8507e-06
1.38625e-06
3.76407e-06
-1.29962e-06
1.35627e-06
3.58617e-06
-1.17171e-06
-1.16665e-06
1.30557e-06
3.49077e-06
2.43878e-06
-1.34311e-07
1.33333e-06
-1.68372e-07
-1.24354e-06
2.34532e-06
3.53322e-06
3.72899e-06
-1.3502e-06
1.30619e-06
-3.83357e-06
-1.35001e-06
3.84901e-06
1.33458e-06
1.29552e-06
-1.24187e-06
3.56306e-06
-1.25247e-06
3.57895e-06
1.29351e-06
2.47202e-06
-2.72212e-08
1.2842e-06
-5.89379e-08
-1.30262e-06
2.4198e-06
3.65639e-06
-1.44547e-08
3.4885e-06
1.65513e-06
1.50968e-06
3.05953e-06
-1.79737e-08
2.93839e-06
-7.43599e-09
1.44217e-06
-4.50388e-06
3.04602e-06
-4.59124e-08
1.50378e-06
-4.83504e-06
1.5244e-06
3.29618e-06
1.49669e-06
-4.47055e-06
1.49107e-06
-3.54687e-08
-3.93488e-08
-1.60849e-06
-1.4969e-06
-5.64467e-08
-3.10453e-06
-9.51496e-08
-1.39274e-06
4.57436e-06
-3.87269e-08
-1.47611e-06
4.80983e-06
-1.553e-06
-1.56345e-06
4.60287e-06
-1.58152e-06
-6.5117e-08
1.33806e-06
2.80608e-06
2.83554e-06
-4.18488e-06
2.78895e-06
5.68564e-08
2.44246e-06
1.36301e-06
3.71664e-06
4.16307e-06
1.32443e-06
2.44907e-06
4.14021e-06
1.06897e-07
3.64114e-06
-1.34857e-06
4.08108e-06
-2.80146e-06
4.09254e-06
1.25123e-06
4.2223e-06
3.80719e-06
1.35572e-06
3.81433e-06
-2.71601e-06
1.32146e-06
5.42937e-07
8.51648e-07
8.42782e-07
-2.71105e-06
1.23141e-06
6.36868e-07
1.34709e-06
-2.63874e-06
3.90685e-07
9.00964e-07
5.33164e-07
-2.63688e-06
1.14532e-06
9.5841e-07
-2.13681e-06
-1.83222e-06
1.25306e-06
-1.83697e-06
5.42945e-07
-2.2378e-06
9.38766e-07
-2.72769e-06
-2.61997e-06
8.04116e-07
1.13228e-06
6.83575e-07
7.56821e-07
1.22821e-06
5.98642e-07
-2.58366e-06
1.21846e-06
9.21016e-07
4.07489e-07
-2.54695e-06
7.04215e-07
8.25101e-07
9.79071e-07
-2.50838e-06
-1.94067e-06
-1.81431e-06
1.13502e-06
-1.82511e-06
6.41272e-07
-1.95481e-06
8.44722e-07
-2.56146e-06
-2.58419e-06
1.3608e-06
2.64291e-07
9.59095e-07
9.82063e-07
1.34153e-06
2.07137e-07
-2.53072e-06
1.41279e-06
8.57671e-08
-2.49262e-06
9.94074e-07
2.01445e-07
1.29481e-06
-2.48567e-06
9.89421e-07
-2.31526e-06
-1.59114e-06
1.32223e-06
-1.58051e-06
2.47323e-07
-2.36841e-06
9.7872e-07
-2.53613e-06
-2.50158e-06
5.1681e-07
9.50616e-07
1.03414e-06
9.44329e-07
6.58532e-07
8.57644e-07
-2.4605e-06
1.09022e-06
3.20239e-07
-2.44288e-06
1.03244e-06
5.59877e-07
6.90425e-07
-2.36032e-06
1.10999e-06
-1.9207e-06
-1.49156e-06
9.10685e-07
-1.52011e-06
5.43758e-07
-2.00174e-06
1.07005e-06
-2.43163e-06
-1.85584e-06
-2.03108e-06
1.17586e-06
1.27395e-06
-2.21793e-06
-1.69479e-06
-2.01925e-06
-1.65982e-06
1.04218e-06
2.56842e-06
-1.91263e-06
-1.6807e-06
1.02491e-06
9.02363e-07
-6.14852e-07
-2.14338e-06
-5.51387e-07
8.78848e-07
1.07471e-06
-1.69179e-06
-1.84066e-06
6.13694e-07
6.11395e-07
-1.69892e-06
2.17827e-06
-1.6572e-06
3.99958e-07
-9.19145e-07
-1.69966e-06
4.00865e-07
-2.69355e-06
-1.2905e-06
-1.23743e-06
-2.61437e-06
4.04727e-07
-1.67353e-06
-3.58775e-07
-2.29608e-06
9.60075e-07
-2.20636e-06
1.06335e-06
9.68449e-07
-1.9906e-06
1.53832e-06
-2.22293e-06
1.00488e-06
1.22758e-06
-2.54684e-06
9.60493e-07
-2.67056e-06
1.15835e-06
-2.16684e-06
-2.63494e-06
1.55501e-06
-2.48311e-06
-1.16332e-06
-2.5262e-06
2.23777e-06
-2.55343e-06
-3.69688e-07
-9.43007e-07
-9.81508e-07
-3.78762e-07
-2.52359e-06
-4.96598e-06
4.98318e-06
1.44214e-06
-1.45936e-06
5.12961e-06
-5.05787e-06
1.47893e-06
-1.55068e-06
-1.39314e-06
-4.4191e-06
4.4762e-06
1.33603e-06
1.30955e-06
-4.51983e-06
4.56396e-06
-1.3537e-06
-3.5278e-06
7.73278e-08
-1.51551e-06
8.57619e-08
1.51606e-06
-3.29358e-06
4.68046e-06
-4.60096e-06
-5.16077e-06
5.25213e-06
1.46394e-06
-1.55529e-06
5.27861e-06
-4.97787e-06
1.3705e-06
-1.67122e-06
-1.31207e-06
4.18311e-06
-4.12874e-06
1.25771e-06
1.23629e-06
4.48232e-06
-4.33068e-06
-1.38793e-06
-3.68116e-06
1.79532e-07
-1.65915e-06
1.6046e-07
1.43699e-06
-3.16857e-06
4.58439e-06
-4.32017e-06
-4.04935e-06
-1.0816e-06
3.88157e-06
1.24939e-06
3.84757e-06
-1.0609e-06
-3.9738e-06
1.18715e-06
-9.70096e-07
3.73121e-06
-3.96688e-06
1.20574e-06
1.11568e-06
-9.31256e-07
3.61072e-06
-3.79518e-06
-2.81652e-06
-1.58949e-07
-1.07388e-06
-1.64339e-07
1.1954e-06
-2.70586e-06
3.66255e-06
-3.84029e-06
-3.89936e-06
1.07751e-06
3.90099e-06
-1.07913e-06
3.82658e-06
1.0712e-06
-3.82391e-06
-1.07388e-06
-9.32211e-07
1.02231e-06
3.56908e-06
-3.65921e-06
9.92903e-07
3.60306e-06
-3.6403e-06
-9.55675e-07
-2.79732e-06
-4.07901e-08
-1.06127e-06
-4.00661e-08
1.06933e-06
-2.62715e-06
3.57924e-06
-3.59943e-06
1.21088e-07
-3.59758e-06
-1.58138e-06
-1.35149e-06
-3.05483e-06
-1.27572e-08
-3.22551e-06
3.04246e-08
-1.32474e-06
4.42761e-06
-3.16839e-06
4.51023e-08
-1.30433e-06
4.66051e-06
-1.27347e-06
-3.26596e-06
-1.29194e-06
4.53905e-06
-1.38491e-06
2.1604e-08
1.12223e-07
1.54233e-06
1.25081e-06
6.31185e-08
2.93037e-06
-3.51396e-08
1.28788e-06
-4.34507e-06
-2.97648e-08
1.32e-06
-4.5461e-06
1.39236e-06
1.2891e-06
-4.25008e-06
1.29737e-06
-3.06044e-08
-1.14677e-06
-2.82053e-06
3.95456e-06
-2.84582e-06
3.95374e-06
3.94261e-06
-2.82631e-06
7.81765e-08
-2.62013e-06
3.56423e-06
-1.10046e-06
-3.99755e-06
3.95124e-06
-3.92468e-06
-1.08725e-06
-2.83211e-06
-3.93189e-06
9.58201e-08
-3.6472e-06
1.0899e-06
-3.85308e-06
2.75028e-06
-3.84631e-06
-1.15231e-06
-3.85345e-06
-3.8886e-06
-1.13377e-06
-3.93247e-06
-4.99043e-06
4.83939e-06
-1.34746e-06
1.49847e-06
4.96042e-06
-5.03143e-06
-1.50131e-06
1.57228e-06
1.4637e-06
-4.43343e-06
4.28361e-06
-1.3139e-06
-1.43863e-06
-4.60867e-06
4.5533e-06
1.49399e-06
-6.54017e-06
-4.64377e-08
1.59616e-06
-3.23442e-08
-1.54741e-06
-5.97017e-06
4.4851e-06
-4.53881e-06
-4.99168e-06
5.01909e-06
-1.59392e-06
1.56649e-06
5.00584e-06
-1.59054e-06
1.56787e-06
1.45408e-06
4.43296e-06
-1.41084e-06
-1.53816e-06
4.61872e-06
1.48339e-06
-6.61562e-06
4.67486e-08
1.57717e-06
5.2729e-08
-1.6625e-06
-6.18727e-06
4.69583e-06
-3.94685e-06
1.37035e-06
3.79166e-06
-1.21519e-06
3.77332e-06
1.3398e-06
-1.23157e-06
1.32495e-06
3.51962e-06
-1.11335e-06
-1.13117e-06
1.28825e-06
3.45365e-06
-5.12378e-06
-1.70233e-07
1.34713e-06
-1.64861e-07
-1.18561e-06
-4.82263e-06
3.52115e-06
-3.95765e-06
-1.34074e-06
3.91892e-06
1.37946e-06
3.90431e-06
-1.35428e-06
1.35094e-06
1.27982e-06
-1.18017e-06
3.46944e-06
-1.22988e-06
3.55507e-06
1.27787e-06
-5.28933e-06
-4.25235e-08
1.37418e-06
-3.44794e-08
-1.35054e-06
-4.82457e-06
3.55211e-06
8.00187e-09
-6.66722e-06
1.62777e-06
1.43644e-06
-5.76186e-06
-1.08009e-07
-6.09234e-06
-1.57698e-08
1.49944e-06
4.61795e-06
-6.14018e-06
1.17674e-08
1.51045e-06
4.5696e-06
1.50383e-06
-6.06544e-06
1.46722e-06
4.61549e-06
1.50628e-06
-9.62472e-09
5.59271e-09
-1.65372e-06
-1.53858e-06
1.71122e-08
5.84676e-06
-4.19665e-08
-1.37184e-06
-4.34105e-06
-1.17102e-07
-1.30372e-06
-4.62053e-06
-1.43933e-06
-1.46328e-06
-4.43345e-06
-1.34694e-06
-4.99626e-08
1.25039e-06
-5.22705e-06
3.86864e-06
-5.35794e-06
4.00143e-06
3.98462e-06
-5.32715e-06
8.80454e-08
-4.76149e-06
3.49321e-06
1.36456e-06
-3.98085e-06
3.86668e-06
-4.003e-06
1.36892e-06
-5.26172e-06
-3.97379e-06
9.09898e-08
-1.3563e-06
5.25241e-06
1.27342e-06
-3.90008e-06
-3.89731e-06
1.30237e-06
-5.33689e-07
1.56533e-06
2.89828e-07
-1.21863e-06
-7.65892e-07
1.58636e-06
3.98168e-07
3.1213e-07
-6.47011e-07
1.56627e-06
1.4605e-06
-7.65414e-07
4.50244e-07
9.34066e-07
-1.83086e-06
3.63117e-07
-1.873e-06
1.58843e-06
8.82736e-07
-6.78131e-07
-1.04458e-06
-1.08844e-06
1.57801e-06
5.55022e-07
-8.45267e-07
1.44992e-06
-1.27195e-06
6.67303e-07
5.845e-07
-8.43761e-07
1.57183e-06
-1.31256e-06
1.28626e-06
-7.54233e-07
-1.32069e-06
7.88662e-07
3.40067e-07
-2.03799e-06
6.5335e-07
-2.06068e-06
1.55548e-06
8.65264e-08
-8.38242e-07
-1.38964e-06
-7.1569e-07
2.79614e-07
1.56835e-06
-1.0142e-06
3.33765e-07
1.63539e-06
-9.54983e-07
1.92248e-07
1.66691e-06
-6.30943e-07
1.53251e-06
3.08961e-07
-8.62408e-07
8.19621e-07
-1.82601e-06
2.9067e-07
-1.83987e-06
1.64529e-06
8.41518e-07
-8.0611e-07
-9.47571e-07
1.27032e-06
6.27847e-07
-7.6975e-07
1.21501e-06
-1.21593e-06
7.70681e-07
5.25114e-07
1.37426e-06
-1.04174e-06
1.15076e-06
-1.16108e-06
7.00736e-07
2.00449e-07
-1.82195e-06
6.73922e-07
-1.86383e-06
1.29452e-06
2.39479e-07
-1.09924e-06
-1.95879e-06
6.81038e-07
5.11875e-07
3.42668e-07
8.41762e-07
-1.83148e-06
5.00965e-07
-1.82453e-06
5.5814e-07
1.08852e-06
1.39626e-07
-1.93466e-06
7.06493e-07
-1.13035e-06
-1.40216e-06
5.73711e-07
-1.46582e-06
-9.32529e-07
6.18889e-07
-1.89738e-06
-2.01277e-06
1.60537e-06
1.35655e-06
-1.97115e-06
-5.30042e-07
-1.93706e-06
1.62333e-06
1.11273e-06
-1.88929e-06
1.6183e-06
-1.01661e-06
-4.22468e-07
-4.98315e-07
-8.99451e-07
1.5897e-06
-1.92781e-06
-1.474e-06
8.18376e-07
4.87952e-07
-8.35902e-07
1.16267e-07
1.81917e-06
5.80003e-07
4.45022e-07
-8.44311e-07
-9.64409e-07
5.05787e-07
4.69072e-07
-7.91302e-07
1.84723e-06
-9.58273e-07
-6.14135e-07
-1.24075e-06
-4.98022e-07
-1.10528e-06
-1.51139e-06
1.01075e-06
8.04913e-07
-1.41507e-06
-1.22429e-06
-6.47211e-07
-1.66431e-06
2.96727e-06
-6.55708e-07
-5.31151e-07
-5.38322e-07
-1.72515e-06
2.79463e-06
2.64068e-06
-4.85642e-07
-1.54407e-06
-6.10915e-07
-1.45343e-06
-4.51683e-07
2.88493e-06
-9.79753e-07
-2.19104e-06
-1.33579e-06
2.87963e-06
-1.10577e-06
-1.61641e-06
-1.98606e-06
-8.03122e-07
-4.51154e-07
-4.17619e-07
-3.86499e-07
-1.85035e-06
2.65448e-06
-2.76349e-07
-1.94057e-06
2.57838e-06
-3.61506e-07
2.46902e-06
-2.70646e-07
-1.81939e-06
-3.78931e-07
-1.80682e-06
-4.80912e-07
2.59581e-06
-3.08137e-07
-2.27023e-06
-7.603e-07
2.61287e-06
-6.66749e-07
-1.87981e-06
-2.13744e-06
-4.29689e-07
-3.35175e-07
-4.19398e-07
2.4206e-06
-1.62384e-06
-3.77345e-07
-2.11675e-07
2.37281e-06
-1.7388e-06
-4.22404e-07
2.25541e-06
-1.75091e-06
-2.54194e-08
-4.79066e-07
-1.63399e-06
2.38589e-06
-4.46842e-07
-3.05e-07
-2.1149e-06
-7.46969e-07
2.44247e-06
-5.67049e-07
-1.7595e-06
-2.0486e-06
-3.323e-07
-3.60231e-07
-2.40817e-07
-1.53537e-06
2.87682e-06
-1.10056e-06
-7.63925e-07
-1.69261e-06
2.64436e-06
-1.87867e-07
2.57913e-06
-1.48775e-06
-9.78509e-07
-1.12815e-07
-1.56879e-06
2.7341e-06
-1.15593e-06
-9.33386e-09
-1.77894e-06
-1.14484e-06
2.68302e-06
-9.62087e-07
-1.58075e-06
-1.66174e-06
-1.05181e-06
-4.46908e-08
-1.03028e-06
-2.20709e-06
2.69904e-06
2.63187e-06
-2.07614e-06
-1.04136e-06
-1.94543e-06
-1.32465e-06
2.81836e-06
3.5196e-07
-2.06203e-06
-9.32183e-07
2.6422e-06
-6.30705e-07
1.65299e-06
-2.05262e-06
1.54999e-06
-7.12205e-07
2.71715e-06
-1.10766e-06
-8.86487e-07
-1.70715e-06
-1.73908e-06
-8.03885e-07
2.18018e-06
-6.60994e-07
-1.7899e-06
4.49011e-07
-8.72779e-07
-1.65234e-06
-3.76415e-07
-2.56271e-06
-2.54519e-06
-4.38559e-07
-1.67515e-06
-8.03582e-07
1.54883e-06
-1.90597e-06
-6.84158e-07
-1.83878e-06
-1.02121e-06
-7.03876e-07
-1.92091e-06
1.0177e-06
-1.81114e-06
-6.94268e-07
2.67175e-06
-3.35525e-07
-7.87363e-07
-2.74703e-07
2.55933e-06
-1.87716e-06
-3.58158e-07
7.62198e-07
-1.87445e-07
-2.49609e-06
-2.28755e-07
2.04459e-06
-3.32778e-07
1.64099e-06
4.43305e-07
5.26013e-07
1.6843e-06
-2.85795e-07
3.05967e-07
-5.42992e-07
-1.51385e-06
-4.80794e-07
4.8565e-07
-1.62867e-06
1.83709e-06
2.11059e-07
-5.57428e-07
-1.49072e-06
-1.64187e-06
3.5402e-07
-4.50968e-07
-1.31461e-06
-1.38894e-07
-2.36506e-07
-1.55889e-06
-1.30399e-06
-4.76777e-07
2.96604e-07
7.03616e-07
-4.82487e-07
-1.76517e-06
-5.91337e-07
7.9235e-07
-1.86537e-06
1.68249e-06
-5.01773e-07
5.07984e-07
-1.68873e-06
-1.86131e-06
-5.17643e-07
6.53771e-07
-1.11605e-06
2.0326e-07
7.479e-08
-1.78217e-06
-1.14691e-06
-5.11149e-07
6.10331e-07
1.74108e-07
1.87644e-06
-5.56771e-07
-1.49384e-06
-4.88189e-07
1.8216e-06
2.37172e-07
-1.57069e-06
1.92106e-06
1.16665e-07
-5.5437e-07
-1.48345e-06
-1.60491e-06
1.93629e-06
1.38894e-07
-4.70249e-07
-1.42109e-06
-3.22841e-07
1.91793e-06
-3.49535e-07
-1.55977e-06
-1.41645e-06
-5.11393e-07
1.55071e-07
3.51239e-07
-1.75869e-06
-4.11915e-07
-4.29943e-07
-1.86134e-06
4.40903e-07
1.95006e-06
-1.75197e-06
2.08313e-07
-4.06371e-07
-1.88e-06
3.12513e-07
-3.73118e-07
-1.44973e-06
-7.88735e-08
-1.06966e-07
-1.7727e-06
-1.56833e-06
-3.90568e-07
2.74733e-07
5.05841e-08
-1.21724e-06
1.83074e-06
-1.37397e-06
-2.45761e-07
-1.35289e-06
-8.29391e-08
-5.16515e-07
-1.25198e-06
6.134e-08
-4.58559e-07
1.75246e-06
-1.24331e-06
1.66879e-06
-4.39196e-07
-1.23279e-07
-3.9892e-08
-1.65984e-06
-1.73457e-06
-3.50422e-08
1.31352e-06
-1.67239e-07
-1.64816e-06
4.83845e-07
-2.99614e-07
-1.55826e-06
4.49442e-07
-1.73268e-06
-1.79632e-06
3.59175e-07
-1.60804e-06
-1.23642e-07
1.62005e-06
-1.35533e-06
-5.10558e-07
-1.41636e-06
-4.2521e-07
-4.38952e-07
-1.36099e-06
2.1449e-07
-1.52588e-06
-4.40516e-07
1.85732e-06
2.33505e-07
-4.70724e-07
3.17694e-07
1.89396e-06
-1.44593e-06
2.21471e-07
2.25689e-07
1.84743e-07
-1.80917e-06
4.13124e-07
1.34583e-06
3.08451e-07
1.66771e-06
4.71686e-07
4.47469e-07
1.69389e-06
3.32186e-07
-2.22002e-06
1.38774e-06
3.82033e-07
4.50254e-07
3.10488e-07
-2.17315e-06
1.37302e-06
4.89636e-07
1.4666e-06
-2.24793e-06
3.83072e-07
3.98267e-07
4.51692e-07
-2.21724e-06
1.39918e-06
3.66382e-07
-1.75663e-06
-1.87029e-06
1.40691e-06
-1.87268e-06
4.26536e-07
-1.8144e-06
3.95806e-07
-2.22048e-06
-2.0825e-06
2.66843e-07
1.27037e-06
5.45282e-07
2.35894e-07
1.19096e-06
-2.0354e-06
6.08553e-07
1.22938e-06
2.66421e-07
-2.0608e-06
5.64973e-07
6.28902e-07
2.43207e-07
1.18423e-06
-2.05635e-06
-1.4931e-06
-1.84099e-06
1.25158e-06
-1.81466e-06
5.57438e-07
-1.46043e-06
2.48331e-07
-2.0457e-06
-2.20916e-06
1.45491e-06
3.43918e-07
4.10332e-07
2.96228e-07
1.31664e-06
-2.10662e-06
4.93751e-07
1.40598e-06
-2.1559e-06
2.98556e-07
4.51348e-07
5.13754e-07
1.29469e-06
-2.12201e-06
3.13583e-07
-1.70675e-06
-1.89603e-06
1.39362e-06
-1.86628e-06
4.55756e-07
-1.68072e-06
2.98443e-07
-2.14103e-06
-2.20591e-06
5.79076e-07
1.29675e-06
3.3009e-07
2.57578e-07
6.81524e-07
1.16499e-06
-2.10408e-06
1.21355e-06
6.1081e-07
-2.15849e-06
3.34137e-07
7.69036e-07
1.15686e-06
-2.18899e-06
2.63099e-07
-1.55602e-06
-1.90291e-06
1.25303e-06
-1.89587e-06
5.97434e-07
-1.47019e-06
3.36319e-07
-2.15252e-06
-1.9004e-06
-1.63795e-06
1.36521e-06
1.41327e-06
-1.77279e-06
-1.88841e-06
-1.68535e-06
-1.89957e-06
1.36769e-06
2.13191e-06
-1.52221e-06
-1.86889e-06
1.25919e-06
3.16663e-07
-5.69714e-07
-1.64735e-06
-4.90542e-07
2.80843e-07
1.28136e-06
-1.89505e-06
-1.86596e-06
4.94844e-07
5.81538e-07
-1.86054e-06
1.6036e-06
-1.8367e-06
4.99519e-07
-3.26815e-07
-1.8767e-06
4.30716e-07
-2.15276e-06
-1.36054e-06
-1.32289e-06
-2.14931e-06
4.6195e-07
-1.8686e-06
-4.59e-07
-1.77647e-06
3.47039e-07
-1.68276e-06
3.62258e-07
2.72595e-07
-1.45996e-06
1.88408e-06
-1.55364e-06
2.80365e-07
1.37505e-06
-2.18304e-06
3.4899e-07
-2.20276e-06
1.33273e-06
-1.63168e-06
-2.19825e-06
1.87289e-06
-2.13184e-06
-1.22966e-06
-2.09084e-06
1.57046e-06
-2.09052e-06
-5.19654e-07
-2.84974e-07
-2.78444e-07
-5.83113e-07
-2.09122e-06
4.0407e-07
-3.66386e-06
-1.79657e-06
-5.9615e-07
-3.1785e-07
-3.15114e-06
3.61118e-06
1.24679e-07
-2.81454e-06
-9.21322e-07
-2.98465e-06
-3.34578e-07
-6.26484e-07
-3.31907e-06
-9.38476e-07
-6.80322e-07
-3.2349e-06
-2.77476e-06
-1.14837e-06
1.56093e-07
-5.79288e-07
-3.83981e-07
-2.92596e-06
-1.27247e-07
-2.9258e-06
-9.07187e-07
3.61887e-06
-3.48033e-07
-2.72716e-06
-5.43684e-07
-2.85663e-06
-2.6346e-07
-6.42718e-07
-3.54969e-06
-9.07301e-07
-8.20796e-07
-2.85614e-06
-3.45643e-06
-3.07504e-07
-6.58355e-07
-8.5552e-08
3.28512e-06
-2.50215e-06
-6.97425e-07
-5.45904e-07
3.32698e-06
-2.51025e-06
-2.70818e-07
3.17464e-06
-2.32785e-06
-1.62945e-07
-6.83852e-07
-2.52569e-06
3.28431e-06
-1.818e-07
-5.7683e-07
-2.64119e-06
-6.97246e-07
3.25287e-06
-7.59036e-07
-2.42805e-06
-2.62498e-06
-5.97965e-07
-2.09369e-07
-3.51642e-07
-2.75258e-06
-6.46181e-07
-3.20544e-07
-2.88699e-06
-4.66301e-07
3.47971e-06
-2.74373e-06
-2.8129e-07
-4.54694e-07
-2.9088e-06
-3.94499e-07
-3.94245e-07
-3.27005e-06
-7.31778e-07
-6.70748e-07
-2.91984e-06
-3.14554e-06
-4.95044e-07
-3.36575e-07
-8.76495e-07
-3.32937e-06
3.58605e-06
-2.7646e-06
-6.96779e-07
-3.37622e-06
-9.54899e-07
4.28985e-07
-3.3565e-06
-7.691e-07
-6.49279e-07
2.87585e-06
-3.10307e-06
3.09286e-06
-3.95593e-07
-6.78954e-07
-7.69328e-07
-2.94402e-06
-2.88624e-06
-7.33717e-07
3.02242e-06
-7.14982e-07
-2.65548e-06
6.04773e-07
-7.05652e-07
-2.66373e-06
-3.17738e-07
-3.55466e-06
-3.51149e-06
-2.42157e-07
-2.70773e-06
-7.31224e-07
2.73272e-06
-2.69421e-06
-7.35287e-07
-2.96552e-06
-7.41963e-07
-3.95296e-07
-3.2608e-06
6.70025e-07
-2.87065e-06
-5.43115e-07
3.51999e-06
-1.11742e-07
-6.75539e-07
-1.24486e-07
3.43962e-06
-2.88135e-06
-1.14741e-07
6.67784e-07
-2.54132e-07
-3.52977e-06
-4.64733e-07
2.95548e-06
-3.43479e-07
2.64829e-06
4.89841e-07
4.3473e-07
2.7141e-06
-3.80934e-07
-3.75766e-06
2.50823e-06
1.79235e-06
1.91667e-06
-3.72604e-06
2.44625e-06
-5.10864e-07
-3.84527e-06
2.66781e-06
1.68832e-06
2.37829e-06
-3.72185e-06
1.73424e-06
-1.32287e-06
-1.89183e-06
-1.93514e-06
2.52892e-06
-1.26397e-06
1.75042e-06
-3.70998e-06
-3.64689e-06
1.88565e-06
2.44481e-06
1.80493e-06
2.37989e-06
-4.04143e-07
1.55138e-06
2.61681e-06
2.29158e-06
1.60669e-06
-1.15043e-06
-1.85518e-06
-1.90839e-06
2.56288e-06
-1.22069e-06
1.65708e-06
-4.5202e-06
-4.10277e-07
3.19136e-06
1.7391e-06
1.5269e-06
-2.42642e-07
3.26241e-06
-1.82433e-07
3.69019e-06
1.54399e-06
3.19904e-06
-6.5722e-08
1.4579e-06
-1.27288e-06
-2.88174e-06
-3.65587e-07
-3.18694e-06
3.44095e-06
-1.40116e-06
1.71846e-06
-3.66524e-06
2.31081e-06
1.61871e-06
1.53301e-06
2.23718e-06
-8.15219e-08
2.53236e-06
1.39817e-06
2.21015e-06
1.45457e-06
-1.3463e-06
-2.0716e-06
-2.19929e-06
2.386e-06
-1.37558e-06
1.51412e-06
-1.86435e-06
-1.24802e-06
-4.8877e-07
-1.14126e-06
-2.21525e-06
-1.32818e-06
-1.99281e-06
3.67227e-06
-1.27953e-06
-1.99277e-06
1.76211e-06
-2.34664e-06
-1.27982e-06
-2.43664e-06
1.73035e-06
-2.03448e-06
-1.93623e-06
2.57388e-06
2.44735e-06
-2.1202e-06
1.12806e-06
-2.51272e-06
2.93602e-06
-1.65369e-06
-2.33742e-06
2.84983e-06
-3.68313e-06
4.67058e-07
4.21295e-07
-3.8646e-06
2.67796e-06
-2.31525e-06
-2.65137e-06
-1.24838e-06
1.68449e-06
-1.33426e-06
1.65225e-06
1.56235e-06
-1.31794e-06
2.36948e-06
-1.37622e-06
1.53911e-06
-3.21571e-07
-3.94427e-06
1.61446e-06
-3.69031e-06
-2.58039e-07
-1.31674e-06
-3.99606e-06
2.63914e-06
2.02994e-07
1.33718e-06
-2.78322e-06
-1.57842e-06
-1.46083e-06
-2.55649e-06
-1.36877e-06
1.08993e-06
5.86529e-07
-3.07673e-07
1.06572e-06
-1.3357e-06
5.67634e-07
-2.97659e-07
5.94151e-07
-1.385e-06
1.11117e-06
-3.20267e-07
-3.08435e-07
-1.31821e-06
1.07007e-06
5.56588e-07
-1.66584e-06
-2.7968e-07
5.76727e-07
-2.82218e-07
-3.17882e-07
-1.68248e-06
1.09445e-06
-1.37053e-06
-1.28366e-06
1.028e-06
5.32587e-07
-2.7694e-07
9.68365e-07
4.31606e-07
-2.09024e-07
5.11378e-07
1.04146e-06
-2.82495e-07
-2.11194e-07
9.58252e-07
4.37182e-07
-1.51111e-06
-2.70707e-07
4.98138e-07
-2.68652e-07
-2.74092e-07
-1.49431e-06
1.01241e-06
-1.39312e-06
5.9651e-07
1.12823e-06
-3.31592e-07
1.11336e-06
5.82708e-07
-3.23036e-07
6.01108e-07
1.1355e-06
-3.48843e-07
-3.40608e-07
5.89641e-07
1.15015e-06
-1.72719e-06
-2.65989e-07
6.00054e-07
-2.70109e-07
-3.4371e-07
-1.73791e-06
1.13133e-06
-1.27974e-06
-2.97404e-07
1.06315e-06
5.13993e-07
9.79155e-07
-1.98559e-07
3.84403e-07
5.0383e-07
-3.13046e-07
1.10598e-06
-2.19288e-07
9.77767e-07
3.98387e-07
-1.48876e-06
-2.37997e-07
4.46989e-07
-2.37024e-07
-2.72574e-07
-1.51984e-06
1.06257e-06
-2.77685e-07
-1.62e-06
5.61954e-07
5.97989e-07
-1.7096e-06
-2.7332e-07
-1.58229e-06
-2.62587e-07
5.26678e-07
1.24888e-06
-1.46383e-06
-2.56248e-07
4.71227e-07
1.07515e-06
2.51978e-07
-1.60478e-06
3.02608e-07
1.02007e-06
4.80792e-07
-2.59616e-07
-2.82098e-07
-3.09889e-07
-2.48573e-07
-2.57011e-07
1.62583e-06
-2.73812e-07
-3.10609e-07
-1.09536e-06
-2.77304e-07
-3.3694e-07
-1.31577e-06
-5.71139e-07
-5.51951e-07
-1.35043e-06
-3.1609e-07
-2.76547e-07
3.19924e-07
-1.70768e-06
1.1145e-06
-1.64618e-06
1.08621e-06
1.05458e-06
-1.50936e-06
2.62353e-07
-1.69516e-06
1.11976e-06
5.63963e-07
-1.34804e-06
1.10401e-06
-1.34183e-06
5.59823e-07
-1.64552e-06
-1.38847e-06
2.62173e-07
-5.07174e-07
1.67412e-06
3.20647e-07
-1.10906e-06
-1.0627e-06
2.88514e-07
-2.72972e-06
-7.31012e-07
1.22467e-06
2.2361e-06
2.16824e-06
-2.66781e-06
-7.1951e-07
1.21908e-06
1.17203e-06
-2.67036e-06
-6.60642e-07
2.15897e-06
-6.11179e-07
-2.61151e-06
1.19324e-06
2.02945e-06
-3.4204e-06
-5.24826e-07
1.21552e-06
-5.24785e-07
-7.2737e-07
-3.3117e-06
2.17571e-06
-2.66446e-06
-2.59801e-06
2.09278e-06
-7.28827e-07
1.23406e-06
1.99455e-06
-7.18389e-07
1.25643e-06
-2.53261e-06
1.17745e-06
1.97944e-06
-6.32585e-07
-2.52431e-06
-5.44794e-07
1.81917e-06
1.20356e-06
-2.47794e-06
-3.2556e-06
-5.66438e-07
1.22404e-06
-5.82206e-07
-6.78839e-07
-3.08594e-06
1.97471e-06
-2.4907e-06
-2.59381e-06
1.13384e-06
-5.83057e-07
2.04302e-06
1.95378e-06
1.1382e-06
-5.79261e-07
-2.51273e-06
1.11457e-06
-4.93831e-07
-2.54228e-06
1.92152e-06
-4.47594e-07
1.10453e-06
-2.47867e-06
1.82173e-06
-3.11894e-06
-6.18705e-07
1.14383e-06
-6.27377e-07
-5.37786e-07
-2.99041e-06
1.92411e-06
-2.50322e-06
-2.48711e-06
-4.74965e-07
1.15227e-06
1.80979e-06
1.69887e-06
-4.12191e-07
1.14673e-06
-2.4334e-06
1.09825e-06
-3.84024e-07
-2.43024e-06
1.716e-06
-3.10512e-07
1.09082e-06
-2.39584e-06
1.61553e-06
-2.89088e-06
-7.42869e-07
1.14664e-06
-7.51931e-07
-4.40079e-07
-2.74116e-06
1.68778e-06
-2.39485e-06
-5.29975e-07
-3.35529e-06
1.21745e-06
1.17397e-06
-3.29653e-06
-5.47813e-07
-3.17291e-06
-6.23609e-07
1.18498e-06
2.53878e-06
-3.06725e-06
-6.63056e-07
1.19152e-06
2.10227e-06
5.82214e-07
-3.21449e-06
6.11759e-07
1.92605e-06
1.19492e-06
-6.351e-07
-5.44692e-07
-7.17826e-07
-5.65963e-07
-6.82123e-07
3.18517e-06
-5.94907e-07
-6.10854e-07
-2.09443e-06
-5.60105e-07
-6.42018e-07
-2.5823e-06
-1.17689e-06
-1.17355e-06
-2.59803e-06
-6.73305e-07
-5.8642e-07
5.42121e-07
-3.1581e-06
2.06816e-06
-3.02348e-06
1.9249e-06
1.80872e-06
-2.88397e-06
6.73808e-07
-2.86525e-06
1.80741e-06
1.14802e-06
-2.56104e-06
1.95514e-06
-2.51057e-06
1.14192e-06
-3.02916e-06
-2.58437e-06
6.80393e-07
-2.44112e-06
-1.13603e-06
-2.43007e-06
3.0396e-06
-2.49632e-06
5.23122e-07
-1.96367e-06
-1.82565e-06
4.89505e-07
-2.47218e-06
-3.90405e-06
2.58293e-06
-5.97795e-07
1.91891e-06
2.84953e-06
-4.11197e-06
-6.15042e-07
1.87749e-06
2.25259e-06
-4.97346e-06
3.71863e-06
-9.97757e-07
-8.84179e-07
-3.86365e-06
2.95421e-06
1.79361e-06
-4.69979e-06
-1.22559e-06
2.02132e-06
-1.16577e-06
-6.84488e-07
-5.58081e-06
3.47104e-06
-4.494e-06
-4.18476e-06
3.07146e-06
-7.32265e-07
1.84557e-06
3.20781e-06
-4.15629e-06
-1.00118e-06
1.94966e-06
1.87532e-06
3.28663e-06
-4.19058e-06
-9.71369e-07
-7.8279e-07
2.55105e-06
-3.37201e-06
1.60375e-06
-5.0257e-06
-1.02835e-06
1.8693e-06
-1.03411e-06
-7.83776e-07
-4.7603e-06
2.94916e-06
-3.91909e-06
-4.76587e-06
2.1894e-06
3.60195e-06
-1.02548e-06
3.44964e-06
2.06684e-06
-4.41428e-06
-1.1022e-06
2.11053e-06
3.5636e-06
-4.7164e-06
-9.57727e-07
-8.41322e-07
1.77492e-06
2.97206e-06
-3.90566e-06
-5.73628e-06
-1.19674e-06
2.16714e-06
-1.25181e-06
-1.03483e-06
-5.47601e-06
3.43795e-06
-4.6173e-06
-2.9097e-06
-4.80666e-07
2.06854e-06
1.32183e-06
2.0655e-06
-5.47781e-07
-2.80038e-06
1.28267e-06
1.36736e-06
-6.49819e-07
2.18512e-06
-2.90266e-06
-4.98393e-07
1.93114e-06
-2.64924e-06
1.2165e-06
-3.3694e-06
-8.14714e-07
1.27442e-06
-8.42567e-07
-4.61335e-07
-3.44658e-06
2.13347e-06
-2.92179e-06
-1.10476e-06
-4.94982e-06
1.94261e-06
2.12733e-06
-5.91581e-06
-1.18498e-06
-4.47255e-06
-1.01758e-06
1.62648e-06
3.44361e-06
-4.16869e-06
-8.87029e-07
1.61211e-06
3.20618e-06
7.20841e-07
-5.03179e-06
8.39511e-07
2.66331e-06
1.50115e-06
-9.6973e-07
-1.14148e-06
-7.36888e-07
-7.52417e-07
-8.65217e-07
5.45807e-06
-1.16003e-06
-1.01141e-06
-3.56056e-06
-1.32935e-06
-1.0259e-06
-4.07467e-06
-2.0986e-06
-1.87792e-06
-4.66606e-06
-9.93098e-07
-1.08591e-06
8.63033e-07
-5.44604e-06
3.39802e-06
-4.15806e-06
2.65982e-06
2.31988e-06
-3.75468e-06
1.00129e-06
-4.3971e-06
2.74599e-06
1.67739e-06
-3.72348e-06
2.90912e-06
-3.4504e-06
1.59186e-06
-4.31404e-06
-4.586e-06
9.8488e-07
-3.60706e-06
-1.43073e-06
-3.18917e-06
5.03609e-06
-4.12928e-06
8.34897e-07
-3.25375e-06
-2.49426e-06
6.96421e-07
-3.22858e-06
4.05589e-06
4.43431e-07
-1.91639e-06
-2.00048e-06
4.98243e-06
7.36682e-07
-3.03982e-06
4.14986e-06
6.16347e-07
-1.7264e-06
6.06946e-07
4.03945e-06
-1.69219e-06
5.07211e-06
2.45481e-06
2.38273e-06
6.88906e-07
4.88716e-06
-1.8254e-06
4.23007e-06
5.13549e-06
-2.30156e-06
7.68024e-07
-2.30527e-06
5.09525e-06
7.73619e-07
-3.38746e-06
-2.04989e-06
4.6812e-06
7.56151e-07
6.13186e-07
-1.82701e-06
4.18588e-06
5.91537e-06
2.65806e-06
2.85906e-06
7.51038e-07
5.28415e-06
-2.01291e-06
4.75576e-06
4.03588e-06
-2.93295e-06
6.3323e-07
-1.73616e-06
-1.80493e-06
-3.06403e-06
4.14929e-06
7.1966e-07
-2.92338e-06
3.99486e-06
6.64465e-07
-1.73595e-06
6.25526e-07
-2.60646e-06
3.65037e-06
-1.66944e-06
4.71244e-06
2.2819e-06
-2.95846e-06
2.24184e-06
6.65668e-07
4.72e-06
-1.81257e-06
4.03847e-06
2.99546e-06
5.38939e-07
-1.46587e-06
-1.31625e-06
5.03529e-07
2.99784e-06
-2.12822e-06
5.05504e-07
2.98197e-06
-1.35926e-06
4.50982e-07
2.66391e-06
-1.18375e-06
3.46286e-06
1.66608e-06
1.58729e-06
5.59324e-07
3.44349e-06
-1.32643e-06
2.90256e-06
2.53198e-06
5.84847e-06
-3.04623e-06
4.89602e-06
2.30007e-06
4.59416e-06
2.10512e-06
-4.08398e-06
4.75894e-06
2.07103e-06
-1.83112e-06
-6.49498e-07
5.0126e-06
-6.47287e-07
-1.82435e-06
2.12252e-06
2.81745e-06
7.29454e-07
6.7167e-07
2.26026e-06
-5.2755e-06
2.4853e-06
7.40302e-07
1.87157e-06
2.30077e-06
7.23678e-07
4.63818e-06
3.19188e-06
3.29694e-06
4.35429e-06
7.09163e-07
2.37573e-06
-6.25353e-07
4.72473e-06
-1.7993e-06
4.25412e-06
-1.61006e-06
-1.6047e-06
4.17925e-06
-2.00762e-06
4.15532e-06
-1.6422e-06
-2.71023e-06
3.81429e-06
-1.72942e-06
3.66641e-06
-2.62103e-06
4.4277e-06
4.09255e-06
-2.04791e-06
3.59677e-06
2.70612e-06
3.73339e-06
-4.8082e-06
4.22947e-06
-6.68057e-07
1.80215e-06
1.71173e-06
-6.30324e-07
3.78753e-06
2.1248e-06
3.42203e-06
-4.65794e-06
-8.8889e-07
-4.70761e-06
2.1931e-06
3.50785e-06
-9.93347e-07
3.42215e-06
2.10685e-06
-4.45628e-06
-1.07271e-06
-9.02521e-07
1.92408e-06
3.0261e-06
-4.04766e-06
1.23183e-06
-2.51899e-06
3.41196e-06
-2.50002e-06
-9.7576e-07
1.2016e-06
-4.62311e-06
2.12373e-06
2.20262e-06
-4.77571e-06
3.53396e-06
-9.60869e-07
-4.64562e-06
3.26254e-06
-5.16348e-07
1.89943e-06
3.18976e-06
-4.46118e-06
-6.30625e-07
1.90205e-06
-7.84089e-07
-3.74104e-06
2.84398e-06
1.68114e-06
1.35318e-06
-2.5717e-06
3.42114e-06
-2.51664e-06
-7.75799e-07
1.27061e-06
-4.62639e-06
1.94372e-06
1.96359e-06
3.28204e-06
-4.28909e-06
-9.56543e-07
-4.48561e-06
3.28186e-06
-7.26803e-07
1.93055e-06
3.46822e-06
-4.44028e-06
-9.47555e-07
1.91962e-06
-6.79633e-07
2.50666e-06
-3.17709e-06
1.35006e-06
1.10614e-06
-2.24356e-06
3.10102e-06
-2.60632e-06
-7.73149e-07
1.06433e-06
-3.98753e-06
1.92624e-06
1.3264e-06
-6.19006e-07
2.3375e-06
-3.0449e-06
-2.92215e-06
-5.46166e-07
2.25437e-06
1.21394e-06
2.14123e-06