/*--------------------------------*- C++ -*----------------------------------*\
| =========                 |                                                 |
| \\      /  F ield         | OpenFOAM: The Open Source CFD Toolbox           |
|  \\    /   O peration     | Version:  2506                                  |
|   \\  /    A nd           | Website:  www.openfoam.com                      |
|    \\/     M anipulation  |                                                 |
\*---------------------------------------------------------------------------*/
FoamFile
{
    version     2.0;
    format      ascii;
    arch        "LSB;label=32;scalar=64";
    class       volScalarField;
    location    "1000";
    object      p;
}
// * * * * * * * * * * * * * * * * * * * * * * * * * * * * * * * * * * * * * //

dimensions      [0 2 -2 0 0 0 0];

internalField   nonuniform List<scalar> 
60096
(
11.9326
74.5393
144.783
116.261
109.971
107.008
116.295
113.761
56.4645
50.4828
77.8908
65.3697
61.0784
63.6002
75.5781
73.393
200.877
157.626
243.847
200.747
200.086
195.184
224.115
204.368
118.929
87.0346
158.217
127.862
120.994
111.246
124.993
124.201
74.8792
137.662
121.516
85.2962
99.4048
113.293
89.3551
112.635
89.535
86.3629
104.512
139.434
94.9856
89.911
109.523
100.896
158.207
125.294
96.2153
169.401
158.222
132.616
149.66
125.41
158.33
159.738
99.1601
123.361
152.613
142.395
121.062
111.548
-899.303
-137.107
-132.47
-94.7449
317.574
11.475
-107.418
161.732
-90.8278
-23.3525
-30.011
8.92077
-71.5792
-47.7847
-7.86292
-19.3851
-10.6191
-3.05398
71.4893
46.2672
57.8243
34.9392
40.1539
21.1184
196.864
213.922
217.446
1174.05
1784.17
576.701
602.827
1100.25
-66.9158
11.0006
810.079
69.2223
-103.834
255.923
-293.614
-44.2074
-22.4952
-10.4464
-15.0128
-25.978
-119.879
-62.3019
-100.99
-24.1439
148.105
48.9446
43.2981
235.612
-74.2904
12.661
194.885
563.832
23.6877
269.221
12.3794
-51.8412
10.3225
20.129
-19.058
-53.8516
9.03376
18.0952
17.4776
20.847
14.7747
15.6677
16.7429
17.0152
22.7803
38.8616
44.1869
51.5761
35.9044
34.1903
39.6301
39.4331
25.0065
34.7679
16.2604
39.5959
31.1237
28.8839
29.2419
29.1016
34.5377
58.4238
56.5388
66.4103
51.4801
53.3274
55.0593
57.0905
22.1979
23.097
28.2723
46.0015
24.6302
28.4416
25.9539
28.1635
21.5189
46.0831
37.9243
24.3254
24.7194
35.4065
27.0339
36.9464
24.4239
30.7464
49.2997
42.4574
34.6012
30.8223
41.3566
46.9043
26.1104
43.8753
50.6901
42.2138
35.8314
41.2103
40.345
49.6297
98.8812
95.1715
97.1926
95.8883
98.6632
98.1817
97.6175
96.6853
82.8549
61.3716
71.748
67.7721
75.218
71.4786
72.3529
68.1995
92.2603
78.6755
78.1665
80.0952
86.8151
84.7862
85.53
83.955
85.7178
69.0157
76.9493
69.1796
79.5742
76.7954
75.7577
73.7863
92.591
94.3654
92.0154
77.9525
89.6762
93.4446
86.0028
91.0363
90.378
75.342
79.5266
92.7711
87.8003
79.6043
88.8985
82.339
92.6329
89.7083
74.5503
81.9269
90.3897
88.2839
84.7394
81.3864
90.7764
78.3059
72.7599
77.514
85.1436
81.7062
80.5935
76.2713
131.881
119.279
146.934
128
128.568
126.762
134.688
135.634
88.8742
39.6422
88.3863
64.8019
66.0735
60.2671
68.5093
68.2294
159.079
132.83
167.602
152.834
157.298
149.704
162.164
154.866
121.834
85.3788
129.464
97.9177
107.736
96.1876
107.995
102.961
109.529
145.16
126.534
91.5849
115.122
124.119
111.828
117.389
99.5356
74.9015
100.296
140.233
113.785
90.4652
129.844
118.546
149.923
128.355
90.5595
135.367
137.935
125.824
132.907
110.797
147.531
131.042
84.9908
111.287
133.283
124.195
119.314
112.243
-1.90456
-21.2935
-12.5096
-4.11799
-2.003
3.47144
-2.64777
-11.728
-90.826
-538.206
-190.216
-221.415
-265.091
71.9355
44.405
142.858
-27.3586
-74.5288
-7.43287
-28.2456
-35.2668
-51.3257
-32.9519
-23.2259
-14.4956
-131.127
-18.7139
14.4355
-64.2708
4.39224
-16.7033
-0.420747
41.4273
-26.2495
5.51569
-53.6969
3.02955
-24.7842
46.5122
-3.76767
78.1332
72.6146
-65.4105
-28.0747
-17.6042
-13.9386
-43.0958
-63.6306
-7.33522
-5.46569
-50.6859
-1.99734
-17.2071
-7.77643
-52.9546
-48.7388
-10.868
-24.9673
-15.1492
-24.3642
-13.667
-36.1956
-19.1915
-76.2929
133.235
173.953
121.612
91.926
152.184
148.477
96.5261
129.635
210.292
233.921
192.49
158.227
227.248
228.998
181.694
197.545
98.5399
149.532
80.2363
78.8654
108.501
116.973
94.1527
118.341
62.3743
85.0823
61.9955
52.5677
55.4111
61.0323
54.2122
65.9644
201.027
128.922
79.0924
114.73
130.075
125.69
118.372
91.4704
190.782
119.42
180.701
137.584
167.704
170.254
157.995
159.271
92.798
69.9977
93.6754
73.9318
86.3276
87.5514
81.8296
77.7633
109.812
91.4866
111.283
160.489
111.547
96.0127
128.088
109.33
6.46006
31.8942
18.7152
22.6186
28.3084
30.3919
21.3987
24.0203
36.2051
31.3246
23.3255
27.9022
37.343
32.4982
29.2371
20.1937
16.1645
17.7471
8.04197
13.7548
16.484
15.4222
13.6148
11.2665
25.3001
26.4373
19.3076
23.8049
27.1272
26.0228
24.4171
22.3139
36.6782
23.7365
30.2655
31.2906
31.8422
27.8317
29.5683
30.5084
35.6075
29.0082
24.4789
22.7427
29.651
27.4932
24.4006
26.0033
20.8908
27.238
27.9149
19.057
20.9808
25.8041
22.6769
25.1017
19.4302
17.2969
24.4263
18.3727
19.2403
21.368
21.6896
20.6693
6.7827
14.7398
6.43128
15.6274
10.5897
10.5391
9.94595
10.336
17.1897
8.45345
19.6416
28.6066
24.161
22.1489
27.1492
24.596
5.62551
15.5236
5.57814
18.3736
10.2689
10.5647
11.192
11.0931
21.4639
35.1021
21.1247
27.1768
28.7233
32.0305
24.79
28.8718
18.7674
10.3508
21.1142
28.9179
19.244
15.3208
23.7961
20.7822
19.2241
29.0719
19.2463
10.2433
18.8801
25.054
15.2556
19.4061
10.5716
18.7951
30.0131
17.789
14.4625
19.6282
20.6988
25.8512
10.5322
20.9406
29.2939
19.6389
15.5871
21.5575
19.4557
24.7578
128.353
104.985
138.173
125.583
123.073
127.039
122.937
133.596
72.3632
36.6218
79.4854
51.8931
57.1425
65.7705
65.1834
67.9808
138.85
113.298
129.22
115.009
128.703
124.549
128.171
124.697
101.98
66.8917
97.1574
82.9245
90.487
82.9992
89.7479
88.556
97.9991
124.71
110.052
73.059
100.506
116.739
85.7738
105.806
101.225
74.7297
101.332
130.126
105.569
81.167
118.447
97.9777
129.695
103.189
75.4093
109.393
119.35
110.764
106.572
98.1019
134.619
108.573
79.5658
105.087
116.402
104.742
102.687
85.483
2.16696
-7.32941
-6.66545
2.62274
0.834138
-2.94815
-0.217721
-3.56529
-20.3989
17.3282
-13.8516
-4.52391
-10.7576
-3.46677
-6.25905
-0.805797
-18.7133
-25.6707
-20.1771
-10.4965
-12.1741
-16.0406
-12.2034
-19.0499
1.09354
-10.2745
-5.06719
-4.61829
-2.87439
-4.0835
-4.32165
-5.46247
-6.2251
-6.36966
0.254338
-7.45483
-3.77175
-1.40356
-5.17331
-1.22622
-8.6748
-7.58294
-3.78203
-9.13155
-6.87526
-8.67518
-12.6069
-8.26083
-7.19149
1.70957
-6.39286
-3.92781
-5.29161
-2.06739
-5.22517
-2.33012
-6.75544
-3.27971
-6.25653
-9.50845
-7.46057
-7.74403
-8.35934
-7.75528
131.686
150.273
142.68
109.401
143.647
150.649
132.65
141.71
163.482
173.407
161.355
130.588
163.902
163.861
150.545
160.191
140.372
152.075
134.353
118.788
142.778
143.69
130.312
138.629
79.9859
86.7711
90.2589
52.1835
69.9941
82.6008
69.4957
82.3251
151.698
146.855
112.764
120.191
140.161
138.978
123.389
122.81
156.668
132.699
157.042
150.565
148.98
146.052
152.366
154.756
135.437
106.441
106.295
111.098
123.181
117.798
120.045
113.587
143.603
125.179
126.463
151.809
140.304
127.017
142.523
131.657
100.901
99.1796
99.7041
98.6705
100.441
100.97
99.5555
100.129
95.4379
83.4596
94.6009
83.0943
90.7544
92.0242
88.596
90.35
99.3555
98.3877
99.3026
96.9438
99.0347
98.951
99.0052
98.9159
84.1178
76.6622
85.3779
65.009
77.7488
84.1594
73.1186
79.7167
97.1597
99.0548
92.0848
84.9725
96.2292
97.268
91.6054
96.0952
97.7984
87.7675
97.251
99.8831
97.0096
93.1465
98.3672
96.6223
98.668
90.5733
83.6466
92.2585
95.8495
93.7313
93.8923
88.961
99.4453
94.6924
86.056
96.6585
97.6727
95.4463
95.3573
91.5262
81.834
77.8666
93.5319
85.6699
84.1754
85.6565
88.0841
88.6371
73.3716
63.6534
82.6997
65.1673
70.4483
67.3135
72.3607
73.6221
99.0629
96.9828
103.079
98.1
97.4664
98.9394
101.121
100.873
83.1035
69.2337
86.8379
75.8929
79.3424
78.4675
82.9214
82.6344
77.5037
90.4229
82.9278
74.0377
81.2584
86.6132
76.1162
83.8899
79.0209
72.5549
85.7764
92.2269
81.4721
76.1442
87.8327
85.4823
95.182
86.9124
77.1201
94.6463
91.7215
87.3506
89.224
82.6011
96.1063
94.3957
76.6247
93.7359
95.7712
91.9572
92.2435
82.9151
2764.97
1001.25
1071.85
723.587
1454.86
1249.42
1369.08
985.939
165.061
27.4439
14.8835
17.9368
3.89422
-0.253012
16.5157
8.53752
273.375
10.9449
248.043
20.3738
88.1888
116.453
229.369
215.369
593.636
48.4209
-363.854
836.754
148.58
73.9325
640.085
385.027
401.654
521.488
637.306
43.8771
282.937
632.125
228.794
458.932
191.542
-8.62365
18.7841
303.454
118.574
73.5985
174.301
36.7513
430.814
612.791
64.6812
198.36
234.751
301.069
239.36
185.686
180.753
117.81
86.408
9.33172
96.7139
116.038
28.1592
105.221
84.5494
64.3031
85.0592
44.4543
66.5629
85.7352
101.318
59.8281
45.2564
42.0831
49.6872
15.8408
41.0419
50.3812
42.0561
43.4434
84.5061
66.5267
22.559
25.0876
77.1102
85.0656
70.4991
77.1833
33.5715
8.99423
40.7346
28.4107
29.1284
46.2001
43.5777
37.5565
52.4986
41.4162
55.5517
31.3771
66.4099
67.3243
20.8276
75.2595
65.0165
42.4474
69.2942
72.2476
56.6959
46.6675
69.8003
59.0415
65.5448
70.0299
30.769
49.5039
38.3096
54.2427
50.6701
52.0778
68.8968
47.7397
32.2257
53.1345
80.0487
62.8924
59.4303
33.0565
0.748575
-0.250132
5.19403
10.7224
7.42352
3.8811
9.17872
6.02532
40.6337
47.0983
36.4804
53.2203
42.9795
53.7291
52.4927
64.1304
4.73917
12.69
-7.67269
4.87032
14.1376
6.4943
4.31074
3.21138
41.6357
57.6784
36.5432
63.3925
52.2175
45.8481
53.3273
48.9224
20.4859
12.8347
29.1532
48.2335
28.3354
17.5032
32.3189
26.3177
23.2075
47.5787
22.7426
11.4455
34.3612
42.2367
17.4063
25.1443
19.0733
33.096
51.1201
28.5195
19.9622
31.8154
28.2603
37.6108
12.7401
24.2526
50.7027
23.6349
12.3764
20.5524
21.8706
32.977
1532.98
1404.44
735.334
1166.6
1755.36
2673.24
286.798
1400.27
2923.91
6012.35
1670.77
1077.96
3291.03
4300.94
1737.13
2730.89
425.795
373.08
333.698
136.591
430.078
458.594
286.651
175.826
2835.74
106.77
84.7485
577.877
1416.3
102.137
2053.43
499.98
1753.23
840.92
1363.86
575.164
695.389
1147.62
171.593
2705.05
2599.18
1288.57
1026.25
1112.66
1319.69
1495.35
589.26
759.127
270.984
-1331.44
238.35
563.667
892.055
841.307
713.743
678.301
589.326
129.993
474.882
580.102
620.653
239.328
457.388
360.092
9.91894
28.0202
17.7134
27.2028
23.313
24.1419
21.8458
23.9312
36.6245
40.4103
30.9197
47.2288
42.2578
39.8217
42.458
40.0818
17.2522
20.8114
9.61266
21.1304
16.9834
15.411
15.9224
15.2854
38.5672
51.8695
32.78
53.0419
44.8285
44.1917
43.619
44.2471
34.8405
22.1705
33.0518
43.6587
34.6307
28.2951
37.7278
33.6482
33.7709
42.7672
26.5334
21.9064
33.1123
36.4592
25.4451
28.6968
21.9589
32.8218
43.2731
27.4698
28.5472
33.7329
29.2784
36.2873
21.3973
27.1512
42.8495
25.9048
22.5067
27.4217
27.3274
34.1932
8.39618
17.0013
18.172
21.0385
15.0898
16.0764
17.2966
18.3809
20.0626
1.39751
4.34935
35.2578
18.7709
7.1645
27.4019
18.0483
22.8389
4.899
7.74846
38.3634
23.5382
13.7625
29.6084
18.815
36.4428
51.5672
54.8813
64.7844
49.7168
48.5972
56.6262
57.6537
21.822
23.5612
30.4254
36.3416
24.4551
24.4436
31.3663
29.1044
21.4744
33.1729
11.5728
22.1588
23.6978
26.1471
21.0083
21.4831
26.8122
33.2449
45.0308
46.8515
30.1949
32.813
39.9264
42.0186
25.9359
44.0352
43.1118
20.501
26.4922
37.2355
28.046
38.2708
-22.1991
7.43468
-20.4542
18.6012
1.67665
11.6154
11.7716
9.81924
7.49885
0.886489
6.3371
10.2786
11.4109
5.1243
10.7011
9.12215
-21.6824
4.97041
-5.91326
6.93583
-3.8978
3.71756
-2.45154
6.82473
44.8863
37.3341
38.2947
69.0191
52.8124
43.8652
58.2603
52.4185
15.5926
1.19949
29.3701
27.8377
18.2717
17.4637
22.552
25.4196
8.54426
20.4582
7.99051
0.505217
14.5246
13.4932
9.73926
12.3855
5.04114
39.1655
34.9596
28.1887
19.005
29.3249
26.3447
26.6892
6.09593
28.0637
27.2531
9.96438
6.47971
25.316
12.5714
16.5775
0.44015
1.25623
15.944
25.0385
10.6233
7.20119
17.3662
15.8702
2.48519
2.76041
18.261
24.7525
12.3809
7.49722
18.1093
16.7829
14.4083
16.4392
8.10752
18.7767
15.4476
15.1263
14.7506
11.4511
37.9903
37.2178
30.3764
48.4614
41.4182
37.3457
42.0229
37.5992
11.7053
19.7638
29.4782
29.204
17.0357
19.0302
25.2574
24.9923
7.42973
24.9186
17.7655
19.5463
15.5728
19.1291
16.0769
18.4094
19.8772
30.6071
31.578
26.4102
22.8044
27.2261
26.5704
30.9616
17.1011
23.9069
28.054
16.0563
18.9107
24.823
20.0368
26.1015
32.8631
81.2451
83.228
86.9652
92.1003
99.1489
94.5312
89.3898
111.333
102.198
8.61707
-20.6029
107.141
85.0038
3.12588
26.0828
2.82805
-11.778
-20.3836
-8.91701
-6.24866
-18.3085
-16.597
-17.0251
52.9221
2.51995
16.0369
54.1294
45.3201
26.3374
34.6059
28.8642
74.4494
31.8422
91.6771
46.7427
48.138
39.8756
58.4679
102.054
64.0141
26.6577
-7.37227
-9.0191
18.2012
-4.86083
-3.03253
6.51581
31.9227
63.1962
8.60661
-11.8351
50.8716
70.2294
6.71013
3.99639
28.9653
-5.63944
-11.2477
-12.3046
-6.17534
-8.2391
-4.09411
-19.4742
8.61842
24.1372
22.7031
39.0925
15.6832
17.0089
24.1012
24.1534
15.7558
2.17725
12.9877
13.3875
16.0429
11.3612
19.9555
14.8451
25.0877
17.3631
4.36081
34.1727
20.2994
10.2044
25.9631
15.7111
58.4909
37.1518
53.8113
76.4982
55.4621
47.5879
66.4768
56.4077
23.371
25.2401
41.3876
30.8061
27.1229
27.1293
32.034
34.9424
20.8024
24.8826
15.1367
20.4081
24.7451
18.0024
21.0649
20.608
29.9373
46.0998
38.3596
45.985
39.8757
42.2346
35.6316
38.0289
25.1269
34.2667
29.7601
17.3506
21.185
29.268
25.7041
27.0053
10.2437
19.0097
26.1423
23.5053
13.7947
18.7747
19.8133
20.6139
25.0064
14.7794
32.82
38.9107
30.2676
30.4147
31.8315
30.9244
35.2145
36.8245
14.2059
41.4805
35.2771
36.4002
31.2862
26.6529
39.6702
57.4344
54.9257
67.7136
48.922
53.3585
53.3573
54.4828
24.7212
28.4458
27.569
40.9994
29.3353
29.3276
32.789
33.7646
29.8769
42.0193
37.1725
36.2489
28.3232
32.3087
33.9856
34.8849
31.8968
33.4191
46.2134
44.5586
35.7678
34.6941
39.5986
42.2486
31.8887
44.6104
46.7171
35.841
36.4116
44.7153
37.9972
46.0539
3.07144
4.80969
10.0504
12.4519
4.8549
6.15979
10.8708
9.67099
5.532
5.85827
12.7414
15.3273
7.53628
8.21369
12.7675
10.6911
13.8032
15.521
7.27397
26.2668
16.7932
17.413
23.0507
20.5459
22.5906
25.4825
33.7839
36.2206
27.7056
29.7717
34.9426
34.8116
6.71784
12.0195
14.3384
17.0124
11.2423
13.3645
13.8144
17.2178
7.63865
19.142
14.5738
13.1176
9.91688
14.0851
11.3866
13.4269
18.0424
20.6425
23.2308
30.3854
19.2994
19.6595
23.38
23.3928
16.542
28.9892
21.8947
16.884
19.644
24.8093
18.3632
22.3498
-0.410723
0.276641
-3.91662
6.99648
0.351799
0.901626
-1.51693
1.3692
-1.11351
0.72408
1.98363
11.3814
2.4874
9.93951
4.19508
5.61904
-2.21741
4.02295
1.03669
-5.69878
2.86309
2.70809
-0.238222
3.02197
36.0965
40.2707
37.5695
59.5062
53.527
34.2926
52.7718
44.98
0.764234
0.249654
2.66538
11.7445
0.54261
1.11879
3.08857
1.83349
0.55668
12.2791
7.74436
1.48967
0.602685
0.0258638
2.13142
2.15177
-0.434885
10.2633
24.0773
-3.26351
-4.19907
3.68008
-1.12068
21.024
1.06147
-0.983183
14.57
5.2107
1.40195
3.14671
5.65607
13.8246
4.79931
13.1164
11.9158
11.1349
7.55778
12.8884
9.10889
14.0343
24.99
40.0391
35.153
34.1343
31.5011
35.1876
32.204
37.4152
17.4168
26.8607
1.82826
17.5456
20.5752
22.8008
17.5484
19.2626
17.2154
27.8445
21.0804
21.5911
20.9275
23.9029
21.2984
23.7799
16.4961
15.2405
14.2507
25.0596
18.1026
15.9647
19.4262
17.0805
21.7419
29.3245
32.2799
18.8757
23.8446
28.1258
20.9999
28.2229
15.3454
14.7148
26.147
21.2164
17.8335
18.3382
21.9321
22.4652
18.9954
23.1875
31.4601
31.5689
23.0249
24.8265
28.5615
28.8512
10.5675
15.7134
17.9317
29.111
18.1336
18.0551
19.958
21.1575
14.5967
8.17242
14.6668
20.213
15.2194
9.9431
15.5002
14.4395
20.7081
20.4262
11.2636
27.882
21.1552
19.8945
21.5671
19.1736
40.5962
32.8797
39.4533
51.6076
40.9179
34.3739
43.941
39.5144
17.8347
21.4656
30.3162
24.9609
20.1077
22.3476
25.9284
26.3259
17.2763
20.9237
18.1657
19.7145
19.1257
16.8335
18.0038
20.0466
24.359
33.5643
27.1289
33.3253
30.5147
30.5029
30.3964
30.5464
22.3917
29.0321
25.591
19.8289
23.3463
25.9601
21.4176
26.2086
-8.28052
11.8906
1.41458
-3.91892
-7.03462
-3.28104
1.4207
0.333091
40.1655
48.3384
35.6353
50.7186
48.4182
67.0157
60.7722
57.9115
0.200072
2.42859
1.41671
-0.220599
-0.473984
0.85084
0.501469
1.43429
0.295587
8.64188
0.596745
-2.18404
0.039872
0.146063
3.62793
1.7752
23.1832
2.19943
1.72663
32.5547
26.9025
4.8605
21.9883
6.00348
27.6414
39.3155
16.4535
2.08348
24.7944
38.6098
6.01659
15.7052
2.37416
-0.438986
13.0734
-0.0613528
2.78868
1.22073
3.20326
1.22969
2.50658
0.542069
15.855
3.74028
1.14679
2.36305
7.43607
9.03443
163.479
91.4608
105.596
97.7228
181.012
105.082
139.422
85.1503
121.072
152.224
147.031
60.7463
171.922
219.948
128.703
157.648
98.0827
114.877
223.996
-6.42219
96.6683
124.195
54.1442
95.6043
81.1343
70.4002
11.0735
84.344
102.42
82.3824
75.5951
56.5506
148.621
127.602
147.058
102.974
107.29
115.424
107.505
118.658
141.051
73.4503
127.813
116.633
101.072
102.725
123.13
130.076
93.421
103.573
71.1369
26.3856
75.2423
89.8276
80.2704
91.2434
85.3421
44.0631
46.9511
81.1766
71.5531
67.8901
63.6964
78.1508
26.4295
39.7764
24.0161
20.1435
30.3067
31.3856
24.0448
23.182
51.7389
62.5922
34.182
43.6058
50.6306
54.3575
44.3247
46.9015
18.3014
19.6981
7.74831
15.7858
18.9193
19.0887
15.3379
14.1503
20.0018
31.4167
21.1798
23.4533
22.0895
27.6977
23.5469
23.7483
42.3636
25.0679
24.431
35.0638
34.6977
28.4747
33.6425
30.0209
46.7812
38.2362
30.709
25.1341
36.579
36.8007
26.8661
30.4193
20.5681
22.6802
30.8597
19.8261
21.817
21.0192
22.5051
26.1374
20.4777
19.2713
31.7784
26.0087
20.867
22.9269
25.7047
25.6906
4.41349
19.9286
17.6119
17.853
14.8602
16.7118
14.7055
19.1249
42.9533
84.0367
58.7625
60.4874
56.588
61.769
54.7343
67.6417
26.7506
39.6709
6.15342
32.376
38.952
33.9984
35.411
29.9124
23.5784
47.6891
41.2281
37.2919
41.6178
44.1656
42.1007
44.9716
30.8379
27.2123
27.7479
50.0722
30.2843
22.8759
37.9972
28.872
35.3404
52.0559
51.3737
28.285
41.9964
47.7599
35.3158
48.8316
27.8107
28.3135
46.0321
41.172
25.9737
32.3321
43.632
41.5562
30.769
43.6495
56.0733
50.3239
38.9582
43.4631
45.9647
48.9728
3709.18
1428.27
1290.98
989.008
1537.27
2200.39
1560.06
1427.72
574.312
395.917
265.083
131.902
391.166
366.918
416.01
544.935
388.553
228.621
247.648
39.523
244.901
170.037
87.0083
147.64
50.5618
-7.9635
14.0632
-3.45052
9.36716
7.45272
0.405537
1.01026
678.04
764.131
533.375
133.85
749.846
769.175
363.209
482.588
840.387
90.5562
342.147
592.825
687.387
368.441
654.152
378.495
401.222
250.315
67.6678
33.0564
130.368
213.96
72.1643
74.6376
450.705
43.9305
105.406
318.718
195.207
65.4661
229.068
47.2779
189.24
196.437
208.422
174.446
193.812
206.698
193.828
209.867
166.922
167.071
183.572
132.214
182.966
166.041
167.145
151.685
230.531
221.339
251.156
221.413
226.186
235.431
231.956
238.481
157.457
136.058
180.263
133.512
147.503
148.872
148.978
156.966
186.177
214.682
171.087
160.791
184.031
198.157
176.185
183.065
182.888
151.731
207.977
219.201
183.294
166.954
209.615
203.866
212.552
170.445
155.909
195.322
198.483
186.219
193.06
165.213
220.942
203.254
151.108
204.449
213.74
200.877
205.635
185.507
-75.0434
-213.929
-571.072
547.076
-39.0672
-163.114
-118.01
-270.71
594.977
-306.45
-125.535
-822.211
341.405
-292.259
33.1475
-312.573
342.05
1092.23
1717.28
1673.38
432.812
280.902
-1022.62
162.872
1139.13
1005.66
2743.53
-582.527
1016
-141.471
490.194
1739.19
-271.545
-355.932
854.9
-187.258
-377.081
-417.179
8.1693
626.988
486.76
-677.772
-249.298
76.7615
973.137
-80.0171
-15.4401
-249.442
-731.13
561.732
255.067
2237.56
489.135
591.25
1748.28
421.807
338.167
357.163
-611.959
97.3209
-441.353
839.972
-191.312
1484.81
-12.919
-8.06359
-11.3333
-7.88865
-12.6035
-7.16489
-11.2682
-10.8982
7.73588
155.579
102.79
-6.84572
12.2376
67.4758
-9.95988
67.5472
13.9819
102.313
126.872
70.1452
9.85852
90.796
96.9678
135.269
26.1398
6.5037
63.4941
69.396
21.1231
20.7182
51.1313
35.2429
-5.37473
-9.85387
-7.41439
-2.92759
-0.957172
-11.0082
-11.99
-18.5196
0.324312
16.1622
54.8663
0.794619
2.99582
3.18767
6.4839
3.63591
-2.46075
4.67764
-0.584542
44.863
14.1879
-16.6653
20.7222
-9.22408
-20.7894
57.8336
32.786
100.11
5.92747
24.3932
-2.97004
26.7489
6.19025
14.3053
18.712
10.9908
10.8019
11.7928
12.8005
14.6999
18.7007
10.6648
27.2607
23.2159
20.0685
18.8355
25.3842
21.2875
31.2583
38.6527
50.7544
42.9822
35.5846
39.5319
43.59
43.3524
15.3013
24.4189
30.1554
18.5936
16.2402
24.9361
19.3518
23.2687
17.878
21.1253
14.2829
22.7025
19.6182
19.7283
18.7258
18.1029
19.1472
25.2227
29.3172
22.8216
21.1354
26.4336
25.1415
27.2922
24.2204
16.4637
27.6849
32.244
24.008
19.4814
28.1822
25.6751
27.0661
35.5958
25.4695
32.4778
34.0706
33.261
34.6138
33.8223
5594.18
2891.64
1911.64
1214.74
3781.85
4144.28
2191.3
2240.24
1679.49
1608.86
1873.96
1407.43
1180.55
975.216
1689.15
1832.4
1143.3
1856.24
1665.79
1535.85
1498.68
1604.23
1563
1777.51
443.877
653.462
459.067
323.192
674.253
810.84
140.665
579.977
2292.86
1442.98
1122.41
959.044
1774.59
1522.74
363.962
1521.57
1434.73
1692.93
1786.21
1021.84
1602.97
2054.86
1599.78
1761.62
1346.46
813.318
1365.62
1173.19
993.818
1129.25
1035.82
1227.2
1255.85
1263.37
1468.41
1909.71
1707.74
1680.1
1893.43
1457.66
143.697
137.266
157.473
135.359
141.069
148.731
149.088
157.558
134.206
129.893
152.151
133.51
134.054
140.631
142.414
145.288
164.47
162.655
170.164
158.796
164.548
164.855
163.891
166.44
122.219
123.49
134.397
103.186
117.395
127.093
116.25
125.81
138.459
158.053
134.964
131.739
148.105
151.278
135.297
143.501
146.173
140.293
153.75
159.402
153.147
145.743
153.116
153.568
158.628
138.12
135.233
140.036
147.6
144.227
144.17
138.275
164.72
150.188
141.473
156.482
157.83
148.367
154
146.803
20.8119
28.1104
41.5021
20.6694
24.1868
32.4343
31.0921
31.6233
22.9065
8.70605
23.6608
13.7306
14.171
14.0715
18.3839
17.4918
54.1239
38.905
64.6518
45.6752
46.5416
46.9457
52.3504
49.1691
25.4431
19.8036
33.1367
19.5328
25.4349
28.6046
27.3803
26.5063
30.303
37.4606
28.6676
21.7169
29.634
35.666
25.6346
33.9341
30.3211
21.558
28.6045
41.608
27.7297
23.4381
32.2373
27.3524
43.8407
31.0193
22.6177
38.6261
40.0958
32.301
35.8455
31.9653
43.6278
36.6134
19.9692
28.9717
40.3456
37.8329
30.8854
25.4224
17.3294
21.2456
19.0948
23.242
23.8496
14.1039
24.6482
21.7156
8.81401
2.1115
11.6678
7.97655
6.57129
2.01237
8.7636
4.65482
21.4009
18.5252
23.6336
26.0373
20.5446
15.0637
22.9766
17.9638
24.3513
14.0842
22.5346
21.753
24.1242
22.5661
24.3357
20.6907
18.5919
22.7039
30.828
13.2481
20.1387
24.1415
19.2101
25.4695
7.16272
11.0642
7.70681
15.2552
10.3376
10.2773
16.5053
15.8073
25.7541
30.1019
15.669
22.9269
25.5119
23.9163
21.0965
18.1658
18.4158
19.3079
12.474
10.1483
20.0299
18.8561
14.8802
13.3281
29.259
30.8755
45.8763
37.0957
34.5409
30.7086
42.3382
38.8609
28.4068
30.1372
33.9749
28.7656
30.8693
27.0311
27.5284
28.1539
47.1945
35.4092
33.383
33.2008
42.2687
46.7034
36.4672
35.0023
35.3081
27.3991
27.8824
24.0177
31.9099
29.1327
23.8127
26.9878
32.6991
43.6346
38.3408
32.518
33.6089
37.9876
33.868
32.2892
24.5987
29.3166
36.7662
45.2956
31.2791
33.411
40.1117
37.0023
46.8861
37.8787
27.3117
27.6415
41.3341
37.2465
34.7835
32.7264
41.9033
30.4052
27.2357
30.407
39.4556
36.6325
35.7544
28.9766
134.637
91.5624
172.676
140.162
128.339
153.837
159.917
169.38
49.6088
-44.1808
153.239
109.252
69.5349
93.1788
131.082
111.372
234.073
210.214
251.624
218.894
222.513
220.113
237.278
214.637
135.677
124.457
172.528
124.687
137.295
135.386
133.993
129.588
106.484
176.742
141.812
127.329
163.856
162.84
132.448
148.107
129.875
129.09
172.109
189.917
140.743
135.175
174.642
160.709
183.64
130.945
135.249
185.815
179.408
152.614
176.792
143.704
188.589
175.502
129.41
157.149
176.69
179.063
177.836
162.48
-1305.17
-556.25
-156.385
-1130.16
1081.74
415.67
76.6636
-59.0774
190.267
-192.582
202.521
-775.022
-217.732
-190.541
-218.273
8.49293
-114.482
-27.9915
-17.6519
-31.5927
-117.667
-13.8388
-136.271
28.7075
-109.415
2341.27
-87.1469
1655.08
2107.13
387.448
863.139
756.251
2575.76
-297.234
510.308
5136.37
-978.181
-66.419
-1507.41
-671.447
471.097
-1115.33
-89.2485
-268.92
-431.621
247.996
-364.154
156.781
-255.74
855.786
1838.06
-36.3477
-325.81
-796.867
19.7856
235.654
-299.059
-98.6344
-3401.27
778.134
-258.365
-221.068
46.674
1092.44
17.3515
-3.17269
8.98751
15.3314
15.9761
16.2506
41.617
26.0005
-26.0708
-22.43
-5.50747
3.07733
-17.1916
-19.8631
-16.3932
-17.5815
10.6255
17.9154
23.1482
79.1317
11.178
16.1769
43.1354
25.8399
20.0056
9.62696
23.2817
23.0008
19.0287
15.208
24.3031
23.3604
9.48514
14.1154
10.3732
7.06959
10.6194
16.0445
8.40169
15.0243
-6.8577
4.9394
3.81402
11.1737
11.2312
2.37185
-0.895681
5.46579
23.1249
22.1879
12.1467
53.8329
20.2535
22.6408
26.8646
18.6913
16.9727
36.3505
8.35771
8.77129
23.9547
25.4802
10.6218
11.4218
65.0804
35.32
51.2426
58.327
52.9663
43.746
55.5278
46.4278
18.7023
9.79641
5.25094
2.11751
6.46036
13.1167
7.96735
12.3608
39.5971
17.7984
27.4556
31.584
36.0368
26.4896
37.2281
32.7888
52.0458
9.22375
37.3352
45.7352
39.9445
18.2153
43.7592
27.2372
27.326
43.3851
47.8552
8.06013
30.5992
32.093
25.8065
32.2714
18.7348
7.07165
23.8091
31.9403
25.216
13.0633
23.8142
26.5797
44.3827
51.4196
13.3532
39.2557
46.9157
36.9792
35.6562
23.5374
35.7709
30.6696
15.1141
27.975
23.3043
22.7119
25.7558
14.6139
16.4279
37.8999
46.7053
46.3685
24.5007
34.4027
35.5099
37.8195
55.2318
68.1931
71.624
69.5383
63.0765
68.5417
71.3288
72.055
61.3465
78.1883
80.2014
68.9554
68.1851
78.3732
69.9373
77.4334
53.9875
59.7527
55.2034
41.2973
50.1918
62.1531
51.0275
56.4173
46.1831
47.6234
47.1585
61.8881
52.8742
47.2301
58.4016
57.4488
49.6118
67.7229
73.0351
56.6353
56.7159
69.2444
58.7196
65.5964
57.1251
50.0968
63.7016
63.9128
60.7954
55.4799
62.3281
60.6673
59.7875
70.2356
69.4218
74.1135
66.9049
70.3356
71.2371
68.3827
76.5947
93.5087
80.3555
77.8654
80.909
85.5382
83.376
84.9371
108.549
122.583
112.138
108.308
103.972
116.226
106.14
112.904
87.8661
104.245
90.5369
76.4139
89.8798
91.885
84.9685
89.2373
65.5365
78.0048
60.0856
42.2743
64.0904
70.9252
60.9549
63.1217
92.7124
85.8872
79.2116
88.7174
95.5283
87.5351
92.1243
81.9025
103.26
98.6768
102.869
92.2348
97.8816
100.061
99.4293
99.4171
86.0996
79.6736
89.7286
77.167
77.5485
81.1335
80.7162
82.019
89.2659
78.328
100.255
103.369
88.2308
76.6805
94.9152
87.9281
234.174
191.204
163.03
194.501
204.55
194.082
191.429
186.129
166.321
118.641
100.605
122.628
135.272
115.244
118.797
104.445
89.8257
69.4805
57.7508
64.4797
67.5407
64.4738
59.6542
59.1561
164.899
120.791
94.5375
126.571
135.829
117.107
120.906
106.778
170.384
121.458
160.739
129.885
154.441
154.295
160.054
151.33
151.391
118.44
87.8559
111.792
139.776
119.345
127.913
98.7865
109.965
156.177
120.3
87.9895
125.22
140.144
97.9195
117.726
99.9894
71.9265
102.647
70.4499
82.6765
88.948
86.5821
94.3556
0.00309665
-27.5447
-5.17071
9.29763
-14.0815
-18.6835
-8.25084
-34.9133
-22.893
-251.941
-1683.69
-185.494
-73.3039
-1298.12
73.7466
-797.781
-228.934
-1524.63
601.607
58.7814
-1086.99
-1590.91
425.762
-794.491
-90.3888
-112.936
-292.324
-17.9877
-115.692
-205.921
-50.7016
-206.131
-25.0128
-155.521
-1.90446
16.9543
24.017
-44.8144
-34.5784
-9.70253
-183.167
-177.993
-504.068
-175.032
-166.261
35.3671
-381.745
-108.445
-258.778
-18.9013
87.5497
119.339
47.5743
-13.8037
175.167
-89.8312
-393.81
277.67
-29.7918
-774.854
-673.13
5.14365
272.261
-301.405
-1.89859
-4.53592
-2.36582
-0.137464
-2.66488
-4.07772
-2.68685
-2.63172
-7.94129
-5.79472
-10.3542
-6.52444
-11.0518
-7.05916
-5.71684
-9.21362
-2.62153
-6.89689
-6.80197
-9.14545
-5.4373
-5.7137
-6.02618
-2.84918
0.280738
-2.29464
-3.43397
0.42821
-0.097503
-0.737113
0.427935
-1.47857
-5.92335
-2.14404
-0.240097
-3.76894
-4.10144
-3.08527
-3.75346
-1.42943
-5.83404
-3.13099
-7.08999
-2.08092
-6.50292
-6.51643
-5.05438
-5.48621
-1.61018
-0.509445
-2.41718
-3.01984
-1.59245
-0.893916
-3.44629
-1.98613
-1.72309
-4.92005
-3.07153
-6.89385
-5.2142
-3.08313
-4.41269
-4.32407
189.128
236.502
-405.233
504.98
766.327
131.169
221.27
-257.415
-4.62124
914.413
342.064
-74.4546
419.802
557.751
352.176
770.613
-98.356
132.572
75.8109
256.741
209.887
148.192
117.34
-35.9956
135.634
87.8839
171.044
60.7474
46.2487
30.2814
248.834
294.499
-38.263
-19.5721
168.235
161.945
80.408
-155.477
154.593
-71.2341
65.1052
25.2714
446.651
244.005
231.83
195.264
204.386
336.322
-205.462
-15.9257
253.359
265.065
-173.25
-179.033
305.82
160.176
-126.73
608.892
236.786
-157.495
96.7453
399.245
258.965
311.892
78.9705
92.4695
75.6131
78.8074
83.7711
86.6232
80.1472
84.4061
96.6938
98.9176
97.5375
96.4629
97.4767
98.2165
96.6137
97.6986
77.5149
93.2788
73.9732
80.0891
85.1578
88.2905
80.8258
84.8437
74.9157
87.601
76.816
70.5521
78.1268
80.8933
74.5705
77.8055
93.652
85.736
82.5856
91.3475
91.3878
89.2241
90.3132
84.7703
95.1946
93.5186
95.7517
87.8789
93.6602
94.8579
91.7162
93.4176
80.9067
78.5129
88.7461
78.5664
78.4888
82.088
82.8952
84.8638
85.2707
82.488
91.4931
93.7562
88.9071
85.9507
91.1745
91.2675
-9.71032
-5.3645
-3.308
-9.33665
-6.93742
-5.32228
-0.766287
-3.22571
-13.9433
-9.68864
-13.2956
-19.2723
-16.3559
-14.2484
-17.9954
-18.1
-4.40426
-5.61412
-4.12212
-9.7839
-6.69323
-7.80849
-7.71457
-8.60545
-18.5159
-12.8175
-8.9493
-10.0407
-15.8961
-12.4622
-13.305
-7.03792
-7.7874
-5.17187
-8.1982
-12.1699
-9.18591
-5.7041
-11.6146
-7.47556
-9.28037
-14.0757
-11.7423
-5.89865
-10.061
-11.7208
-6.27368
-9.94636
-6.32172
-8.73542
-12.5425
-8.6101
-11.3497
-11.8024
-11.0921
-12.8445
-6.68529
-12.0113
-13.9024
-15.6856
-9.84683
-12.0628
-15.6351
-16.3926
167.405
112.66
159.946
97.5796
172.072
107.716
158.229
196.67
149.969
157.731
206.566
125.662
184.323
165.241
153.47
219.038
179.544
221.009
238.654
159.96
234.379
220.637
210.409
233.545
61.2347
61.1241
83.4366
44.3054
57.1051
73.4097
56.4511
68.7036
205.541
207.58
83.2758
96.4597
174.474
184.065
110.305
106.422
170.878
130.132
220.647
197.361
229.204
166.86
195.634
192.531
191.813
73.9374
96.5054
120.435
115.35
103.745
123.619
97.8241
210.632
142.755
134.313
231.779
192.824
119.953
164.638
132.507
94.1114
17.2181
109.28
38.5327
37.5378
54.3189
61.0339
120.584
7.00015
21.8777
-19.6649
0.833188
8.16208
7.1094
0.456355
2.29118
126.234
20.2377
378.153
247.429
26.891
41.5384
113.521
235.473
3.70433
-2.41409
114.634
49.7692
-21.6006
-18.4246
21.4451
29.6251
5.40009
97.4438
22.723
1.09054