/*--------------------------------*- C++ -*----------------------------------*\
| =========                 |                                                 |
| \\      /  F ield         | OpenFOAM: The Open Source CFD Toolbox           |
|  \\    /   O peration     | Version:  2506                                  |
|   \\  /    A nd           | Website:  www.openfoam.com                      |
|    \\/     M anipulation  |                                                 |
\*---------------------------------------------------------------------------*/
FoamFile
{
    version     2.0;
    format      ascii;
    arch        "LSB;label=32;scalar=64";
    class       volVectorField;
    location    "1600";
    object      U;
}
// * * * * * * * * * * * * * * * * * * * * * * * * * * * * * * * * * * * * * //

dimensions      [0 1 -1 0 0 0 0];

internalField   nonuniform List<vector> 
67200
(
(-0.0512057 -0.0236607 1.00144)
(-0.0731614 -0.0484104 1.0642)
(-0.123232 -0.0362453 1.09459)
(-0.0893207 -0.0475206 1.09377)
(-0.064449 -0.034266 1.03421)
(-0.0698695 -0.0264912 1.04603)
(-0.0836035 -0.0316524 1.05243)
(-0.0805635 -0.0351646 1.06502)
(-0.0383274 -0.0378179 1.11025)
(-0.0186565 -0.00428237 1.09641)
(-0.0351238 -0.0201768 1.1406)
(-0.025494 -0.0335986 1.1175)
(-0.0383873 -0.033702 1.10857)
(-0.0314486 -0.0196354 1.09575)
(-0.0312339 -0.0374244 1.12322)
(-0.0239069 -0.0178455 1.11022)
(-0.183171 -0.0205243 1.19973)
(-0.0928681 0.00471956 1.23176)
(-0.207716 0.0593896 1.35153)
(-0.0725383 -0.0029998 1.24306)
(-0.150956 -0.0181479 1.19279)
(-0.117655 -0.0140526 1.26892)
(-0.167408 -0.0207306 1.2636)
(-0.0775594 -0.0354754 1.25322)
(-0.0735802 -0.0561431 1.17617)
(-0.035213 -0.033614 1.13198)
(-0.0489865 -0.0212542 1.19931)
(-0.0577562 -0.0591839 1.1993)
(-0.0586873 -0.0542852 1.17256)
(-0.0353696 -0.038114 1.15287)
(-0.063861 -0.0395689 1.20028)
(-0.0406431 -0.0294154 1.17098)
(-0.0704833 -0.0403072 1.08844)
(-0.107533 -0.0408498 1.09823)
(-0.0720475 -0.0485642 1.10833)
(-0.0501635 -0.0380134 1.12758)
(-0.0800285 -0.0347712 1.10113)
(-0.0765097 -0.0320047 1.086)
(-0.0583693 -0.0476258 1.11794)
(-0.05799 -0.0391773 1.11254)
(-0.0582742 -0.0313654 1.09263)
(-0.0388758 -0.0270978 1.12744)
(-0.0626419 -0.0229065 1.14981)
(-0.10001 -0.0281808 1.12112)
(-0.0667327 -0.0242136 1.10019)
(-0.0352101 -0.0247187 1.1207)
(-0.102568 -0.036946 1.14472)
(-0.0877649 -0.029547 1.14453)
(-0.131133 -0.0205821 1.14024)
(-0.0953019 -0.0336993 1.14072)
(-0.0447811 -0.0383652 1.13959)
(-0.0845352 -0.0473835 1.21392)
(-0.117823 -0.038256 1.17707)
(-0.0737726 -0.0395974 1.12339)
(-0.0996476 -0.035646 1.17744)
(-0.0389803 -0.0401664 1.14259)
(-0.111357 -0.0227542 1.13539)
(-0.0650169 -0.0196899 1.20659)
(-0.0292604 -0.0241696 1.13218)
(-0.050762 -0.0134875 1.15907)
(-0.0785756 -0.0145305 1.17054)
(-0.056109 -0.0255819 1.18889)
(-0.070373 -0.0298875 1.17332)
(-0.0491621 -0.0374598 1.15966)
(-0.00107875 -0.098451 1.33021)
(0.00120187 -0.0556538 1.19087)
(0.0148202 -0.139336 1.24596)
(-0.010087 -0.0466946 1.21406)
(-0.0238029 -0.0866972 1.30543)
(-0.0184822 -0.0939322 1.28028)
(0.00425858 -0.0967502 1.24981)
(0.0135387 -0.115544 1.25941)
(-0.000449645 -0.0298743 1.09235)
(-0.00320124 -0.0100748 1.03509)
(0.0116666 -0.0356203 1.10964)
(-0.00884661 -0.0145633 1.07012)
(0.00169994 -0.0136616 1.0921)
(-7.52417e-05 -0.0229942 1.09103)
(0.00140067 -0.024142 1.08659)
(0.00137441 -0.0245112 1.08819)
(0.00689804 -0.142833 1.15302)
(0.00766625 -0.0898351 1.1231)
(0.00240682 -0.126639 1.10871)
(0.00100657 -0.0904982 1.12912)
(0.00126528 -0.11723 1.12606)
(-0.00216186 -0.122014 1.10706)
(0.00405825 -0.108344 1.12576)
(-0.00426534 -0.117497 1.10706)
(-0.00982422 -0.0331452 1.1462)
(-0.00688178 -0.00871439 1.08479)
(0.00884719 -0.0538479 1.14102)
(-0.00520125 -0.0126208 1.1285)
(-0.00533898 -0.0212387 1.13615)
(-0.0053171 -0.0239239 1.12802)
(3.48263e-05 -0.0404816 1.13731)
(-0.0113339 -0.0435014 1.13184)
(-0.0033538 -0.0478669 1.1877)
(-0.00704286 -0.110866 1.2207)
(-0.0131072 -0.0388202 1.20272)
(0.00268893 -0.0194726 1.10778)
(0.00215062 -0.0568289 1.13958)
(-0.00983481 -0.0778887 1.19506)
(-0.00534215 -0.0312687 1.11093)
(-0.0118792 -0.049361 1.19963)
(-0.00198853 -0.0501396 1.17745)
(-0.00548198 -0.0196154 1.10491)
(-0.00119278 -0.0709907 1.12212)
(-0.0120486 -0.124447 1.18692)
(0.0105416 -0.0577961 1.16352)
(-0.00432678 -0.0448089 1.10919)
(0.00332981 -0.079797 1.16338)
(-0.00295331 -0.0641768 1.13012)
(0.0117138 -0.115045 1.18444)
(0.00698493 -0.0667546 1.16063)
(-0.00063827 -0.0342456 1.09551)
(0.003637 -0.0731375 1.14776)
(0.0255035 -0.0910947 1.17143)
(0.000866346 -0.067193 1.17961)
(0.0030323 -0.0722191 1.14517)
(-0.0100703 -0.0519787 1.1301)
(0.0142732 -0.138859 1.1645)
(-0.00904574 -0.0881158 1.12954)
(-0.00468618 -0.0337877 1.09595)
(0.00429767 -0.0709795 1.11059)
(0.000709682 -0.0929341 1.12333)
(-0.013701 -0.069786 1.12218)
(-0.00131777 -0.0664488 1.11577)
(-0.00624842 -0.0331911 1.09529)
(-0.0042193 -0.00188128 0.982119)
(-0.00728617 0.00154268 0.998599)
(-0.00448241 0.00345423 0.985192)
(-0.00503702 -0.00372338 0.987705)
(-0.00669109 -0.00136666 0.982924)
(-0.00702203 0.00100847 0.982904)
(-0.00522664 -0.00237721 0.984134)
(-0.00738981 -0.00034127 0.986289)
(-0.00809468 0.00110704 1.01036)
(-0.00625659 -0.000826542 1.01971)
(-0.00471236 -0.000801876 1.01056)
(-0.00775166 0.000832918 1.00877)
(-0.0110001 0.000980372 1.00888)
(-0.00813837 -0.00093709 1.01197)
(-0.00686352 0.000924605 1.00953)
(-0.00523664 0.00133062 1.0141)
(-0.00432694 0.00694448 0.995645)
(-0.00307595 0.00329215 1.00581)
(-0.00215326 0.00899664 1.00323)
(-0.00410221 0.0020866 0.997949)
(-0.00399789 0.00461374 0.99778)
(-0.00344603 0.00695548 1.00022)
(-0.00391651 0.00346569 0.997449)
(-0.00234506 0.00507193 1.00289)
(-0.00452199 -0.00461251 0.994123)
(-0.00595477 -0.00108065 1.00291)
(-0.00357846 -0.0024847 0.997029)
(-0.00325442 -0.00533556 1.00014)
(-0.00499438 -0.00421207 0.996409)
(-0.00617041 -0.00277159 0.998605)
(-0.00406554 -0.00361797 0.996381)
(-0.00433332 -0.00203541 0.999189)
(-0.0104944 -3.02612e-05 0.995237)
(-0.00555738 0.00217913 0.989091)
(-0.00585058 -0.00369017 0.990319)
(-0.0074847 -0.000126155 1.00063)
(-0.00654567 0.00085301 0.998891)
(-0.00779252 -0.000603011 0.987751)
(-0.00752684 -0.000259037 0.999457)
(-0.00763211 -0.00205727 0.991267)
(-0.0088806 0.00118062 0.99761)
(-0.00861562 -0.000607802 1.00438)
(-0.00580279 0.00199427 1.00459)
(-0.00682142 0.00308508 0.991053)
(-0.00854754 -0.000150335 1.00011)
(-0.0104535 -0.000299776 1.00247)
(-0.0042023 0.00256842 0.99637)
(-0.0062888 0.00182923 1.00275)
(-0.00474461 0.00211106 0.988457)
(-0.00465846 -0.00302278 0.990624)
(-0.00640262 0.000241246 1.00046)
(-0.00416528 -0.00103569 0.993664)
(-0.00452999 -0.000152705 0.990728)
(-0.0059765 -0.00180439 0.992762)
(-0.00490908 0.000470888 0.994746)
(-0.00666333 -0.00224827 0.995446)
(-0.0046428 0.00319368 0.993667)
(-0.00377119 0.0015602 0.998712)
(-0.00616805 0.00112554 1.00444)
(-0.00349515 0.00221737 1.00745)
(-0.00558154 0.00180626 0.993676)
(-0.00546485 0.000513248 0.998208)
(-0.00601249 0.000780206 0.999983)
(-0.0072454 0.000297692 1.00204)
(0.00120067 -0.104927 1.09225)
(0.00294552 -0.0686658 1.09476)
(0.00159643 -0.138632 1.1477)
(0.00350356 -0.0944606 1.09994)
(-0.00112492 -0.0950379 1.08528)
(0.000519029 -0.0931968 1.09897)
(0.00688654 -0.123331 1.11509)
(0.00629578 -0.113171 1.12901)
(0.00184175 -0.0307029 1.07912)
(0.00603421 -0.00941606 1.04413)
(0.00501331 -0.0355251 1.10116)
(0.00937747 -0.0127755 1.06416)
(-0.00143797 -0.0251228 1.06955)
(0.00344416 -0.0208074 1.06942)
(0.00576704 -0.0314332 1.08031)
(0.00623486 -0.0215419 1.0863)
(0.00253811 -0.148459 1.2409)
(-0.00638557 -0.0492484 1.22692)
(-0.0361005 -0.0992497 1.32775)
(-0.0200034 -0.093177 1.28675)
(-0.0243454 -0.108751 1.24869)
(-0.00883142 -0.0879063 1.24447)
(-0.0189734 -0.116783 1.29694)
(-0.00873894 -0.0863737 1.29104)
(0.0045178 -0.0576628 1.11476)
(0.0123317 -0.0175763 1.08467)
(-0.00805271 -0.063712 1.18553)
(0.000703482 -0.0311886 1.10677)
(0.00574127 -0.0451041 1.10003)
(0.00677369 -0.0426423 1.10006)
(0.00572616 -0.0519538 1.12601)
(0.00363548 -0.0403079 1.12663)
(-0.00150319 -0.0581626 1.08912)
(-0.00386771 -0.109968 1.14803)
(0.00125465 -0.0790973 1.08869)
(0.000970638 -0.0393392 1.08067)
(0.00549827 -0.0816516 1.10873)
(0.000492628 -0.0895872 1.12457)
(0.00308138 -0.051823 1.08588)
(0.00418718 -0.0734812 1.09346)
(0.00121236 -0.050706 1.09464)
(0.0111029 -0.0334435 1.08028)
(0.00100586 -0.0509275 1.13879)
(-0.00846621 -0.100915 1.15586)
(0.0062669 -0.0686046 1.12463)
(-0.00286172 -0.0451488 1.10264)
(-0.00171208 -0.0802378 1.14667)
(-0.00542731 -0.0589109 1.14468)
(-0.00253008 -0.130137 1.1925)
(0.000366543 -0.0916425 1.13221)
(0.004063 -0.0381152 1.09857)
(-0.00377136 -0.0792695 1.21878)
(0.00971043 -0.104214 1.17835)
(0.00270268 -0.0831439 1.13249)
(-0.00420775 -0.0737299 1.1708)
(-0.00725239 -0.057191 1.12464)
(-0.00182146 -0.12481 1.20258)
(-0.00708768 -0.064712 1.21622)
(0.00663077 -0.029196 1.10595)
(0.00376101 -0.0481992 1.1708)
(-0.0240342 -0.0857081 1.19663)
(-0.00340485 -0.0722421 1.16341)
(-0.00633378 -0.0539749 1.17355)
(0.00784917 -0.0454761 1.13741)
(0.190797 0.0316688 1.37928)
(0.11539 0.0402359 1.14345)
(0.0797023 -0.0034065 1.15657)
(0.0370635 0.0294558 1.273)
(0.0892993 0.0240063 1.32273)
(0.102035 0.00665201 1.17604)
(0.0480563 0.0227524 1.28128)
(0.0741918 0.00209431 1.23217)
(0.0451027 0.0245321 1.03894)
(0.0200857 0.0124919 1.01097)
(0.0345207 0.0225188 1.03546)
(0.048733 0.0327861 1.04222)
(0.0401218 0.0226524 1.02695)
(0.0267085 0.0141355 1.01542)
(0.0441659 0.0236913 1.03916)
(0.0353229 0.0243722 1.02821)
(0.0281995 0.0120195 1.10854)
(0.0301823 0.0222465 1.07645)
(0.0111366 0.0108849 1.08542)
(0.00718262 0.0214598 1.13315)
(0.0397615 0.0194298 1.10294)
(0.0253083 0.0248461 1.07805)
(0.0153007 0.0211347 1.12485)
(0.0168004 0.0169809 1.09333)
(0.0333721 0.0738405 1.18345)
(0.0554071 0.0565734 1.11449)
(0.0252565 0.0502595 1.13593)
(0.0366632 0.0669559 1.18418)
(0.0425192 0.0806184 1.18162)
(0.0410621 0.054628 1.1252)
(0.0378617 0.0678383 1.20081)
(0.0330907 0.0542093 1.15121)
(0.0748075 0.0237669 1.09885)
(0.0636899 0.0262212 1.17139)
(0.0393928 0.0456697 1.22141)
(0.0518971 0.0518308 1.08661)
(0.089106 0.0320001 1.11272)
(0.0649604 0.0149095 1.15303)
(0.0718464 0.0466283 1.10289)
(0.0516866 0.0404256 1.13469)
(0.0580443 0.0268902 1.05676)
(0.0514291 0.0377511 1.05718)
(0.0339744 0.0238653 1.0489)
(0.0472877 0.0365614 1.10888)
(0.0542059 0.0344243 1.07245)
(0.0517779 0.0271942 1.04988)
(0.0569444 0.0277399 1.09923)
(0.0439759 0.0325453 1.06805)
(0.0228346 0.0160857 1.17273)
(0.0436938 0.051467 1.18336)
(0.0505407 0.0486004 1.11688)
(0.0338884 0.0429955 1.133)
(0.0155569 0.0234217 1.18265)
(0.0451661 0.033943 1.13733)
(0.0317438 0.0467576 1.15068)
(0.0517029 0.0501576 1.11652)
(0.0312924 0.0183214 1.13435)
(0.0275799 0.0279315 1.10008)
(0.0476952 0.0366532 1.0755)
(0.0328135 0.0249807 1.05769)
(0.0334752 0.0312299 1.09862)
(0.0374213 0.0387431 1.09868)
(0.0491997 0.0320797 1.08093)
(0.0499435 0.0377047 1.08699)
(0.0190388 -0.0793025 1.27063)
(0.00606126 -0.0383323 1.21538)
(0.0181578 -0.0749359 1.18542)
(0.0194392 -0.0343159 1.25652)
(0.00883367 -0.0686182 1.29117)
(0.0139056 -0.0507424 1.21291)
(0.0124547 -0.0776499 1.27326)
(0.0116919 -0.0697343 1.20438)
(0.00317685 -0.0201803 1.12145)
(0.00185076 0.00270981 1.07961)
(0.00647033 -0.00775902 1.08834)
(-0.0116727 0.0128346 1.09481)
(-0.00500863 0.00178702 1.1393)
(0.00148861 -0.00483285 1.09338)
(-0.00143814 -0.00157103 1.13727)
(0.00866656 -0.007695 1.09196)
(0.0109052 -0.0609185 1.08778)
(0.0124764 -0.0191488 1.06729)
(0.0202368 -0.0366123 1.02725)
(0.0196369 -0.0296928 1.08282)
(0.0104938 -0.037405 1.10948)
(0.0115847 -0.0262242 1.06554)
(0.0120728 -0.0427543 1.07659)
(0.0180156 -0.0313398 1.05263)
(-0.00929201 0.00528414 1.23134)
(-0.00106929 0.0141542 1.13417)
(0.00655519 -0.019436 1.12713)
(-0.0125662 0.0236922 1.19987)
(-0.0058501 -0.000602544 1.21666)
(-0.00605236 -0.00453472 1.14414)
(0.00240432 0.00485411 1.2094)
(-0.00150142 -0.00407596 1.14789)
(0.000991862 -0.0178136 1.21743)
(0.00875926 -0.0531812 1.19385)
(0.00249488 -0.0326574 1.25209)
(-0.00193329 0.00512271 1.17135)
(0.0049939 -0.0249416 1.21292)
(0.00881543 -0.041699 1.20335)
(0.00233962 0.00536946 1.16887)
(-0.00128747 -0.0200467 1.17346)
(0.00303483 -0.0294824 1.12796)
(-0.00606036 -0.00187219 1.11115)
(0.00930729 -0.0128749 1.08832)
(0.00734875 -0.0500005 1.11525)
(0.0110078 -0.0308955 1.13988)
(0.00923686 -0.0157503 1.1348)
(0.00854983 -0.0383101 1.12553)
(0.00727347 -0.0247442 1.13239)
(0.012447 -0.0551034 1.17126)
(0.00234319 -0.0201716 1.23934)
(0.00429891 -0.00488783 1.1662)
(0.00835021 -0.0218447 1.13369)
(0.00651221 -0.0444687 1.15351)
(-0.00487334 -0.031953 1.17147)
(0.00249086 -0.0229804 1.16192)
(0.00351135 -0.0108943 1.16122)
(0.0112427 -0.0467454 1.11797)
(0.00922114 -0.0268188 1.09415)
(-0.00510156 -0.00737502 1.11383)
(0.00894556 -0.0174168 1.07968)
(0.0101462 -0.033821 1.11149)
(0.00608694 -0.0221236 1.10337)
(0.00555558 -0.0336703 1.11565)
(0.002547 -0.00896887 1.10261)
(-0.00344921 0.00350644 1.02306)
(-0.00216664 -0.00387052 1.00939)
(-0.00382475 -2.64644e-05 1.01338)
(-0.00189721 0.00117421 1.0143)
(-0.00144452 0.000932392 1.01377)
(-0.00302705 -0.00112757 1.01248)
(-0.00209509 0.00088834 1.01398)
(-0.00407827 0.000418406 1.01272)
(-0.00110934 -0.00249682 1.00355)
(-0.000203958 -0.000566464 1.00055)
(-0.00120279 -0.000842706 1.00135)
(0.000381436 -0.000900764 1.00142)
(-0.000132209 -0.00103659 1.00165)
(-0.000572257 -0.000798599 1.00103)
(-0.000337476 -0.00133053 1.00176)
(-0.000830195 -0.000378421 1.00136)
(-0.00409899 -0.00156617 1.00918)
(-0.00287594 -0.00100015 1.00324)
(-0.0037365 -0.00108432 1.00811)
(-0.00307211 -0.000479457 1.00764)
(-0.00318037 -0.00111877 1.00645)
(-0.00355845 -0.00162148 1.00591)
(-0.00290856 -0.000952767 1.00654)
(-0.00314108 -0.000663798 1.00549)
(0.000259786 0.000202919 1.00816)
(0.000884566 -0.000957151 1.00318)
(-0.00103838 -0.000384422 1.00546)
(0.00144692 -0.000224517 1.00545)
(0.00114765 -0.000216914 1.00549)
(0.000646406 -0.000871133 1.00355)
(0.000621326 -0.000242921 1.00491)
(-0.000241724 -0.000424188 1.00336)
(-0.000880625 -0.00198513 1.00557)
(-0.0030009 -0.000570235 1.00922)
(0.000241884 0.000607964 1.009)
(0.000330881 -0.000962719 1.00339)
(-0.00108273 -0.00249439 1.00617)
(-0.00153974 -0.000850725 1.00865)
(-0.000268189 -0.00156708 1.00431)
(-0.000533868 -0.00155538 1.00645)
(-0.00201917 -0.00209253 1.00489)
(-0.00015739 -0.00112557 1.00211)
(-0.00189735 -0.00126493 1.00286)
(-0.00361457 -0.00178086 1.00815)
(-0.00185778 -0.00111181 1.0059)
(-0.000817461 -0.000821048 1.00294)
(-0.00232621 -0.00261067 1.00623)
(-0.0013483 -0.00105672 1.00386)
(-0.00325023 -0.000316486 1.00925)
(-0.000508895 0.000311262 1.00819)
(8.08338e-06 -0.00119103 1.00317)
(-0.00125194 -0.000446947 1.00506)
(-0.00300076 -0.000366559 1.00999)
(-0.00146581 -0.000212103 1.00578)
(-0.00156051 -0.000657179 1.00528)
(-0.00041037 -0.000642306 1.00389)
(-0.00402103 -0.000368198 1.00828)
(-0.00134618 -0.000238289 1.00404)
(-0.000519798 -0.000690685 1.00211)
(-0.0021592 -0.000260324 1.00322)
(-0.00194924 -0.000526614 1.00529)
(-0.00118068 -0.000901541 1.00432)
(-0.00155198 -0.00138762 1.00403)
(-0.00112452 -0.00112192 1.00315)
(0.150701 0.0455903 1.37713)
(0.128633 -0.062381 1.29341)
(0.107761 -0.0346562 1.32081)
(0.0561196 -0.00515472 1.32878)
(0.139652 -0.0396839 1.26574)
(0.0883029 -0.0636414 1.31484)
(0.0501435 -0.0235706 1.29101)
(0.13552 -0.0325764 1.29447)
(0.130296 -0.0217899 1.1907)
(0.130336 -0.0157557 1.09533)
(0.146649 -0.0136872 1.14835)
(0.0967657 -0.00954999 1.18351)
(0.108326 -0.0256782 1.1245)
(0.132154 -0.00650604 1.11283)
(0.115175 -0.0125751 1.14815)
(0.130061 -0.0172426 1.15846)
(0.10771 -0.0230133 1.3112)
(0.14766 -0.0197467 1.25972)
(0.127269 -0.0330522 1.36196)
(0.0508527 -0.00649402 1.24253)
(0.0964511 -0.0371744 1.24103)
(0.130978 -0.0347924 1.29361)
(0.0415324 -0.0216751 1.2595)
(0.182257 0.0238669 1.25448)
(0.0104655 -0.00961525 1.19865)
(0.0496193 -0.00874088 1.1443)
(0.0023902 -0.000868057 1.16523)
(-0.00628158 0.000725414 1.13548)
(0.0204254 0.000931844 1.17448)
(0.0322693 -0.0154324 1.17048)
(-0.00369243 -0.00238224 1.16184)
(0.0290452 -0.00773184 1.16658)
(0.141989 -0.0355755 1.21497)
(0.0932607 -0.0553913 1.28821)
(0.0387471 -0.00506391 1.30756)
(0.0885629 -0.0117411 1.17607)
(0.134805 -0.0248088 1.25833)
(0.137365 -0.0292525 1.25335)
(0.0823369 -0.0161061 1.28405)
(0.0655995 -0.0171957 1.30855)
(0.123614 -0.0398605 1.22342)
(0.0977347 -0.0144226 1.19115)
(0.145437 -0.0261112 1.17099)
(0.107257 -0.0548652 1.30119)
(0.122589 -0.0364388 1.23758)
(0.107788 -0.0162145 1.13996)
(0.128152 -0.0458705 1.26436)
(0.12454 -0.0237057 1.13509)
(0.0303252 -0.0265045 1.30513)
(0.00788153 -0.0154176 1.29297)
(0.0613094 -0.00309928 1.18763)
(0.0146345 -0.00495108 1.23846)
(0.0515459 -0.0110889 1.32555)
(0.0430754 -0.0184091 1.30356)
(0.035196 -0.00457328 1.24495)
(0.0689205 -0.00755563 1.23069)
(0.129065 -0.0159429 1.27622)
(0.0731015 -0.0120614 1.23688)
(0.073612 -0.00749794 1.20639)
(0.126283 -0.0112633 1.25401)
(0.138221 -0.0223865 1.1991)
(0.0703007 -0.0207692 1.24446)
(0.134961 -0.0137721 1.1972)
(0.0756848 -0.00912057 1.22994)
(0.00795531 -0.0596158 1.17003)
(0.0179681 -0.0718782 1.22916)
(0.0174221 -0.0185789 1.23862)
(0.0175459 -0.0355576 1.21181)
(0.0127164 -0.0643352 1.19612)
(0.00731111 -0.0459085 1.20228)
(0.0161286 -0.0230886 1.20059)
(0.027728 -0.0300317 1.2201)
(-0.0038988 -0.0714752 1.29459)
(-0.0552546 -0.0301363 1.35706)
(0.0329584 0.00088063 1.43356)
(0.0258037 0.00966801 1.39438)
(0.00241149 -0.0454688 1.33127)
(0.00171748 -0.0251735 1.34467)
(0.0218591 0.0054999 1.39014)
(0.0249575 0.000101432 1.39149)
(-0.0121813 0.0365745 1.38113)
(0.0267421 0.0417052 1.47167)
(-0.0245998 0.0291945 1.4973)
(0.0199587 0.0453482 1.43625)
(-0.0258591 0.0453178 1.4166)
(-0.0362637 0.0677332 1.46021)
(-0.00760532 0.0537891 1.44988)
(-0.0460596 0.08255 1.48336)
(0.0287614 0.00417083 1.23817)
(0.0440945 0.033368 1.27026)
(0.038706 0.0397198 1.31286)
(0.0501459 0.0457983 1.23141)
(0.0301828 0.0207013 1.25025)
(0.0263915 0.0332289 1.30045)
(0.0514428 0.044131 1.25733)
(0.0396883 0.0522225 1.31702)
(0.0213618 -0.0772214 1.23174)
(-0.000399056 -0.00249543 1.28119)
(0.0123985 -0.0222335 1.24255)
(0.0261606 -0.0044873 1.28483)
(0.0268179 -0.0160156 1.27284)
(0.0159352 -0.0222436 1.24669)
(0.023987 -0.022517 1.26877)
(0.0125187 -0.00875971 1.2525)
(0.0280953 -0.051131 1.29531)
(0.0221218 0.0176919 1.38037)
(0.0284069 0.0117392 1.42259)
(0.00587853 0.00286112 1.3295)
(0.0360302 -0.0171357 1.35626)
(0.0220169 0.00154411 1.3845)
(0.0259162 -0.00715684 1.36968)
(0.00547374 0.00788896 1.39056)
(0.011919 0.0173665 1.30011)
(0.0277103 0.00534153 1.23583)
(0.0419778 0.0272971 1.28407)
(0.0332245 0.0397948 1.33033)
(0.020072 0.0133205 1.29682)
(0.0254406 0.0123107 1.27526)
(0.0147428 0.0181904 1.32332)
(0.0254135 0.023723 1.29234)
(0.011168 0.0190573 1.3589)
(0.0168477 0.0546408 1.38465)
(0.0476979 0.0358397 1.38964)
(0.0188054 0.0413021 1.46942)
(0.00976844 0.0349945 1.39369)
(0.00750945 0.0338927 1.37689)
(0.0222026 0.0409627 1.42076)
(0.0353984 0.0341988 1.41399)
(0.0706719 -0.0290544 1.00647)
(0.111692 -0.0749278 1.06407)
(0.124686 -0.0436242 1.10235)
(0.0951968 -0.0727196 1.10648)
(0.0696581 -0.0422685 1.03785)
(0.0969611 -0.0579373 1.05526)
(0.0967161 -0.0543455 1.06834)
(0.102955 -0.0700316 1.08036)
(0.110513 -0.155205 1.20029)
(0.0719798 -0.271623 1.48448)
(0.137009 -0.121521 1.40407)
(0.062467 -0.106233 1.39101)
(0.134998 -0.165211 1.29607)
(0.136386 -0.18965 1.39013)
(0.071922 -0.143307 1.36232)
(0.100385 -0.134103 1.41627)
(0.210681 -0.0804607 1.28173)
(0.166736 -0.0912076 1.3924)
(0.224015 -0.0663497 1.52659)
(0.12371 -0.072709 1.40014)
(0.202479 -0.0405566 1.33111)
(0.20453 -0.103139 1.37164)
(0.119457 -0.0684188 1.38931)
(0.143172 -0.0967084 1.42422)
(0.0704138 -0.0915867 1.21636)
(0.0614432 -0.067104 1.28593)
(0.0845754 -0.0747731 1.31567)
(0.0546718 -0.0638055 1.24058)
(0.0673008 -0.0797448 1.21628)
(0.075309 -0.0884879 1.25374)
(0.0589661 -0.0740994 1.23652)
(0.0642943 -0.0724767 1.26366)
(0.100391 -0.107777 1.10955)
(0.136184 -0.0628959 1.16037)
(0.103239 -0.0747339 1.1319)
(0.0832397 -0.0971897 1.25365)
(0.107806 -0.0960309 1.15742)
(0.126495 -0.090408 1.12635)
(0.0910243 -0.122117 1.20626)
(0.122915 -0.0906408 1.16247)
(0.112683 -0.116098 1.1686)
(0.0928965 -0.103713 1.33788)
(0.150508 -0.112403 1.3422)
(0.159177 -0.085646 1.17356)
(0.124145 -0.13306 1.20424)
(0.0815345 -0.117083 1.27073)
(0.155579 -0.115987 1.21614)
(0.125662 -0.108071 1.2571)
(0.141905 -0.0654353 1.18546)
(0.0759305 -0.0813596 1.18207)
(0.0809955 -0.0869502 1.26606)
(0.0957492 -0.0631361 1.30685)
(0.137446 -0.0783517 1.2748)
(0.105201 -0.10146 1.20964)
(0.121773 -0.0752274 1.27336)
(0.0783723 -0.0935911 1.23807)
(0.157104 -0.0947855 1.22098)
(0.0983575 -0.0714981 1.33698)
(0.0791667 -0.087381 1.3264)
(0.138553 -0.097885 1.36364)
(0.110288 -0.0909779 1.29368)
(0.114033 -0.0870778 1.32357)
(0.119987 -0.0831505 1.31513)
(0.0925589 -0.0942566 1.32688)
(-0.134813 -0.0402087 1.32121)
(-0.152376 -0.0166538 1.22574)
(-0.0357589 0.0109154 1.11986)
(-0.0512322 -0.0216368 1.17882)
(-0.0980468 -0.0832526 1.2881)
(-0.136921 -0.000101795 1.21751)
(-0.0700399 0.0110375 1.22122)
(-0.0742742 0.0295771 1.22431)
(-0.114462 -0.00548812 1.09513)
(-0.0461782 0.00198433 1.01851)
(-0.0473076 -0.000314973 1.05414)
(-0.0604611 -0.00689651 1.06946)
(-0.071858 0.00123286 1.0408)
(-0.0559248 -0.00500105 1.02238)
(-0.0630776 0.00146873 1.04823)
(-0.0490361 0.000711632 1.0322)
(-0.00868831 0.000866454 1.07677)
(-0.0207857 0.000306593 1.05966)
(0.00222216 -0.00489456 1.03384)
(-0.00122305 -0.00677941 1.06988)
(-0.017138 -0.000519984 1.07586)
(-0.0195747 0.000709774 1.06754)
(-0.00660581 -0.000357452 1.07298)
(-0.0103998 0.00115149 1.05246)
(-0.0226695 -0.0169598 1.11828)
(-0.0385983 -0.0120511 1.10241)
(0.000551299 -0.0195077 1.0708)
(-0.0211186 -0.0169221 1.11261)
(-0.0378884 -0.0142401 1.1165)
(-0.0353227 -0.00845286 1.09947)
(-0.0256038 -0.0108366 1.10979)
(-0.0209742 -8.88315e-05 1.1048)
(-0.112758 -0.0282682 1.12437)
(-0.051845 -0.00695233 1.13627)
(-0.0708352 -0.0277143 1.18441)
(-0.0604099 -0.0123373 1.09038)
(-0.0880863 -0.00571971 1.1346)
(-0.0763227 0.00041819 1.14032)
(-0.0756499 -0.0062506 1.15465)
(-0.0756198 -0.00128101 1.15004)
(-0.106433 -0.0109976 1.10186)
(-0.0609995 0.000320627 1.07011)
(-0.0455462 0.00530466 1.06375)
(-0.051079 -0.00729852 1.11628)
(-0.0728128 0.025103 1.11096)
(-0.0636026 0.00402823 1.0601)
(-0.0554921 0.00193038 1.11686)
(-0.0379535 -0.0157603 1.06763)
(-0.0237416 0.00202069 1.13669)
(-0.0246051 -0.002812 1.15223)
(-0.046998 -0.00304382 1.08921)
(-0.00562224 -0.00370455 1.08127)
(-0.0171406 -0.00550044 1.1363)
(-0.0444537 0.0249395 1.15099)
(-0.0187366 -0.0161509 1.08657)
(-0.0338924 -0.00591166 1.09254)
(-0.0274672 0.0112957 1.09987)
(-0.00940718 0.000794346 1.0837)
(-0.0442927 0.00511994 1.07348)
(-0.0328629 0.00663618 1.06306)
(-0.0220727 -0.00375659 1.07952)
(-0.0227459 -0.00465325 1.08328)
(-0.0328606 -0.00296374 1.07316)
(-0.0247802 -0.0127207 1.07625)
(0.147892 0.00339311 1.42474)
(0.133718 0.0258391 1.22173)
(0.11959 0.0302964 1.11229)
(0.0847075 0.0279918 1.21814)
(0.104726 0.0401503 1.2856)
(0.165984 0.0277774 1.23256)
(0.0974815 0.0160555 1.21758)
(0.121324 0.0300788 1.19812)
(0.0889707 0.0360744 1.07516)
(0.0502489 0.0348876 1.02477)
(0.0357905 0.020813 1.01953)
(0.0841382 0.0667421 1.08955)
(0.0724108 0.0576524 1.04087)
(0.0407054 0.0302302 1.02136)
(0.0592222 0.0445693 1.04346)
(0.0405486 0.0254309 1.04769)
(0.0451237 0.0232603 1.0217)
(0.0301354 0.0134021 1.01308)
(0.0127473 0.011097 1.00161)
(0.0383186 0.0318316 1.02646)
(0.0362833 0.0189707 1.01655)
(0.0241955 0.0161961 1.00427)
(0.0359442 0.0201855 1.02086)
(0.0197492 0.0199102 1.02163)
(0.0627586 0.0592437 1.17836)
(0.0729314 0.073182 1.14999)
(0.0501386 0.0549828 1.08697)
(0.0517413 0.0655057 1.1683)
(0.0638989 0.0649658 1.16495)
(0.0735618 0.0752774 1.14859)
(0.0578544 0.0748996 1.17517)
(0.0489187 0.0923966 1.16036)
(0.112235 0.0378295 1.12254)
(0.0791654 0.0377861 1.08782)
(0.0620174 0.0402418 1.18103)
(0.0840959 0.0727747 1.11201)
(0.0802023 0.0425184 1.11105)
(0.104819 0.0307207 1.14184)
(0.0708534 0.0612878 1.14477)
(0.086591 0.0472639 1.15698)
(0.0959622 0.0302949 1.10376)
(0.0772165 0.0619706 1.08204)
(0.0328186 0.0201855 1.00656)
(0.0715942 0.0319603 1.04353)
(0.0805608 0.038264 1.09662)
(0.0672756 0.0368186 1.05057)
(0.0718086 0.0352473 1.04865)
(0.0482866 0.0271421 1.01903)
(0.0729592 0.0338638 1.06711)
(0.0673482 0.0566252 1.16992)
(0.0735289 0.0698593 1.1164)
(0.0545042 0.0484979 1.08402)
(0.0672503 0.0460039 1.08972)
(0.0664579 0.0638334 1.1709)
(0.0624283 0.0465604 1.07482)
(0.0682802 0.0690521 1.11952)
(0.0537137 0.0343334 1.05054)
(0.0426267 0.0537772 1.06909)
(0.0611634 0.0667641 1.11075)
(0.0294107 0.0274239 1.03835)
(0.0549644 0.0226131 1.03673)
(0.0596957 0.0383581 1.05222)
(0.0473479 0.0300107 1.02751)
(0.0590038 0.0442938 1.05107)
(-0.0361396 -0.00313695 1.01247)
(-0.0937995 -0.00868163 1.06106)
(-0.0459149 0.000964587 1.04462)
(-0.0551221 0.00075515 1.03675)
(-0.0547548 -0.00193422 1.01296)
(-0.0578 -0.00278288 1.02499)
(-0.0518837 0.00865425 1.03737)
(-0.0599812 0.000484033 1.0457)
(-0.153183 -0.016284 1.1682)
(-0.210251 -0.0305915 1.36149)
(-0.0261371 0.0104119 1.09245)
(-0.1033 -0.00789797 1.23212)
(-0.158445 -0.00676108 1.21282)
(-0.102195 -0.00885392 1.21117)
(-0.0883434 -0.0334564 1.2247)
(-0.0845707 0.027857 1.18104)
(-0.0194067 0.00411867 1.05703)
(-0.00705462 -0.00660623 1.07429)
(0.00103789 -0.00238423 1.03686)
(-0.00773571 -0.00185267 1.05804)
(-0.0259306 0.00184096 1.06572)
(-0.0223936 0.00350469 1.06881)
(-0.0126507 -0.00334588 1.05091)
(0.00129824 -0.00826024 1.05601)
(-0.0548135 0.00328568 1.05312)
(-0.0610667 0.000583117 1.11803)
(-0.0173172 0.00633145 1.05271)
(-0.0452787 0.0067683 1.07133)
(-0.0518783 0.00688228 1.07212)
(-0.0473984 0.0139492 1.06886)
(-0.0328758 0.00795179 1.07118)
(-0.0289501 0.00808027 1.06434)
(-0.106832 -0.0107311 1.07835)
(-0.0527341 0.0055619 1.06321)
(-0.0625706 0.000185675 1.0532)
(-0.0876826 0.00232447 1.12351)
(-0.0860976 0.00569656 1.08281)
(-0.0482266 0.00703643 1.06088)
(-0.0933004 -0.00785044 1.09176)
(-0.0556864 0.00170057 1.05308)
(-0.0940756 -0.00674472 1.09194)
(-0.0812642 0.00898369 1.11601)
(-0.0491517 -0.00140953 1.10878)
(-0.0419389 0.0032468 1.06409)
(-0.0785442 -0.00432892 1.11205)
(-0.064975 0.00302944 1.09429)
(-0.0644845 -0.0015528 1.10268)
(-0.0566813 -0.00329249 1.0998)
(-0.0352524 0.00293459 1.05196)
(-0.0528695 0.00847556 1.05049)
(-0.0538284 -0.000656147 1.1253)
(-0.0190256 0.00367105 1.05539)
(-0.0409871 0.00467484 1.05816)
(-0.0478749 0.00179517 1.06704)
(-0.0309318 0.00322618 1.06852)
(-0.0357917 0.00709399 1.06333)
(-0.0359547 0.00690553 1.06532)
(-0.0151599 0.00406541 1.06113)
(-0.0428509 0.0147113 1.10984)
(-0.0175921 -0.0157077 1.09633)
(-0.0321113 -0.00277429 1.06583)
(-0.0308137 0.00271519 1.06931)
(-0.0484766 0.0102599 1.09022)
(-0.0197157 -0.00961758 1.10006)
(0.0198258 -0.117221 1.15612)
(0.00423454 -0.0890899 1.16397)
(0.0142317 -0.105529 1.20129)
(0.0193712 -0.0581973 1.25295)
(0.0185288 -0.0959879 1.23911)
(0.0115437 -0.108151 1.21663)
(0.0282844 -0.0857111 1.22609)
(0.0286674 -0.0939474 1.2188)
(0.0180555 -0.0401377 1.10978)
(0.0182816 -0.0278505 1.04169)
(0.0165105 -0.0448623 1.06813)
(0.0168208 -0.0366539 1.0763)
(0.0130459 -0.0431813 1.08295)
(0.0166671 -0.0491083 1.07415)
(0.024516 -0.0383855 1.06946)
(0.0221826 -0.0447953 1.06082)
(0.0149975 -0.0851969 1.17527)
(0.0186721 -0.0583308 1.09896)
(0.0273468 -0.0701849 1.15111)
(0.021593 -0.0610922 1.17774)
(0.0238369 -0.0672055 1.15919)
(0.0289044 -0.0765656 1.13998)
(0.0290465 -0.0587088 1.16311)
(0.0323282 -0.0686289 1.14348)
(0.00226151 -0.0130856 1.22656)
(0.0146193 -0.0212274 1.13827)
(0.0137514 -0.0262439 1.21327)
(0.00511764 0.0080454 1.2163)
(0.001598 -0.0180572 1.21734)
(0.011616 -0.0284168 1.2081)
(0.000118753 -0.00345352 1.212)
(0.0145621 -0.0168619 1.20957)
(0.0120844 -0.0705203 1.16501)
(0.0193744 -0.0943203 1.20059)
(0.0113928 -0.0567076 1.24327)
(0.00759291 -0.0405848 1.1352)
(0.014728 -0.0664625 1.13617)
(0.0134916 -0.0717231 1.21502)
(0.0139868 -0.0479528 1.15771)
(0.0177757 -0.0657357 1.22831)
(0.0119262 -0.0722923 1.15306)
(0.0168033 -0.0433384 1.12501)
(0.0206056 -0.060537 1.09917)
(0.0129705 -0.0940293 1.17576)
(0.0190482 -0.0695191 1.13948)
(0.0195778 -0.0447772 1.1163)
(0.00525392 -0.0784232 1.13098)
(0.0156667 -0.0584273 1.11472)
(0.024819 -0.0757124 1.19158)
(0.00675624 -0.0401378 1.21788)
(0.0110546 -0.0343351 1.12084)
(0.0177061 -0.0324564 1.19971)
(0.0188793 -0.0670571 1.21387)
(0.0170899 -0.0530983 1.21912)
(0.0140834 -0.0499293 1.19999)
(0.00992132 -0.0309775 1.1953)
(0.0270406 -0.0820031 1.17987)
(0.0266922 -0.0489291 1.18733)
(0.020636 -0.041195 1.12118)
(0.0234491 -0.0588946 1.08776)
(0.0219823 -0.0650968 1.16173)
(0.0206266 -0.0577552 1.1735)
(0.0174629 -0.0534891 1.10255)
(0.0205291 -0.0476671 1.10909)
(-0.0266902 -0.00133709 0.980217)
(-0.0249285 8.07838e-05 0.996943)
(-0.0154122 0.000383167 0.972188)
(-0.0176916 -0.00151961 0.988836)
(-0.0222424 -0.00303054 0.982542)
(-0.0262179 -0.00108734 0.984364)
(-0.0166227 -0.00020632 0.982293)
(-0.0202689 -0.000560515 0.985041)
(-0.0197824 -0.000552625 1.01097)
(-0.0118216 -0.00142319 1.01649)
(-0.012643 -0.000268321 1.00163)
(-0.00976122 0.00152824 1.00974)
(-0.015909 -0.000513659 1.00773)
(-0.0136997 -0.00138579 1.01025)
(-0.0154207 0.00180603 1.00034)
(-0.012788 0.000487939 1.00124)
(-0.0123599 -0.00181272 0.974535)
(-0.0120124 -0.00154448 0.9879)
(-0.0117251 -7.44788e-05 0.975306)
(-0.00837027 -0.00497635 0.984662)
(-0.0101452 -0.00285227 0.977086)
(-0.01237 -0.00116863 0.982239)
(-0.00692237 -0.00331956 0.976247)
(-0.00910089 -0.00185241 0.975809)
(-0.0114494 -0.00323632 0.992723)