/*--------------------------------*- C++ -*----------------------------------*\
| =========                 |                                                 |
| \\      /  F ield         | OpenFOAM: The Open Source CFD Toolbox           |
|  \\    /   O peration     | Version:  2506                                  |
|   \\  /    A nd           | Website:  www.openfoam.com                      |
|    \\/     M anipulation  |                                                 |
\*---------------------------------------------------------------------------*/
FoamFile
{
    version     2.0;
    format      ascii;
    arch        "LSB;label=32;scalar=64";
    class       surfaceScalarField;
    location    "1600";
    object      phi;
}
// * * * * * * * * * * * * * * * * * * * * * * * * * * * * * * * * * * * * * //

dimensions      [0 3 -1 0 0 0 0];

oriented        oriented;

internalField   nonuniform List<scalar> 
115744
(
0.0206568
-0.00941815
-0.024694
0.0134655
0.025017
-0.00679405
0.034923
-0.0531452
-0.0179334
0.0190049
-0.000624031
-0.000509279
-0.00662684
0.0207082
-0.00820288
-0.00585737
0.0173967
0.00189824
0.00135682
0.0127411
0.0296574
0.023526
-0.028266
0.0183343
-0.00666677
0.0638129
0.107319
-0.164465
0.0875392
0.198273
0.069471
-0.355281
-0.124996
0.0220214
0.0785074
0.0244625
0.0660169
0.0570023
0.0531074
-0.17613
0.115741
0.0572733
-0.179691
0.0615199
0.14176
0.0812993
0.0419879
0.0178237
-0.00539959
-0.0254309
-0.0378797
0.0687148
0.0377506
-0.0463465
-0.00779373
0.0163743
0.0214932
-0.148732
0.155757
-0.0285282
-0.0615647
-0.0135522
0.0644759
0.0106434
-0.00795254
0.0572821
-0.0547461
0.0676621
-0.03788
-0.076515
0.0722279
0.0126476
0.0411273
-0.022728
-0.0166629
-0.00171182
-0.0159166
0.00813295
0.0106813
-0.00290666
-0.00278321
-0.0320555
0.0111123
0.0237408
-0.0216325
-0.0208979
0.0246334
0.017918
0.0238185
0.0282757
-0.0109627
0.0160939
-0.00819028
0.0169423
-0.0102914
0.0302596
0.0203405
0.0454099
-0.0725383
-0.0231166
0.0139403
0.0281719
0.0118604
0.0251292
-0.0162778
0.000895527
0.0482185
0.023672
-0.0727881
0.00134443
-0.0187935
0.0377894
-0.00343961
0.038905
-0.0568039
0.0473242
0.0487085
0.060514
0.0440157
0.0612013
-0.0512986
0.0302957
0.0430136
-0.0343242
0.0398431
0.00840863
0.0162556
0.0702425
0.102258
0.0121058
0.0238122
0.0630625
0.0152759
-0.00708288
0.0199764
0.0106017
-0.00820152
0.00631525
0.0254843
-0.0430072
-0.0152831
0.0262265
-0.0335087
0.0284326
0.0203482
0.0244162
-0.0225411
0.00795996
0.00732219
-0.0462046
0.0173704
0.0697429
0.0169451
-0.0263425
0.0102871
0.00755431
-0.054989
-0.0306938
-0.0182729
0.0207771
0.107255
-0.0917001
-0.0178297
0.00227532
-0.0121447
0.0160267
-0.0250849
0.0212075
0.00128872
-0.0101872
-0.00124659
0.0101407
-0.0875154
0.0927182
-0.00716924
0.00196608
0.0143329
0.0992349
-0.00631342
0.0484866
-0.0462992
0.0073215
0.00439681
0.0570969
-0.0142583
0.00636575
0.00031455
0.00757903
0.00767091
0.0180756
0.000608019
-0.0263528
0.00445906
0.00537923
0.0165608
-0.0264016
0.0013077
0.00150111
0.00985352
-0.0126547
-0.0110019
-0.0102208
0.00696682
-0.0118372
0.00850883
-0.0149382
0.00602533
-0.0223169
-0.0316091
0.00893627
0.0151444
0.00752679
0.00976181
0.00332754
0.0225607
-0.0356555
0.000838005
0.0459261
-0.00368682
-0.0430815
0.0231725
0.0101496
-0.00443144
-0.0288943
-0.0145695
-0.0300034
0.0129629
-0.0238385
0.0190314
-0.0108329
0.00399962
-0.0338339
0.0883914
-0.0840247
0.00142233
-0.00579058
-0.0109638
-0.047544
0.0157824
0.0427264
-0.00436744
-0.00725692
-0.00203663
0.0136308
-0.076223
0.00299529
0.00228492
0.0709357
0.00747447
0.080073
0.000840206
0.0545341
-0.0580273
0.00787314
-0.00402986
0.0580387
0.00703798
-0.00657417
0.0155622
0.00511878
-0.0033786
-0.0119212
0.00463652
0.0898593
-0.00177837
-0.0219919
-0.0096489
0.0214992
0.0101472
-0.00536469
0.0315592
-0.0191572
0.0568506
-0.0082572
0.0178231
0.0532299
-0.00396355
0.00375825
-0.00586014
-0.00228406
0.0131966
-0.019081
0.011255
0.0020675
-0.00481074
-0.000638705
-0.0113638
-0.0117578
-0.0112033
-0.00789962
-0.00179409
-0.00591089
0.00415723
-0.0206397
0.00456262
0.00400353
0.00183084
-0.0063165
-0.0197259
-0.00141907
-0.00482894
-0.00101026
0.00282219
-0.00515903
0.00649724
0.0600557
0.00428808
-0.0108642
-0.0165146
0.017129
-0.0118083
-0.0209576
-0.00105383
0.0109529
-0.0267137
0.00308585
-0.00664024
0.00934965
-0.00160135
-0.0132097
-0.0219936
0.0136523
0.00950531
-0.00116884
0.0101886
-0.0213783
0.0131651
-0.00197685
-0.00140345
-0.0205254
0.0132427
0.0086869
0.0130872
-0.0220597
0.0108334
-0.00185516
-0.00874733
-0.0115003
-0.00174374
-0.0115561
0.0129964
-0.00797357
0.00956303
-0.0209325
-0.0203647
0.0104639
0.0135147
-0.00361645
0.00993663
0.0128087
-0.007002
-0.0157449
-0.00198049
0.00828288
0.0114826
-0.0177868
0.0120473
0.00949821
-0.00536135
-0.0161872
-0.00544379
-0.00908677
-0.00583599
-0.0089773
0.0134702
-0.00571027
0.00866969
-0.0166683
-0.0185996
-0.00118339
0.0113639
0.00842286
0.00820906
0.000824287
0.00993723
-0.018971
4.98904e-05
0.0119054
0.00723549
-0.0191891
0.00996281
0.00106709
0.00661641
-0.0176484
-0.00781338
-0.00993493
-0.000847429
-0.010856
0.011253
-0.00764599
0.00767464
-0.0184522
-0.0206492
0.0133407
0.01079
-0.00347494
0.00954003
0.0114248
-0.00376646
-0.0172037
-0.000650804
0.0111879
0.00774282
-0.0182847
0.0116757
0.0103514
-0.00476731
-0.0172632
-0.00659841
-0.00892073
-0.00512837
-0.0103996
0.0133429
-0.00680578
0.00956382
-0.0178566
-0.0103151
-0.00813396
-0.00293088
-0.00187356
-0.00757149
-0.0110756
-0.00830578
-0.0105272
-0.00321413
0.0200639
-0.00615735
-0.00923487
-0.00467825
0.00949293
-0.0132782
-0.00652789
-0.0133105
0.0101601
-0.00337083
-0.0114539
-0.0111133
0.0134444
0.0135169
-0.0101777
0.00672587
-0.0105975
0.0121529
-0.00880588
-0.0110197
0.0122564
-0.0197055
0.00206362
0.00248127
-0.0197711
0.0130287
-0.0105634
-0.0131417
-0.00703474
0.0091076
-0.00759291
0.0104125
0.00960055
-0.00741061
0.0106969
-0.00766587
0.00816288
-0.0018102
-0.0197353
0.00840779
-0.0208565
-0.00208699
-0.00694579
-0.019236
0.0109308
-0.0175276
3.94372e-05
-0.0176281
0.00845056
-0.0182235
-0.0117773
-0.00830319
-0.00779207
-0.0104157
-0.0181687
0.0136706
-0.00726942
0.0156971
-0.0220995
0.00403799
0.0162513
-0.0048127
-0.0154748
-0.013652
0.014197
-0.00677096
0.00622624
-0.00633059
0.0169395
0.0054148
-0.0160247
0.00853894
0.0221237
-0.0169932
0.0203525
-0.00777501
0.00873421
0.00705756
0.0154345
0.0183466
-0.00308412
-0.00659749
-0.00865853
-0.00775025
-0.00940829
-0.00325955
0.0204247
-0.0039989
-0.00616989
-0.00941552
0.0195922
-0.00707987
-0.00724008
-0.00514713
0.0194797
0.0126871
0.0128396
-0.00717013
0.0127792
-0.00783502
0.0112698
-0.00550058
0.0200514
0.0158253
-0.00743183
-0.00662182
-0.00177009
-0.00547158
-0.00441571
-0.0102412
0.0201325
-0.00343366
-0.00797211
-0.00784611
0.0192507
-0.00851061
-0.00232158
-0.0073953
0.0182247
0.00903191
0.0116662
-0.00487714
0.0134812
-0.00991967
0.00905387
-0.00589985
0.0191031
0.0197083
-0.00648054
-0.000171873
-0.0130528
-0.00555196
-0.00753226
-0.00748188
0.0205751
-0.00462292
-0.0086812
-0.00603781
0.0193509
-0.00920699
-0.0034761
-0.00959529
0.0222923
0.0127982
0.0182965
-0.0113786
0.0134802
-0.00622443
0.0113098
-0.00221301
0.0201684
0.016555
0.0127774
-0.0130741
-0.00949201
0.00854852
0.0151394
0.0121232
0.0195808
-0.0147668
-0.0191814
0.0136654
0.0153416
-0.00981691
-0.00013778
0.00513428
0.0115623
0.00580421
-0.00274119
-0.0113064
0.0151856
0.0163347
-0.00663961
-0.00572209
0.0121596
-0.0114461
0.0139641
-0.00867799
0.00130266
0.0145861
-0.00733549
0.0184571
0.00944323
0.00723577
0.0173949
-0.00664598
0.0131883
0.0064629
0.00935913
-0.000680547
0.0107528
0.00234646
-0.00446402
0.0122809
-0.0131941
0.00971343
-0.00520936
-0.00835751
0.0171432
-0.0023239
0.0175815
-0.00689303
0.0108407
0.0165107
-0.0117624
0.0191524
0.00474998
0.0196925
-0.0104756
0.020031
0.00684304
0.00479076
0.00592219
0.00750489
0.0181777
0.000456894
-0.0131651
-0.00355916
0.0162626
-0.00302848
-0.00509944
-0.00950955
0.0176371
0.0143414
-0.00432008
-0.0090255
-0.00100243
-0.0133447
-0.000699514
-0.00324116
0.0172884
-0.012301
-0.00410675
0.0168595
-0.00484365
-0.0104915
-0.0133288
-0.00412602
-0.00383173
-0.00746834
-0.000281373
-0.0106962
0.0184476
-0.000168737
-0.010414
0.0199874
-0.0094054
0.0169041
0.00218484
-0.00878626
-0.0103009
-0.0108814
-0.000586196
0.018844
-0.00737675
-0.0176454
-0.0085176
0.0186914
-0.00830162
-0.00951556
-0.0184999
-0.000901069
-0.00989581
-0.00838232
0.0119528
-0.00577363
0.00219813
0.00571863
0.0133132
-0.00771195
-0.0113244
0.0093802
-0.00654524
0.0105813
-0.0134173
-0.00555583
0.01225
0.00293985
-0.00963558
-0.0166082
-0.0041603
0.0123796
-0.00413105
-0.00676156
-0.0167644
0.00704648
-0.0115153
-0.00325695
-0.0123153
-0.00303893
0.0186161
-0.00176616
-0.0107472
0.0188585
-0.00634661
0.0156358
-0.00779307
0.000443941
-0.008284
-0.0109712
-0.00154093
0.0194139
-0.00689515
-0.0151613
-0.00659559
0.0185013
-0.0070288
-0.00990019
-0.016821
-0.000743441
-0.00821322
-0.00727939
-0.0158729
0.0180556
0.0156212
-0.0146381
-0.00530795
-0.0127655
-0.00554136
0.0176052
0.00457592
-0.0156972
-0.0073855
0.018502
-0.00204155
0.00974236
-0.0149846
0.00974596
-0.00313025
0.0174474
-0.00615205
-0.00626584
-0.00989046
-0.00929262
-0.00699448
0.0167459
-0.00664551
-0.00791952
-0.00121187
-0.0051188
-0.00830933
-0.00606162
-0.0151895
-0.0162566
-0.00771155
-0.00869102
-0.00722603
0.00940614
-0.0134673
-0.00125639
-0.0144028
-0.00345516
-0.00116552
-0.0169708
0.00570425
-0.0162238
0.0027156
0.0162419
-0.00493379
-0.00190827
-0.00431366
0.0153794
-0.0146149
-0.00663661
0.00589874
-0.00987663
-0.0156861
-0.00827882
0.017515
-0.0108494
0.00807952
-0.00234564
-0.000638255
0.00794076
-0.00838304
-0.0243521
-0.00454427
0.00572938
0.0231713
-0.00311181
-0.02094
-0.00545742
0.0295118
0.00494637
-0.0105152
-0.0103272
0.0159029
0.0235763
-0.014884
-0.0102978
0.00161068
0.000521493
-0.0277719
0.00290251
-0.018557
0.0159682
0.00345297
-0.00764468
-0.0101582
0.0173892
0.00762932
-0.00784735
-0.017171
0.0263259
-0.0643484
-0.0536773
-0.018502
-0.0182811
0.0117007
0.0147221
-0.0157479
-0.00022162
0.0196527
-0.00260935
0.000346045
0.0500308
-0.00405141
0.0147704
-0.00265785
-0.013202
0.00917993
-0.0111209
0.0151518
-0.0136126
0.00398174
0.00995043
0.010926
-0.00824572
0.0154019
0.0158316
0.0118552
-0.0111202
0.0033993
-0.0274549
0.0108589
-0.0196875
0.00947654
0.000252692
-0.0118714
-0.0249376
0.0218672
-0.0134518
0.0165241
-0.0215528
0.00702565
0.0296708
0.0194327
0.0163669
-0.0132378
0.0290933
-0.00559719
0.0224244
0.00231476
-0.0494134
0.0221623
-0.0332816
0.0140443
-0.00518251
-0.0151365
-0.0210057
0.00427338
-0.00420941
0.0108382
0.00347584
-0.0248305
0.00845077
-0.0321185
0.00878321
0.000792823
0.00702413
-0.0201413
0.0123189
-0.0152818
-0.0162344
0.0105077
-0.0146021
-0.0191521
0.00370648
-0.0253031
-0.00700667
0.0189085
0.00739392
-0.016118
-0.0160566
-0.0149242
0.012702
0.012214
-0.0201397
0.011402
-0.000893357
0.00439448
0.0038437
0.000301014
0.0163093
-0.0119112
-0.0130843
0.00127183
-0.0130162
0.00552668
-0.0157763
-0.023598
0.0104823
0.0335577
-0.00115551
-0.016032
0.0111797
-0.0113715
-0.0128886
-0.00859624
0.0181499
0.00403575
-0.00968538
0.0219543
-0.00627503
-0.0071827
-0.0106473
0.0118216
0.0153419
-0.0072728
-0.122331
0.0966062
-0.07552
0.10124
-0.0223278
-0.00273265
-0.0821944
0.107232
-0.0431606
-0.00880835
-0.0213994
0.0733567
0.164415
-0.135325
-0.0606787
0.0315867
0.0251754
-0.146006
-0.00152077
-0.104124
0.106972
0.0530787
-0.0346708
-0.0942029
0.0774989
-0.0602809
-0.133488
0.116265
-0.0973461
-0.153112
0.101708
-0.0592092
-0.0358829
0.0571963
0.0758348
-0.0789538
-0.00469437
0.186998
-0.0432581
-0.0662533
-0.00700034
0.0966452
0.10409
-0.0715261
-0.0203595
0.00327416
0.0212432
-0.00419284
-0.00801566
-0.0176669
0.0250361
0.00339523
0.019148
-0.0319734
0.0177652
0.0199625
-0.00281459
-0.00909071
-0.0172698
0.00597373
-0.0358317
0.0187202
0.00277902
-0.0023093
-0.190575
0.208181
-0.12746
0.109851
-0.106198
0.126984
0.057716
0.0491272
0.0901317
-0.0319337
0.255692
-0.207023
0.149611
0.0483151
-0.366529
0.12764
-0.237971
0.180088
0.0470835
-0.157914
-0.0889165
0.129459
-0.0432797
-0.00884905
-0.0167747
0.0168414
0.0434893
-0.258971
0.080155
0.0657066
0.0570374
-0.17239
0.0496438
-0.0436494
-0.127851
0.0825925
-0.1467
-0.0836699
0.0215313
-0.186881
-0.0368169
0.105993
0.0877825
-0.1097
-0.0410441
-0.0374123
0.0425631
-0.00375806
-0.0533237
0.040303
-0.0114256
0.0571972
0.00482811
-0.0201916
0.0736255
-0.056409
0.00189536
0.00158657
0.0133458
0.0364379
-0.0872233
-0.101102
0.0556934
0.106876
0.0265436
-0.043279
0.0322991
-0.0419752
0.011577
-0.118145
0.039159
0.0257414
-0.048468
0.107021
-0.0109924
-0.0466784
-0.0805677
0.0380713
0.0521958
-0.0650156
0.00155408
0.00781083
-0.0200795
0.010717
0.0085866
0.000615345
0.010157
-0.0193589
-0.0194168
0.000351883
0.00958373
0.00948237
0.00936226
0.00171935
-0.0192214
0.00813825
0.0113008
0.0100126
-0.0197587
0.009899
0.00998968
0.0099204
0.00945555
0.000402081
-0.000147252
0.00955837
0.00890985
-0.01832
0.0119833
0.00792685
-0.017948
-0.00196341
-0.0201093
0.0108753
0.00906831
0.0001651
0.00872443
0.0101
-0.018391
-0.000435573
0.00776511
0.0100387
-0.0179501
0.0112391
0.00850867
0.00853817
0.0102231
-0.000333912
0.00104106
-0.0197553
0.00933943
0.00937421
0.00994902
-0.020119
0.00907503
0.00109562
-0.0206888
0.00937245
0.00930183
0.00201525
0.00883839
-0.0195622
0.00923771
0.00148477
0.0103418
0.0109911
-0.0202902
0.0114644
0.00882767
0.0108563
0.0089717
0.0016306
0.00162799
0.00938859
-0.0194835
0.00846297
0.00987388
0.00877031
-0.0191152
0.000468138
-0.0192112
0.00829164
0.00965037
0.00126701
0.00858049
-0.0193126
0.00995059
0.000779216
0.0102207
0.010932
-0.0195273
0.0107221
0.00937072
0.00976304
0.00974687
0.00127303
0.00971118
0.0102347
-0.01933
-0.0194595
0.00987789
0.00993388
0.0113426
0.010034
-0.0196599
-0.00112608
0.00990853
0.0105395
-0.019324
0.00922884
-0.00964843
0.0101305
-0.00982971
0.00860126
-0.019377
0.0101138
0.0105584
0.00923448
0.00925427
0.0107537
-0.00973894
0.0113137
0.0093011
-0.00989007
0.0107917
0.00897711
0.000555602
0.0201331
0.0200332
0.000581346
0.0096614
0.0108755
-0.00926046
0.010011
0.00918516
0.0106202
0.00880104
0.0101908
0.00911716
-0.01126
0.00988199
0.00967029
-0.0196267
0.00115936
0.00920729
0.00110701
-0.0206686
0.0105684
0.00104861
-0.0109067
0.00122631
0.0192289
0.000640909
-0.00956469
0.000758586
-0.00934385
-0.00989669
-0.00968233
-0.00858636
0.000959747
-0.0133498
0.0172643
0.00546109
0.00452119
-0.0120954
0.0169167
-0.0100506
-0.0139235
0.0189865
0.00499121
0.0181647
-0.0133581
0.00426672
0.0040594
-0.00857162
-0.00940778
0.0179946
0.00519602
0.00440249
-0.0142614
-0.010704
0.00324452
0.0170441
0.00252218
0.0171952
-0.00968018
0.00351693
0.0175279
0.0167514
0.00334319
0.00625902
-0.00697046
-0.00825497
0.0170379
0.00668216
0.00309945
-0.0140571
-0.0106327
0.0194008
0.00528951
0.00481543
-0.00934381
0.0177724
-0.0106772
0.0194517
0.00487767
0.0195578
-0.00997743
0.00358597
0.00514031
-0.00929487
-0.00990493
-0.00860103
0.0185546
0.00628186
0.00397999
-0.0139096
0.0198043
0.00317091
0.00274427
0.0176481
-0.00861496
0.0198834
0.00224863
0.0199498
0.000784279
0.0061157
-0.0115143
-0.0114127
0.0202735
0.00655752
0.00187914
-0.00835885
0.00523682
-0.00936954
0.00533351
-0.0098832
0.00567601
-0.00973223
0.0119273
0.00609584
-0.00878988
0.00357704
-0.0180481
0.00611265
-0.0200539
0.00354058
-0.0108364
-0.00913119
0.0176133
0.0187658
-0.00932901
-0.00612104
-0.00808041
0.0177257
-0.00406118
-0.00940259
0.018799
-0.0125352
0.00951598
0.00933181
-0.0122134
0.0176697
-0.00900099
-0.0194469
0.00568759
0.00387919
0.00640162
0.00367214
0.00275452
0.00610273
0.0108124
0.00674378
0.00233172
-0.00926395
-0.0138943
0.00371563
-0.0136981
-0.00932984
0.00625021
-0.0143458
0.0102119
0.00892641
-0.00516616
-0.0203386
-0.00391117
-0.0038767
-0.0180784
0.00925434
6.75358e-05
0.00733218
-0.016655
0.00515891
0.0165796
-0.00752986
-0.014209
-0.013246
0.0126962
-0.00341659
0.00396553
-0.00144166
0.01291
0.00242985
-0.0138997
0.00894076
0.0150266
-0.0147151
0.017496
-0.00339769
0.00960602
0.00397702
0.0138556
0.0209855
0.00348457
-0.00901192
-0.0154594
-0.000742925
-0.0112521
0.0231471
-0.011155
-0.00891465
-0.00125686
-0.00947015
0.0196393
-0.011809
0.000243667
0.0224604
-0.0108959
0.0107276
0.0235767
-0.0133214
0.0200958
-0.0101161
0.00959658
0.00217041
0.0207774
0.0143448
-0.00996458
-0.00497348
0.000590672
-0.00321086
-0.00828059
-0.00810082
0.0195902
-0.00599955
-0.00319052
0.01732
-0.00813554
-0.00671177
-0.00776157
0.0179675
-0.0034954
0.00979041
0.0133624
-0.00881108
0.0142757
-0.00770257
0.00944121
-0.00279299
0.0177174
0.0167144
-0.00392976
3.84118e-05
-0.0128252
-0.000817958
-0.0102541
0.0213295
-0.0102547
-0.00939971
-0.00693555
0.0184519
-0.00211632
-0.00802979
0.0204608
0.000318399
-0.0127491
0.0110893
0.0178118
-0.0121871
0.0173477
-0.0070752
0.010638
-0.000857563
0.0185867
0.022427
0.00963506
-0.0154819
-0.0121998
0.00919264
0.0156997
0.00992349
0.0165278
-0.0135435
-0.0188926
0.0101154
0.0204853
-0.0117086
0.00392305
0.00835862
0.0101433
0.00557781
0.00168258
-0.0122173
0.0171822
0.0205911
-0.00747221
-0.00926561
0.0196254
-0.0102187
0.0177583
-0.00879628
-0.00183419
0.0164632
-0.00543753
0.0182432
0.0124918
0.011148
0.017797
-0.0071389
0.0187274
0.00513289
0.00888246
0.00167974
0.0103246
0.0022709
0.000383977
0.00984752
-0.0154261
0.00996563
-0.00147832
-0.0110106
0.0155292
0.000612119
0.0164961
-0.00980486
0.00990741
0.0153796
-0.01496
0.0171626
0.0097872
0.0196864
-0.0100392
0.0195186
0.00629717
0.000270634
0.00124471
0.00895924
0.0199915
-0.0207955
0.0103108
0.00594047
0.0120803
-0.0215573
-0.000820608
0.00455578
-0.0227262
0.00784302
0.00432873
-0.0255292
0.0110696
0.010131
-0.014208
-0.0110012
0.00441365
-0.00977129
-0.0171425
0.0104709
-0.0223581
-0.0324997
0.00491139
0.0141381
0.0127462
-0.04179
0.0234458
0.0162009
0.00693247
-0.0363722
0.00602425
0.0116827
-0.0410201
0.0233115
-0.024574
-0.0237251
0.0157992
-0.0269654
-0.0255793
0.00787754
-0.0363446
-0.0250052
0.00748234
0.00640501
0.00537069
0.0148727
-0.0313636
0.00852262
-0.027159
0.0103899
0.011941
0.0112405
-0.0329336
0.00975141
-0.0154283
-0.0190025
0.00942669
-0.0219292
-0.0161261
0.00906523
-0.0295346
-0.0275241
0.00149191
0.0114845
0.0145479
0.0111534
0.0034431
-0.03755
0.0229528
0.0146152
0.00777475
-0.0321892
0.00979731
0.000433508
-0.0310454
0.012995
0.0176167
-0.0295898
-0.0139056
0.0159699
-0.0221645
0.00372719
-0.0258604
0.0123884
-0.0334107
-0.012568
-0.012711
0.00372216
0.00588728
-0.0124015
-0.0162084
-0.0246099
-0.011865
0.0109453
0.0319642
-0.029117
-0.019718
0.0168698
0.0117969
-0.00590184
-0.0184635
-0.00467459
0.0124383
0.0136233
-0.016847
-0.023576
0.00989254
-0.0273296
0.0176869
-0.0267857
-0.00516733
-0.0202489
-0.0305815
-0.0114578
-0.0128111
-0.0295132
-0.024637
-0.00985134
-0.0151034
0.00874807
-0.0213129
0.0109394
0.0123804
-0.0286572
0.0193612
-0.0217856
0.0101999
0.0100683
-0.0293098
0.00938991
-0.028092
0.0119844
-0.0219322
-0.0278685
0.0235576
-0.0341031
-0.0174203
-0.038567
0.0209666
-0.0328807
-0.0106753
-0.00776396
-0.00904931
-0.0114334
-0.0379038
0.0104093
0.0112885
-0.0216328
0.0026981
0.00840716
0.0113354
-0.022445
-0.0189884
0.00883097
0.00673863
0.00563227
0.00921441
-0.0223777
0.019439
0.013259
-0.0222906
0.0128039
0.00933233
0.0154922
0.00930733
0.00736887
0.00303803
0.0101143
-0.020523
0.00257024
0.00848421
-0.0176026
-0.0136756
0.00576184
0.00213685
0.00354047
0.00576136
-0.0170167
0.0155826
0.0109936
-0.0192093
0.0106985
0.00745298
0.00973865
0.00479146
0.0090542
-0.0135812
-0.000450819
0.0055924
-0.0108013
-0.00382176
-0.00649815
-0.00985983
-0.00688881
-0.0107223
0.00460413
0.0162548
-0.0118099
0.0153301
-0.00513737
0.0016596
0.0105322
0.000331141
-0.0198771
0.00828555
-0.000741535
-0.016334
-0.0137207
-0.00644621
-0.0055106
-0.0161567
0.00770638
0.0200156
-0.0171939
0.01885
-0.00285992
0.00438624
0.0121469
0.0184554
-0.0221953
-0.0162677
0.0110295
0.0140676
0.0131135
0.0180253
-0.0219251
-0.00790515
0.0109701
0.0153615
-0.0184294
0.00459346
-0.00491351
0.0124651
-0.00236727
0.00656473
-0.0193833
0.0173106
0.012258
0.00923476
0.00178845
0.0149426
-0.00779412
0.0134244
0.000127301
-0.00575179
0.0141451
0.00263365
0.00724791
0.0174736
0.0138276
0.00698747
0.00473305
0.0130206
-0.000268062
0.00889696
0.0108833
0.00791876
0.00669953
-0.0190238
0.00378191
-0.0178447
0.0104368
0.0103474
-0.0154062
0.0068181
0.0094594
-0.0168311
0.0137226
-0.00568713
0.00367306
-0.00602487
-0.00634009
0.00130855
0.00343063
0.0114932
-0.0323803
0.0174523
-0.0250971
0.00602272
0.00995766
0.0091083
0.0085523
0.00471939
-0.0302652
0.0169897
0.00956397
0.0101674
0.00951022
-0.0292499
0.0157922
-0.0241602
0.011792
-0.0196009
0.0102944
0.018697
-0.0332952
0.0076474
0.00740349
-0.0151201
0.00995264
-0.00225214
-0.00633406
0.0112035
-0.0128454
0.00995774
-0.013006
-0.00357561
-0.00942312
-0.0119343
0.0111147
-0.00332798
-0.00303697
0.0137702
-5.26424e-05
-0.0096089
1.45753e-05
-0.0124761
0.00602323
0.00652074
-0.0277259
0.0151769
-0.0199026
0.00756669
0.00556348
0.00559638
-0.0267956
0.013928
0.00539255
0.0117822
-0.0219886
0.0121782
-0.0160945
0.00993844
-0.0144061
0.0066814
0.0165847
-0.0272876
0.0110032
-0.00135524
0.0095274
-0.0191801
-0.0121152
-0.00919486
0.0118902
0.0141421
-0.00375796
-0.0169823
-0.0130096
0.0129219
-0.00931694
0.000923741
-0.00149935
0.0115818
-0.00392022
-0.00726971
-0.00238687
-0.0121223
-0.0114773
0.006657
0.0108351
0.010154
0.0129098
-0.0183492
0.012003
-0.0125608
0.0107209
-0.0102142
0.00258039
-0.0041149
0.0117294
-0.0209208
0.000831299
0.00860769
-0.00311989
-0.0191566
0.00977164
-0.0102769
-0.00957031
0.001102
-0.00562552
-0.00372723
-0.00428216
-0.00773412
-0.000995093
0.0215856
-0.0161419
0.0074616
0.00754123
-0.00851108
-0.0105625
0.00616398
0.00690688
-0.00868073
-0.00741638
0.0183997
-0.0293348
0.00967569
-0.023597
-0.0138196
0.000511141
0.0102687
0.00561906
-0.0196511
0.0094471
0.00722259
-0.0240931
0.00884324
0.0122461
0.00524214
0.00877763
0.010761
-0.0118914
-0.007503
-0.000394219
0.0191101
0.0156101
0.00292724
-0.00439654
0.0203963
-0.00479743
-0.00176385
-0.00742443
0.0203027
0.0165848
-0.009858
0.00322402
-0.0108599
-0.00719494
0.018538
-0.000481556
-0.0188451
-0.0059403
0.0203903
-0.00683878
-0.0183804
0.00157877
-0.00863491
-0.0069396
-0.00220565
0.021034
-0.00462785
0.0218211
-0.00427059
0.0198108
0.00178306
-0.0120667
-0.00878824
-0.00135839
0.0185323
-0.00838184
-0.017488
-0.00970904
0.020257
-0.0105346
-0.0182632
-0.000234683
-0.00898602
-0.0152474
0.0162595
0.00894392
0.00937942
0.0187187
-0.0185897
0.01514
-0.0205858
0.0169366
-0.0107492
0.0163542
-0.0164548
0.010848
-0.0271152
-0.00535926
0.0172217
-0.00594434
-0.0274461
0.0113348
-0.0182504
-0.00894096
-0.00855134
0.0187483
-0.00125137
0.000110556
-0.00912326
0.0193025
-0.0102819
0.0177594
-0.00924773
-0.0135199
0.00501212
-0.00976016
0.020031
-0.0128442
0.00258236
-0.0179647
-0.00961217
0.0186435
-0.00864365
-0.00920712
-0.0215665
0.00219917
-0.0124496
-0.00821784
-0.0193507
0.020141
0.0178766
-0.0212932
-0.00644585
-0.0172765
-0.00853314
0.0186156
0.00810766
-0.0167326
-0.0104362
0.0190679
0.00101582
0.0094011
-0.0186374
0.0102569
-0.000960173
0.0184691
-0.00797978
-0.00982739
-0.0085037
-0.00958428
0.0219089
-0.00940792
-0.00338514
-0.00707455
-0.0103817
-0.0180834
-0.0191209
-0.0116973
-0.00890898
0.00950175
-0.022346
0.00639398
-0.0179369
0.000851968
0.000684395
-0.0202384
0.00768786
-0.0239915
0.00705276
0.016908
-0.0109783
0.00357009
-0.00900828
0.017531
-0.0208234
-0.0131627
0.00692539
-0.0145629
-0.0192119
-0.0106096
0.0246144
-0.0153029
0.00987994
-0.00582266
-0.00401799
0.00988301
-0.013347
-0.0145996
-0.0253814
0.0150605
0.0249158
-0.0372606
0.0245646
0.01401
-0.0013249
0.0151921
-0.016132
-0.0493798
0.0503105
0.0356779
-0.0218875
-0.0278079
0.0140254
0.0154548
-0.0491959
0.0191298
-0.0347458
0.0129262
0.0223014
-0.0358304
0.00274399
0.0456905
-0.0315597
-0.00966173
-0.00446901
-0.035141
-0.0122221
0.00248284
0.0448821
0.00472924
-0.0320719
-0.0016769
0.0290173
-0.01532
-0.0185081
-0.000148824
0.033979
0.0352169
0.0102687
0.000197175
0.00934518
-0.00927446
0.0221141
-0.0271664
0.0361906
0.00830131
0.00917325
-0.0555493
0.0380611
-0.0569898
0.014204
0.0159024
0.0268711
0.00624237
-0.0416283
-0.00102972
0.0363943
0.0439168
-0.00777955
-0.0510231
0.0148852
0.0448956
-0.044254
0.00763788
-0.033698
0.0215939
0.0542065
-0.0545519
0.0267512
-0.0311293
0.0321549
0.00108911
-0.0021031
0.00276747
-0.000917096
-0.000747671
-0.00110566
-0.017774
0.036591
-0.0168266
-0.00197244
0.0286415
0.0333102
0.0022467
-0.0641944
-8.56002e-05
-0.0257063
-0.0053486
0.00822025
-0.00554329
-0.0044005
0.00733546
-0.013945
-0.000435517
0.0292267
-0.00422192
0.0105901
0.0387054
-0.0654386
0.0189834
-0.0340773
-0.00681145
-0.0206979
0.019754
0.00585015
-0.00490517
-0.027948
0.00231957
0.0251739
-0.0146237
-0.0122307
-0.00616892
-0.00787999
-0.00247688
0.000142374
-0.00745052
0.0087037
-0.0237399
-0.0137834
0.00543909
0.0477433
-0.0451777
0.0361399
0.0293276
-0.00662755
-0.00529063
0.0110885
0.0300239
-0.0179452
-0.056763
0.0481429
-0.0568259
0.0184308
-0.0203627
-0.0074897
0.0124277
0.04014
0.03002
-0.0335774
0.000355973
-0.0143077
-0.0428165
0.0109052
0.00212778
0.0236969
0.0121318
0.0102372
0.0120023
0.00530195
0.0158308
-0.025209
0.0256285
-0.0149317
0.0346906
0.0190022
-0.00846365
0.0158428
0.000245601
-0.0405068
0.136859
0.0648337
-0.156426
0.0309117
-0.00950894
-0.0307819
0.018896
-0.0250463
-0.0710493
0.00484598
0.0912393
-0.0447496
0.0374116
0.0075622
-0.0145817
-0.0607359
0.0730994
-0.084827
-0.277589
0.0878536
0.0622811
0.113455
-0.42637
0.105896
0.0520337
0.045901
-0.12986
0.0916575
0.0990289
-0.280315
0.0896455
-0.175644
-0.175248
0.0733158
-0.220096
-0.178797
0.0952131
-0.346858
0.0150025
-0.0019124
0.0081506
0.0110575
0.0125105
-0.0263906
0.000272396
0.0314693
-0.0125919
-0.0271181
0.010218
0.0155313
0.00137694
-0.00567837
0.0246061
-0.00393184
0.00305965
0.00525402
-0.00777061
0.00858988
-0.0713698
-0.0163786
0.0264041
0.0613506
0.0672269
0.0190255
-0.129257
0.0430294
0.0255867
-0.0117583
-0.0426071
0.028779
-0.023719
-0.0429955
0.030318
0.0364185
-0.0965065
-0.0129449
0.038097
-0.0348297
0.00556279
-0.0883909
0.0517293
-0.097629
-0.0859938
-0.108227
0.0378084
0.010432
-0.0118668
-0.0293497
-0.109565
-0.0035508
0.0420684
0.173953
-0.151777
-0.0870945
0.0649431
0.072792
-0.0416512
-0.117129
-0.00159793
0.0710481
0.0612597
-0.0401124
-0.107595
0.0670268
-0.119751
0.0554512
-0.0528204
-0.00298645
0.00447978
-0.193109
-0.0316065
-0.0308676
-0.0230086
0.0015859
-0.00377709
-0.0711473
0.0455759
-0.0789189
0.0589869
0.0622484
-0.130311
0.0154779
-0.0630292
0.0357867
0.0223852
-0.0640983
0.0379343
-0.0966434
0.0288321
-0.0774515
-0.0685834
0.0165648
-0.0693768
-0.0430879
-0.206972
0.0754697
-0.115778
0.00457289
-0.0770857
-0.0563101
-2.47397e-05
-0.0994214
0.004433
-0.0344869
0.0210366
0.00901348
-0.0329436
0.148249
-0.0807832
-0.0345235
0.00540973
-0.00547082
-0.0203274
0.020384
0.0455275
-0.0346791
-0.0267438
0.0158901
0.0345475
-0.0510674
0.0209493
-0.056772
0.0583712
0.0161781
-0.0217196
-0.0351832
0.270598
-0.016594
-0.249276
-0.00472343
-0.0354945
-0.33461
-0.0029612
0.37307
-0.0685129
0.00669068
-0.154248
0.216083
-0.233214
0.026391
0.0273474
0.179475
0.0401436
0.253904
-0.0234441
0.251027
-0.246377
0.0373159
-0.0166198
0.219831
0.0031666
0.0160059
-0.023814
0.00463814
-0.0286614
-0.0531411
0.0029132
0.0788953
0.0203212
0.00411028
0.000450077
-0.0248815
0.00999678
0.0149552
-0.00881595
-0.0161404
0.0134192
-0.0205893
0.010339
-0.0392037
0.0239664
-0.00380628
-0.00678561
-0.0226964
-0.0455387
0.0570173
-0.00678975
-0.00469889
0.032429
-0.0607438
0.0195661
0.00870523
-0.0287391
0.0481618
-0.0103112
-0.00912798
0.024206
0.00285376
0.0139238
-0.0410216
-0.0188561
-0.0392022
0.0125103
0.0313003
-0.0177317
-0.02096
0.00594147
-0.0184106
0.110165
0.0597453
-0.0216534
0.00688917
0.0254884
-0.0378464
0.0151989
-0.0581936
0.00831381
-0.0914792
-0.00216792
0.0679905
0.0256558
-0.0122757
0.0921937
0.0302543
-0.0405699
-0.00994404
0.0106575
-0.0353105
0.115167
-0.0720123
-0.124837
0.149065
-0.0573373
0.0735749
-0.00951554
0.0258521
-0.0469147
0.046558
0.143075
0.00235608
0.00162382
0.0389129
-0.0106913
-0.0167906
-0.032211
0.018036
-0.0236693
0.0301884
-0.0313594
0.0175165
-0.0102594
0.0414851
0.0293711
-0.0226657
0.00950076
-0.0032949
-0.0383993
0.00438318
-0.00416798
0.0423795
-0.0128673
0.057575
-0.0132363
0.0395782
0.099234
-0.0444776
0.0649211
-0.0519911
0.0494801
0.0479748
-0.0117769
0.0757769
0.0123374
-0.00237688
-0.0236487
0.0136929
-0.025069
0.0221081
-0.00246475
0.0054223
-0.0316223
0.04216
-0.0137012
0.00316564
0.0561623
0.0146153
-0.00545691
-0.0653152
0.0313549
-0.0216598
0.00264366
-0.000260154
0.00654508
0.0613436
-0.0268406
0.0294618
0.0174649
-0.0211685
0.00462225
-0.00091901
-0.00775512
-0.00606686
-0.0115626
-0.0174464
-0.0248032
-0.00713847
0.0057896
-0.0320186
-0.00158243
0.0087358
0.00403844
0.00468406
0.00790923
-0.0069451
0.0453675
-0.035543
0.0490755
-0.0345217
0.0093371
-0.0238919
-0.00905426
-0.0331694
-0.013334
-0.0250824
0.0155617
-0.0321118
-0.0113414
-0.0298882
-0.00979638
0.0361821
0.0509511
-0.0380717
0.0477678
-0.0206472
0.0318666
0.00773699
0.00367115
0.0662443
-0.00587161
-0.0640373
-0.0332412
0.0300042
0.00432436
-0.0155934
0.025602
-0.0268312
0.0402581
0.0183619
-0.0253064
0.0441906
-0.0435028
0.0029845
-0.0317312
0.0426782
0.0399892
-0.0432341
-0.010097
0.0288836
0.00332523
-0.0252917
0.0547818
0.0126608
0.0592055
-0.0433701
-0.00121094
-0.0200759
0.0393549
-0.0188457
-0.000438807
-0.0443368
-0.0292255
0.0634646
-0.0401646
-0.0442191
-0.00507957
-0.0251815
0.00784606
-0.000136827
0.0143013
-0.00696901
-0.0531951
0.0321069
-0.00373022
0.0248347
0.0354555
-0.00551203
0.0426541
0.0286518
0.0214101
0.0497009
0.00378102
0.0179141
-0.0244171
0.0517465
-0.014667
0.0749547
-0.0520818
-0.0396673
0.0508237
-0.000968335
0.0483382
-0.0217727
-0.029387
0.0374048
-0.0324407
0.020382
-0.0233928
0.0598262
0.0526772
-0.015129
0.0234914
-0.0578901
-0.012423