/*--------------------------------*- C++ -*----------------------------------*\
| =========                 |                                                 |
| \\      /  F ield         | OpenFOAM: The Open Source CFD Toolbox           |
|  \\    /   O peration     | Version:  2506                                  |
|   \\  /    A nd           | Website:  www.openfoam.com                      |
|    \\/     M anipulation  |                                                 |
\*---------------------------------------------------------------------------*/
FoamFile
{
    version     2.0;
    format      ascii;
    arch        "LSB;label=32;scalar=64";
    class       volVectorField;
    location    "1000";
    object      U;
}
// * * * * * * * * * * * * * * * * * * * * * * * * * * * * * * * * * * * * * //

dimensions      [0 1 -1 0 0 0 0];

internalField   nonuniform List<vector> 
45248
(
(452.042 141.076 -2229.03)
(143.78 -189.024 -4911.5)
(-314.516 269.443 -1354.71)
(-27.3586 -293.017 -3752.84)
(-76.9834 -337.903 -4957.5)
(-27.943 -372.609 -4785.57)
(-263.395 260.458 -2114.56)
(-457.204 -155.664 -3357.34)
(288.293 -109.341 -5506.97)
(260.044 -343.405 -7589.96)
(-230.753 -156.51 -4409.96)
(-379.392 -22.3215 -6663.77)
(172.186 -300.526 -6858.28)
(232.881 -558.431 -6055.43)
(-301.069 173.958 -5352.03)
(-244.218 50.8957 -5527.76)
(-197.872 -94.1919 -923.748)
(-300.272 -288.214 -2099.97)
(-102.288 -172.006 -629.522)
(-20.1462 -159.719 -660.096)
(-235.483 -214.858 -1332.51)
(78.4401 -287.362 -674.459)
(-209.438 -208.326 -945.823)
(-130.842 -249.216 -877.166)
(253.244 -165.893 -1492.83)
(-230.657 -35.9861 -3306.41)
(-28.3568 -40.6396 -779.207)
(-31.6885 18.7164 -960.607)
(106.78 -24.7687 -2347.06)
(234.174 -451.812 -1762.37)
(-128.132 -47.2689 -1057.92)
(-1.8275 -103.832 -1304.83)
(-41.5547 -222.768 -6142.78)
(-405.314 -409.453 -2374.86)
(7.88 -329.721 -3199.5)
(-308.051 -6.0246 -5078.79)
(-250.468 309.741 -3791.1)
(-277.917 -330.537 -3292.83)
(-144.346 -107.616 -4685.25)
(233.295 -376.811 -2813.31)
(74.4656 -189.593 -6024.57)
(8.07616 -475.198 -4409.49)
(-158.978 -318.788 -2744.04)
(-317.938 -358.488 -2332.1)
(-409.94 92.1336 -4657.87)
(-276.925 121.136 -4388.46)
(-98.9965 -123.988 -2722.28)
(-387.822 -243.638 -3692.13)
(-312.738 2.64546 -770.067)
(-108.325 -69.3401 -1745.22)
(-449.471 -2.08497 -3139.99)
(-55.7933 -114.582 -901.774)
(-220.785 -282.849 -1318.26)
(31.7671 -152.072 -2055.22)
(-55.4376 -276.58 -1659.63)
(234.153 -260.56 -1589.68)
(-343.947 -192.971 -1670.5)
(35.2378 -200.216 -976.651)
(-303.337 -76.8754 -3542.23)
(-420.529 -145.548 -2761.37)
(-137.381 -246.602 -1125.74)
(131.491 -528.264 -1159.3)
(-448.168 -148.412 -2809.97)
(-112.553 -353.093 -2567.7)
(175.965 39.6703 -3127.86)
(392.994 733.972 -30.6809)
(291.787 663.614 -731.227)
(1154.69 -402.493 790.815)
(426.895 115.285 -1328.54)
(256.455 217.731 536.691)
(83.8747 288.965 -2291.66)
(-125.41 -364.355 -145.77)
(388.816 288.068 261.948)
(125.012 221.819 118.29)
(163.662 67.5629 -182.549)
(145.884 55.0329 -56.3426)
(304.38 134.422 -21.0757)
(132.633 236.39 -130.422)
(313.968 11.9759 -332.511)
(140.602 59.7137 -75.9292)
(55.427 96.613 -609.293)
(71.0117 41.3463 -325.411)
(32.0339 4.16203 -532.177)
(93.667 13.999 -621.691)
(76.789 55.9493 -585.472)
(18.3609 25.8166 -334.025)
(90.0043 47.8599 -673.948)
(36.2588 -4.83341 -498.344)
(334.686 -252.841 -1169.35)
(201.416 -78.7559 -133.406)
(134.828 -56.8329 -561.376)
(-47.5137 -29.9691 -1115.1)
(213.207 -55.0515 -631.493)
(330.276 33.1483 -258.522)
(-27.1141 -169.829 -1193.15)
(97.0518 -7.90027 -422.054)
(381.07 180.243 -54.7646)
(-74.1833 95.4828 -973.461)
(573.981 231.149 -984.053)
(315.854 9.0818 -309.713)
(-67.958 142.192 -1013.89)
(-243.939 14.5004 -663.661)
(236.79 486.706 -170.29)
(658.219 341.377 -336.091)
(358.063 291.497 -77.386)
(121.221 197.59 -465.748)
(181.95 131.535 -152.026)
(18.5986 -59.7448 -325.08)
(160.23 57.6586 -311.884)
(247.239 123.884 -458.499)
(28.9662 -98.816 -435.383)
(105.224 62.5652 -368.962)
(2.85719 223.738 -930.934)
(218.546 -303.929 -1657.7)
(257.832 24.031 -591.325)
(180.038 -50.4813 -637.717)
(112.745 138.67 -930.134)
(323.298 88.8452 -651.778)
(140.632 8.4789 -609.624)
(338.282 6.85919 -607.406)
(76.8812 12.8365 -519.478)
(74.1872 13.3848 -582.043)
(78.7612 28.7957 -429.1)
(70.4256 22.3395 -283.913)
(68.2799 51.7299 -584.257)
(156.626 109.917 -543.885)
(102.923 29.4556 -537.4)
(126.591 64.1078 -515.019)
(-2516.54 -1309.52 -218.725)
(-781.934 -663.679 -229.351)
(-2383.83 -1708.68 -502.8)
(-1213.64 -709.652 -723.902)
(-1509.24 -947.985 -379.154)
(-1472.81 -1131.93 -515.256)
(-2223.38 -908.825 -273.885)
(-1499.73 -1021.61 -544.677)
(-170.362 -240.383 -510.88)
(-122.544 -244.685 -519.437)
(-84.0442 -352.118 -1219.26)
(-16.8918 -254.265 -611.802)
(-76.0481 -138.939 -546.381)
(-232.754 -209.808 -527.066)
(-103.732 -196.049 -623.679)
(-259.047 -159.769 -514.281)
(-1599.78 -1784.1 -691.957)
(-199.486 -1143.58 -956.305)
(-1187.76 -1883.25 -953.16)
(-1040.01 -828.931 -3259.72)
(-1204.5 -1853.69 -1630.77)
(-1223.24 -2115.22 -541.412)
(-1263.08 -1204.2 -2298.65)
(-1016.28 -1846.29 -793.683)
(-441.175 -242.457 -854.224)
(81.0326 -133.984 -530.822)
(-565.78 -216.054 -2278.9)
(-35.2513 3.68549 -790.979)
(-240.193 -38.78 -790.226)
(-259.717 -42.3968 -851.177)
(-331.082 -142.116 -837.795)
(-366.516 29.9608 -835.678)
(-454.96 -88.4328 -277.236)
(-1352.82 -1357.98 -897.711)
(-888.862 -233.147 -856.284)
(-127.648 46.0731 -543.129)
(-371.092 -166.066 -227.845)
(-974.901 -175.82 -863.758)
(-112.029 -163.44 -415.322)
(-1043.05 -235.029 -956.994)
(-678.975 -440.117 -486.089)
(-222.939 -87.4607 -486.622)
(-681.771 -922.07 -1230.19)
(-1300.95 -1569.49 -975.077)
(-644.528 -333.396 -448.081)
(-79.3984 222.389 -512.813)
(-884.898 -1084.57 -877.869)
(-453.477 -250.664 -985.842)
(-2056.12 -955.771 -841.302)
(-750.822 -578.25 -409.107)
(-96.9091 18.0038 -582.122)
(-662.402 -642.15 -1895.8)
(-1370.75 -844.858 -1546.69)
(-1047.83 -243.96 -1049.42)
(-977.028 -401.25 -1590.85)
(-405.227 246.658 -564.611)
(-1209.63 -1444.58 -1011.76)
(-1110.49 -460.677 -1588.56)
(-316.316 31.8324 -411.515)
(-543.826 -752.465 -1081.75)
(-1155.54 -989.573 -1727)
(-1067.18 -345.402 -1436.66)
(-303.376 -418.014 -1089.92)
(-140.106 18.1189 -1406.95)
(-84.7153 -163.351 -583.747)
(-279.419 -289.688 -1923.3)
(-140.811 -292.239 -1356.59)
(35.6694 -144.238 -653.338)
(-159.606 -241.839 -799.132)
(-227.792 -299.92 -1704.4)
(-145.795 -116.913 -507.056)
(-262.987 -323.79 -1499.2)
(-169.778 -88.1809 -4092.2)
(399.087 -99.4539 -7389.53)
(227.467 -258.161 -5538.06)
(-272.944 322.461 -6076.43)
(-277.679 57.472 -5062.34)
(166.327 -248.778 -6287.21)
(-300.191 -184.097 -4626.18)
(13.4478 -161.608 -5681.79)
(227.851 -545.718 -1792.34)
(266.026 -833.583 -4003.19)
(-405.043 -1234.91 -1826.5)
(-562.479 -65.5901 -3085.65)
(-1.5375 -494.127 -1996.69)
(136.42 -1212.41 -3261.93)
(-1154.11 -1102.79 -2611.69)
(-418.63 -1112.04 -2104.2)
(22.6643 -42.3342 -767.082)
(-137.782 70.8298 -3164.04)
(-303.18 -0.0884605 -2229.61)
(-5.3221 -63.3132 -945.747)
(39.3506 -7.74563 -1070.96)
(-297.356 -69.3153 -2712.55)
(-301.06 152.164 -511.241)
(-370.977 68.0215 -2420.76)
(-445.409 -239.123 -2605.44)
(-424.15 -342.951 -1749.26)
(-43.5884 -153.513 -782.535)
(-252.849 -110.489 -3086.21)
(-343.558 -310.369 -2145.95)
(-475.175 -325.249 -2110.17)
(-187.082 -318.905 -2426.68)
(-170.896 -235.021 -2233.73)
(-144.752 -192.432 -3524.42)
(-427.703 -65.105 -5245.96)
(285.406 -625.455 -4935.66)
(20.7222 -263.394 -2374.11)
(-158.947 -211.684 -3070.72)
(-70.3852 -371.875 -4306.2)
(-221.136 -258.108 -2661.92)
(-170.012 -204.866 -3667.12)
(-371.918 -621.169 -1811.52)
(-184.715 16.3038 -343.776)
(-440.825 -243.013 -2538.7)
(-947.742 -192.773 -1382.76)
(-377.734 -9.4625 -1765.81)
(-303.923 -70.9262 -1869.28)
(-340.159 -102.984 -2124.85)
(-460.285 -276.943 -2290.54)
(-354.966 -657.026 -1874.36)
(-676.491 -204.391 -3315.84)
(-426.841 2.79291 -4623.69)
(-97.2901 -433.609 -4220.08)
(-523.867 -491.365 -3122.19)
(-442.346 -342.696 -3982.8)
(-461.244 -440.872 -3070.51)
(-341.681 -64.6275 -4423.52)
(1511.42 2044.32 -447.489)
(2275.08 1462.39 -1572.47)
(2014.92 3039.75 -1038.26)
(1346.57 1999.81 -1349.9)
(1466.57 1980.89 -417.318)
(2571.6 1169.68 -334.497)
(1909.3 1540.18 -1014.13)
(1780.22 1850.49 -1747.2)
(1868.25 493.257 -4256.43)
(1339.71 830.141 -5192.1)
(-921.295 3094.86 -2611.84)
(1712.03 756.876 -4713.8)
(1824.05 1174.88 -3617.88)
(2288.45 1106.31 -3211.85)
(1612.96 1365.43 -4565.49)
(1950.38 1922.2 -4027.73)
(2659.62 3793.34 2135.26)
(850.423 6108.79 -1804.74)
(2446.96 10111.8 -2247.33)
(6556.08 -8180.96 -10880.8)
(780.829 9380.28 8017.49)
(-676.911 4251.05 3496.69)
(2076.31 -2397.47 -893.877)
(14424 3484.77 4639.34)
(1943.54 -302.948 445.374)
(722.065 1241.8 -3178.96)
(5123.62 -4604.49 -1839.45)
(2496.39 1078.88 -1813.24)
(925.678 -719.009 1461.77)
(3464.02 -179.122 -1250.75)
(-803.591 -2227.08 1888.68)
(3782.33 756.846 -1909.22)
(2604.82 1452.53 -1354.8)
(1821.55 1410.78 -1045.53)
(1605.04 2182.59 -1782.43)
(1836.93 1398.09 -3711.6)
(1961.22 1582.42 -2697.36)
(1018.24 2378.76 -2465.3)
(1520.99 1917.24 -3335.02)
(1455.99 2476.19 -1971.26)
(3651.8 2039.18 -2075.59)
(1928.04 1102.38 -4439.72)
(-765.798 3839.24 -1268.81)
(509.723 1754.44 671.402)
(2242.86 1869.89 -2975.22)
(2545.04 2001.54 -3265.91)
(2777.48 216.219 544.751)
(182.107 -1690.16 1192.94)
(3104.18 -264.257 -709.482)
(715.014 347.614 468.672)
(1733.94 1609.7 -3210.54)
(-5307.43 -5540.13 1076.41)
(3649 510.043 -2613.68)
(3789.59 -280.964 215.675)
(5979.34 2635.38 1683.55)
(2843.6 -606.429 -1847.7)
(672.997 -55.0097 -3357.76)
(16063.4 -230.378 449.53)
(1992.09 1282.35 -4580.57)
(2532.7 3396.13 -270.908)
(-687.497 1381.01 -5255.66)
(2158.44 4101.23 -712.805)
(2260.34 3216.56 360.973)
(1627.47 2321.3 -5279.29)
(15627.6 -578.276 6174.07)
(3840.9 -2780.46 -6022.26)
(19358.2 -1936.13 29365.9)
(5878.59 1597.81 12505.9)
(13159.8 7372.13 20017.2)
(6387.06 1147.57 11238.4)
(15640.3 -2918.52 27149.7)
(10772.6 447.874 30830.2)
(1648.99 1348.86 2669.07)
(842.806 -2655.11 -177.579)
(4329.53 -10274 2168.93)
(1662.86 2392.4 -2601.32)
(1669.35 -1085.1 1483.58)
(2589.17 -3629.73 2140.77)
(5596.67 -1782.98 -3639.76)
(6789.2 -1567.76 -1230.31)
(-4852.94 -15136.4 81641.2)
(6751.37 -10352 2729.2)
(-451.874 -8819.46 25655)
(17834.6 -1261.9 5399.39)
(9754.83 -11345.2 9001.46)
(-15878.9 -16677.9 35231)
(24381.3 5354.6 20258.9)
(9021.89 -7921.38 7478.11)
(4456.45 2688.05 -4058.11)
(6881.33 -529.204 742.783)
(1405.68 -1274 -1861.36)
(371.027 -1283.61 307.709)
(3352.93 972.069 -2565.17)
(4976.45 683.703 -734.883)
(3554.81 525.406 -913.073)
(2793.12 643.38 -65.8641)
(4570.56 -1798.46 1647.66)
(14240.4 3692.39 27416.7)
(5331.44 4274.91 870.806)
(4877.43 -315.362 -7189.5)
(2084.41 -10841.8 -2283.24)
(1549.71 -3928.48 27399.5)
(6521.04 911.647 -12790.9)
(2938.05 -2851.3 21287.8)
(-2677.6 -20440.3 -14206)
(4549.73 259.073 -5707.49)
(6329.52 -1912.74 11543.7)
(-1888.07 -25058.9 29634.8)
(1777.49 -9490.52 8929.61)
(6538.25 -1411.12 -8450.09)
(6534.88 4420.5 9576.46)
(6401.8 -6084.14 5486.63)
(35956.5 14572 942.432)
(7308.09 -3788.5 -7953.52)
(10176.2 -7739.78 2043.86)
(21025.9 16700.9 21187.8)
(9521.13 34.3797 6708.02)
(-201.077 103.552 -6321.71)
(4583.28 4503.42 -9147.18)
(2610.44 -4815.03 -7154.07)
(-1713.58 -18986.3 64253.8)
(5056.06 -2464.2 390.635)
(8638.3 -5458.69 -2573.52)
(6571.27 -2243.16 -6378.84)
(14586.5 6115.31 -37855.4)
(11190.3 10855.1 -7066.75)
(14601.9 -3832.36 -22936.1)
(21510.3 -12761.1 -1750.2)
(6289.24 14288.2 51614.4)
(171.317 16900.3 54059.6)
(-619.353 7232.54 10833.9)
(5086.61 -9240.94 2358.72)
(2386.9 15519.8 59579.9)
(3425.59 28470.8 50375.2)
(-3508.69 -58.3348 26344.1)
(-4336.6 10659.6 28973.6)
(-10059.5 26401.4 53006.6)
(-13.776 -5161.81 10518)
(-3853.26 10852.5 -553.428)
(274.459 8574.89 -2202.81)
(2177.25 13758 7581.38)
(-3046.25 17335.1 23184)
(3400.7 15729.8 9826.03)
(-533.162 7945.43 -236.505)
(-2088.56 2195.36 -1190.52)
(-1283.16 2621.72 -2785.38)
(1332.33 438.659 -5398.23)
(1804.76 931.255 -4878.72)
(-927.386 594.957 203.713)
(1342.32 1078.43 -2793.77)
(3182.9 1793.26 -2815.23)
(2122.71 1224.37 -4274.8)
(4044.67 5116.53 -1669.11)
(2351.25 2187.95 -2395.4)
(737.213 1100.44 -2936.34)
(958.416 -438.217 -152.055)
(5023.22 1892.72 400.939)
(2612.31 -148.996 -247.035)
(2726.41 -520.48 -414.519)
(1465.04 863.713 -1581.44)
(-3269.02 21639.5 60029.4)
(4257.42 -5405.6 -473.859)
(5206.73 -953.471 -8857.37)
(8151.86 8204.96 3326.72)
(-1153.56 4177.57 24156.6)
(-1184.37 -4220.03 15602.9)
(9998.48 -16815.1 5629.91)
(9121.81 1699.05 2734.14)
(-9341.02 46474.2 33699.5)
(9199.39 -3796.03 -1821.22)
(2324.59 4379.94 -4681.41)
(6467.48 7420.25 -1395.68)
(-4225.16 13105 -10270.9)
(13203.5 3344.62 -5132.76)
(7529.47 -1250.21 2690.92)
(-5110.57 4347.45 6656.46)
(1101.22 3099.71 -5459.19)
(4925.1 2247.86 -79.5516)
(3195.78 4940.63 -2974.5)
(1912.89 687.819 -4586.7)
(1608.37 2576.35 -5204.2)
(329.044 4713.36 -1749.09)
(3561.65 1825.31 -4425.99)
(1569.66 2556.56 -3457.02)
(2000.81 3500.36 -5174.42)
(1893.65 732.037 -4361.25)
(4154.99 3860.8 -1685.7)
(4733.14 2484.05 -641.837)
(460.28 2126.71 -3134.24)
(2527.39 2020.75 -4823.88)
(3332.35 2697.57 -78.1603)
(1780.74 1550.59 -4870.38)
(3677.18 2017.88 -1386.31)
(1443.01 1467.43 -1064.71)
(2087.67 2289.45 -1328.26)
(243.444 660.698 -2141.15)
(1334.22 1002.21 222.556)
(1456.78 1457.4 -450.622)
(269.45 750.66 -2731.67)
(1938.62 1587.03 -2222.7)
(2831.83 1368.5 2481.1)
(-121.213 15869.6 9638.24)
(4275.26 6064.72 5550.31)
(1089.36 3935.1 1462.21)
(1120.68 3833.43 -1748.9)
(2805.96 9913.9 8380.93)
(1414.47 1487.56 125.081)
(4699.73 4943.56 5856.57)
(1625.91 2011.01 -891.627)
(1238.93 2601.64 -687.533)
(1475.97 1866.87 -1130.55)
(1795.04 1382.95 -1517.14)
(1455.39 1294.76 -973.789)
(1529.91 1487.86 -679.998)
(1723.71 1617.41 -1247.5)
(1844.85 1650.93 -1036.12)
(256.749 522.936 -3517.19)
(1404.39 2595.59 -155.355)
(1787.05 1864.91 -2933.02)
(337.593 937.675 -4587.81)
(74.2002 747.195 -3603.91)
(1572.81 1410.28 -1980.63)
(171.739 749.494 -3989.92)
(2188.01 1277.33 -2651.93)
(1388.25 1425.77 -859.167)
(1417.97 1551.65 -1742.88)
(-30.3333 585.944 -2697.29)
(381.251 2569.12 -1613.6)
(1742.58 1545.49 -1487.07)
(2276.03 1631.95 -1710.34)
(981.687 1157.61 -1202.97)
(1503.58 2005.46 -1873.82)
(2082.38 1752.65 125.098)
(1941.6 4263.52 341.791)
(1595.91 825.905 316.835)
(1684.26 1798.27 -1836.93)
(2311.15 1607.41 -359.576)
(4424.66 2439.79 295.633)
(2426.31 1826.42 -1207.48)
(2476.75 1281.97 -194.32)
(1417.88 1653.38 -2265.64)
(192.187 678.31 -3267.72)
(1465.97 1383.3 -940.943)
(1403.21 1825.61 -3704.65)
(1626.18 1647.09 -2794.4)
(2415.46 1381.38 -2314.54)
(1343.44 1863.83 -3467.56)
(2315.02 1820.85 -2073.78)
(2170.32 1833.75 -2015.01)
(3146.3 1831.79 -1653.15)
(3085.79 2281.04 428.38)
(1469.89 1913.06 -1821.07)
(2418.81 1688.83 -2171.82)
(2047.3 1938.56 -2315.74)
(2652.6 2275.19 -1207.52)
(2674.37 2540.18 -151.765)
(-182.839 181.72 -149.182)
(184.849 336.186 -1.28887)
(63.5502 357.356 -101.524)
(215.527 305.272 -141.845)
(174.011 395.754 -91.304)
(262.647 337.699 -104.425)
(162.191 129.617 18.1462)
(286.002 372.301 -120.891)
(403.163 -117.952 257.902)
(-251.304 -188.528 836.488)
(422.662 -192.509 96.1228)
(399.838 -157.165 58.3164)
(245.733 -125.993 160.675)
(26.1533 -117.8 705.221)
(287.263 -84.4868 84.2252)
(267.523 -166.255 96.5741)
(349.079 129.571 -103.214)
(308.847 -125.537 -18.2279)
(301.782 78.12 32.8899)
(350.827 -36.6549 -148.53)
(356.493 -3.89184 -48.8105)
(291.201 -37.2124 -9.27681)
(314.709 45.4908 -49.2203)
(307.173 -13.8573 -33.2978)
(415.47 131.101 -131.06)
(379.1 -76.2053 -89.5211)
(346.367 -104.41 -172.966)
(272.768 -131.559 -323.883)
(416.675 -13.7017 -235.372)
(398.496 -88.9182 -114.784)
(325.569 -47.0231 -258.071)
(258.611 -124.502 -228.35)
(361.149 101.424 124.693)
(311.33 166.432 -82.6942)
(387.517 128.495 -182.513)
(402.566 -14.8913 65.5)
(384.299 37.6695 65.0275)
(432.074 207.522 -155.55)
(420.896 63.4206 -112.955)
(412.634 135.323 -213.375)
(397.663 -53.7773 276.58)
(431.098 -85.5932 152.704)
(352.723 -139.809 229.429)
(324.612 60.2249 -102.342)
(377.536 -33.1963 218.656)
(349.643 -60.2791 167.422)
(299.487 12.8933 128.872)
(377.781 -88.3746 166.019)
(351.067 267.098 -125.13)
(376.864 183.838 -87.3167)
(375.259 -77.0717 -13.8935)
(337.24 -25.64 -183.677)
(394.702 220.599 -91.7034)
(370.275 81.6473 -130.325)
(373.81 -15.796 -79.3475)
(424.21 -50.5254 -132.334)
(276.424 19.9285 -74.1542)
(328.817 -92.6053 -78.8413)
(432.955 -157.399 12.0622)
(347.831 -167.327 15.5237)
(317.444 -46.3452 -25.7198)
(421.072 -60.5759 -22.1566)
(350.515 -120.291 67.0965)
(450.384 -163.412 -16.3428)
(692.758 93.7362 -1458.24)
(7.01034 226.3 -2203.01)
(58.5356 -77.0478 -952.708)
(227.101 -170.494 -1935.87)
(327.993 26.8408 -1061.61)
(227.814 182.343 -2289.89)
(275.041 -37.7872 -2467.39)
(155.359 260.193 -2252.7)
(840.356 -117.61 -349.568)
(-17.3126 167.265 -3677.02)
(173.425 106.301 -802.055)
(427.538 -153.591 -951.166)
(550.885 543.263 -629.194)
(36.098 197.209 -4009.39)
(988.357 515.366 -1728.45)
(143.929 455.249 -2787)
(61.5726 13.1007 -550.028)
(52.0424 -9.64455 -720.694)
(14.6668 3.00303 -701.86)
(110.978 12.0298 -569.234)
(128.449 63.2898 -526.988)
(58.3072 26.5429 -812.093)
(145.957 48.6835 -671.831)
(79.3565 58.5483 -753.047)
(45.6768 -192.255 -1417.6)
(59.8032 -91.455 -1428.89)
(133.914 -31.9081 -506.578)
(-48.3987 21.0038 -1087.95)
(-31.58 -53.2984 -1376.19)
(33.4087 -309.702 -1419.06)
(-72.1021 -45.8018 -1230.93)
(37.0299 -161.996 -1044.01)
(21.7623 508.906 -2157.96)
(53.9616 1.16394 -674.423)
(222.579 -133.652 -1818.18)
(141.011 49.8582 -1442.87)
(150.029 164.516 -1669.55)
(192.824 97.527 -1501.74)
(219.216 58.4463 -1422.29)
(137.027 -107.813 -1539.65)
(231.744 -94.4336 -3170.37)
(-215.96 17.3027 -1705)
(81.754 135.328 -1539.93)
(127.088 -42.855 -1176.01)
(173.087 -17.8358 -2437.64)
(146.092 -178.439 -1885.18)
(308.043 -45.3313 -389.183)
(358.633 222.276 -524.563)
(164.871 71.5041 -808.117)
(13.0481 -200.123 -1755.92)
(103.651 -35.593 -1425.57)
(154.053 -22.1088 -613.339)
(35.5316 43.0627 -600.411)
(21.9817 -148.696 -1565.01)
(196.905 -117.031 -537.093)
(13.3887 -171.01 -1290.68)
(91.9009 25.5916 -1042.85)
(87.7499 -27.5022 -580.696)
(-166.551 39.184 -1375.04)
(-3.48201 243.654 -1210.62)
(99.8429 -112.823 -787.245)
(33.813 -82.7369 -623.719)
(476.139 213.562 -830.93)
(347.243 31.4391 -603.025)
(-2838.66 -1011.6 -302.799)
(-2800.4 -1450 -430.224)
(-3360.38 -607.214 -109.082)
(-1856.98 -333.874 -847.275)
(-2952.95 -1021.58 -352.203)
(-3129.84 -1202.78 -415.718)
(-2105.59 -662.431 -413.869)
(-2963.57 -744.358 -416.221)
(-2404.47 -1737.27 -596.282)
(-912.111 -2280.87 -927.472)
(-2541.73 -1974.19 -962.999)
(-1344.12 -44.3684 -1582.97)
(-2095.25 -1550.01 -613.812)
(-2017.16 -1802.07 -852.782)
(-1831.44 -993.115 -903.581)
(-1920.24 -1735.29 -946.227)
(-3473.7 -449.585 -615.854)
(-2859.3 -859.326 -754.922)
(-3153.94 1183.36 285.192)
(-1685.12 338.405 -1642.26)
(-3634.04 -429.039 -804.999)
(-3787.99 -524.607 -995.15)
(-1757.54 -564.132 -2380.4)
(-3047.5 311.489 -1937.63)
(-423.763 -114.693 -795.019)
(-820.422 178.768 -1679.62)
(-341.55 272.289 -1164.6)
(49.0954 87.101 -781.946)
(-364.983 -30.6662 -760.273)
(-974.61 367.375 -1767.19)
(244.906 33.2282 -732.665)
(-308.268 245.505 -1031.97)
(-2829.32 -1312.13 -522.964)
(-3436.01 -636.702 -250.622)
(-2031.66 -234.152 -944.013)
(-1934.65 -193.59 -1552.98)
(-2194.52 -786.038 -685.207)
(-2318.03 -666.354 -760.665)
(-1913.55 -419.68 -1401.6)
(-2238.03 -307.219 -1230.46)
(-2898.66 -1423.28 -610.083)
(-2047.08 -90.059 -1558.89)
(-2977.07 -1125.01 -918.031)
(-3497.42 -771.657 -416.286)
(-2387.24 -1008.61 -579.682)
(-2042.2 -522.816 -1218.21)
(-3132.46 -1199.28 -422.275)
(-2958.76 -783.768 -777.421)
(-1822.62 -143.71 -208.248)
(-968.951 -421.368 -657.719)
(-1747.7 -139.797 -1519.97)
(-641.101 544.349 -1329.53)
(-1925.6 -91.5978 -1026.07)
(-1940.2 -39.2941 -1041.25)
(-1944.32 204.836 -1432.71)
(-1371.88 87.886 -1584.09)
(-3015.2 -577.257 -352.248)
(-1231.44 429.902 -1306.99)
(-1442.24 -275.219 -1565.16)
(-2208.4 -429.088 -868.268)
(-2235.79 -197.363 -762.37)
(-2333.61 60.2728 -1555.04)
(-2366.11 -283.95 -654.112)
(-1914.42 -465.345 -1360.45)
(-134.61 51.4225 -6083.9)
(-350.084 333.34 -6728.15)
(933.391 -258.692 -2599.03)
(-251.705 221.216 -3747.87)
(-200.028 152.505 -6810.6)
(-134.766 -331.79 -6561.07)
(-259.206 382.144 -4352.19)
(-143.32 -208.87 -5688.64)
(-417.672 116.016 -9628.23)
(222.085 -103.256 -8789.79)
(203.145 -286.058 -6436.37)
(-620.578 767.886 -8771.63)
(-196.237 -33.3499 -10437.3)
(197.229 -449.375 -7788.54)
(-571.456 294.063 -8938.83)
(210.232 -254.055 -8096.01)
(-4.23958 117.211 -8147.99)
(-103.458 -132.393 -6524.76)
(710.234 -270.878 -3147.29)
(-500.575 256.887 -5633.9)
(-201.483 88.772 -9431.48)
(214.606 -355.883 -8445.53)
(-507.259 393.433 -5915.5)
(-147.732 -313.686 -7595.61)
(-182.804 79.7476 -2270.94)
(-335.344 364.068 -4699.88)
(94.0161 -242.984 -1923.27)
(-105.774 26.9746 -781.393)
(-124.438 75.2437 -1606.02)
(-161.286 -100.195 -3980.39)
(-155.662 13.5976 -713.458)
(-68.9039 3.7992 -3129.21)
(-412.223 693.667 -6317.54)
(777.388 -421.763 -2594.29)
(-323.254 276.47 -3641)
(-118.901 313.408 -5408.31)
(-503.435 -81.659 -5904.92)
(-53.2056 -222.858 -5594.45)
(-115.12 110.207 -5441.47)
(-136.832 -90.8257 -5524.25)
(-357.778 725.093 -8070.99)
(-358.708 329.558 -6154.51)
(-48.7835 -230.821 -7665.64)
(33.2446 948.581 -4708.93)
(-530.941 400.476 -6970.75)
(-724.53 756.756 -7141.68)
(-648.667 263.835 -8448.85)
(-500.516 196.448 -9449.02)
(362.743 -691.454 -2194.65)
(-116.609 21.5746 -2178.51)
(-239.503 236.199 -4727.59)
(108.733 -222.381 -1710.47)
(381.671 -228.659 -1980.02)
(-104.631 -35.197 -4512.49)
(287.085 -234.11 -2096.27)
(-211.413 -78.7173 -4367.78)
(-164.915 -356.11 -3013.73)
(-151.472 23.4856 -2119)
(-554.997 491.304 -5463.18)
(66.8401 43.8921 -7472.1)
(-324.064 292.936 -3355.35)
(42.7692 -146.377 -2321.6)
(-536.799 431.875 -6944.79)
(-679.944 358.193 -6475.77)
(-840.9 -1718.01 -1180.05)
(131.336 -581.905 -3612.7)
(-2095.14 -1564.56 -1531.69)
(-1356.62 223.569 -1378.97)
(-764.229 -924.591 -2465.27)
(-327.088 -1534.1 -2543.36)
(-1161.15 -625.399 -1759.32)
(-1785.12 -964.711 -1797.04)
(324.102 -137.069 -5374.09)
(259.048 -173.646 -8158.92)
(216.745 159.947 -5311.43)
(-220.681 -37.3385 -7140.61)
(-26.3017 39.2967 -5189.97)
(0.407694 -125.856 -5791.47)
(65.6593 252.596 -5852.44)
(96.2268 -87.8546 -5910.96)
(-2813.31 -523.997 -1417.61)
(-823.814 309.552 -3357.38)
(-3614.49 1256.22 696.257)
(-1870.4 250.008 -1933.82)
(-1788.74 -80.6219 -3252.81)
(-1401.57 -242.467 -2971.13)
(-2275.75 411.102 -2039.16)
(-3021.02 1090.33 -407.419)
(-869.202 298.354 -1696.84)
(-284.968 -24.2217 -3564.79)
(-291.092 191.418 -1735.71)
(205.672 -37.1638 -1136.48)
(-429.703 151.19 -1891.83)
(-365.424 442.491 -2830.28)
(111.562 5.55706 -665.795)
(-174.694 209.274 -1863.06)
(-285.448 -233.416 -3499.46)
(-1220.3 -281.185 -2517.54)
(-586.275 15.2806 -2599.49)
(-502.923 224.398 -4055.58)
(-653.231 -68.6859 -3986.81)
(-776.117 0.607919 -3721.42)
(-787.66 42.2124 -4425.38)
(-838.916 297.996 -3477.4)
(62.3196 -533.672 -3841.39)
(-541.398 90.3163 -5564.66)
(-410.798 -31.2243 -4942.01)
(-1157.38 -547.653 -1697.27)
(-264.049 -318.617 -2869.64)
(-409.224 100.083 -5339.8)
(-467.478 -381.534 -2870.36)
(-558.656 -64.7977 -4949.22)
(-1948.38 76.082 -1413.78)
(-1375.66 -602.762 -2051.02)
(-343.354 80.0968 -3029.19)
(-641.504 429.101 -1908.38)
(-1843.98 -305.833 -1448.59)
(-980.228 -26.6216 -3163.09)
(-596.102 515.268 -2003.03)
(-290.343 22.7873 -2976.52)
(-2262.61 44.4711 -489.41)
(-817.498 325.636 -2283)
(-363.132 136.051 -4210.93)
(-390.6 -339.534 -3824.6)
(-1044.51 177.472 -3787.29)
(-994.412 -71.2245 -2704.26)
(-802.727 134.575 -4388.02)
(-568.844 79.3379 -3858.34)
(2799.09 4660.38 -3624.04)
(282.677 2564.9 -1670.12)
(-448.709 1952.02 2384.13)
(-2217.64 1722.71 -294.52)
(2375 3574.47 -1253.33)
(669.521 5562.45 -1420.29)
(1994.59 2746.55 -2014.62)
(1767.23 1953.41 -2804.89)
(-1198.51 956.325 -3626.6)
(-982.425 -499.353 -2666.05)
(-740.843 1587.03 -626.826)
(-1042.56 2275 -2207.96)
(-1996.11 1108.96 -4042.55)
(-1656.27 184.851 -3489.02)
(-68.9858 2437.77 -2913.37)
(823.903 938.303 -1420.76)
(1278.76 -2216.28 1007.86)
(1655.53 -1029.89 -2240.28)
(-2746.99 -2612.84 -744.367)
(-313.869 1365.23 -4742.68)
(1529.6 -1670.2 627.604)
(-50.9569 -656.396 -1475.31)
(-2094.6 1127.31 1256.3)
(-2264.9 -2441.84 -2412.97)
(-348.413 2382.54 -2968.02)
(80.5155 2710.27 -2124.36)
(1286.27 -654.241 -6655.68)
(1000.68 688.095 -7483.4)
(354.569 3148.97 -1941.04)
(456.758 3650.61 -1963.94)
(914.73 -376.49 -7918.91)
(677.674 919.355 -5205.24)
(-54.9082 3397.09 -2365.88)
(1513.06 2455.05 -3436.43)
(60.8824 2230.55 -1408.77)
(-1154.71 2230.99 -2062.81)
(245.897 1755.97 -2463.23)
(-425.386 2843.12 -3136.71)
(-155.3 2362.1 -1712.52)
(-1738.58 2170.61 -1482.96)
(-1531.67 2656.46 -2654.93)
(-550.521 1830.17 -1972.94)
(1347.22 1819.19 -2870.64)
(-567.497 3526.75 -419.406)
(-1170.2 2280.5 -1763.88)
(478.3 1512.12 -1345.23)
(151.59 2386.3 -4024.05)
(-182.784 3159.96 -2883.71)
(-2015.49 -5499.02 573.265)
(-1235.33 4225.13 1500.5)
(-913.703 4372.93 -1885.29)
(566.441 -2466.96 -6724.1)
(-3242.41 3409.85 -274.241)
(-1601.29 5018.03 277.565)
(-3027.98 4498.99 -4987.84)
(217.644 3148.64 -872.206)
(-2682.82 -1403.32 -2323.03)
(-4305.69 2045.39 -2587.17)
(683.257 3055.78 -1747.6)
(2260.13 -154.149 -2099.71)
(-2493.51 -3201.47 -2298.32)
(-3446.53 -329.567 -2230.13)
(206.922 -589.089 -3263.65)
(-2239.53 3344.48 -3283.91)
(2075.04 8131.01 -7252.82)
(1759.07 1561.35 2757.19)
(1522.52 5943.56 1635.45)
(787.008 4546.36 -843.597)
(1824.78 6535.27 1749)
(4432.21 4109.33 4902.88)
(-2808.04 5278.83 -630.91)
(1243.09 4150.34 2009.38)
(1997.33 590.595 1984.18)
(2206.32 1354.21 3637.41)
(1221.29 1089.21 -2231.86)
(1013.1 1370.06 -2446.39)
(1673.96 1343.43 1745.46)
(1794.71 1208.75 1845.12)
(1012.53 507.193 -521.887)
(933.614 871.061 -2689.59)
(-36.8009 3320.75 3018.72)
(825.403 1348.91 756.842)
(-184.153 1350.43 1377.35)
(-69.1224 1740.32 630.076)
(-56.0189 1991.52 1239.83)
(-192.307 1290.6 1962.34)
(193.787 2717.45 628.712)
(-193.769 1335.07 320.957)
(332.418 2424.84 -3185.52)
(273.737 732.028 -2505.61)
(212.528 456.69 -262.753)
(991.834 411.615 -7421.49)
(1001.63 2412.21 -4023.13)
(-222.84 1229.38 -1974.53)
(196.707 1159.06 -4404.07)
(-121.877 585.993 -1799.87)
(1493.41 815.38 1094.64)
(289.996 3358.85 2365.8)
(612.749 2920.38 -515.894)
(333.321 1308.74 -2138.86)
(-287.199 1116.4 325.574)
(-471.483 2319.41 2602.41)
(730.715 1885.7 -658.969)
(1019.45 1899.17 2526.3)
(2296.74 1405 2788.97)
(189.112 781.907 -1086.33)
(1310.5 1222.07 -835.072)
(-503.641 3367.18 4357.14)
(822.447 636.501 -1138)
(914.112 967.647 -485.5)
(1242.14 1629.72 43.2355)
(830.385 1175.45 -525.401)
(920.127 3635.38 -461.133)
(-451.1 3163.21 -2365.86)
(176.053 1123.89 -1804.29)
(326.602 1776.85 178.525)
(943.123 1395.15 1278.25)
(771.888 1716.33 -547.285)
(507.612 1882.31 -55.0878)
(196.484 1806.72 -1202.41)
(-133.742 2115.73 793.848)
(59.0059 1707.48 -541.38)
(387.009 847.867 -1537.95)
(813.448 1502.73 -1203.81)
(302.287 1810.95 915.932)
(23.0093 1415.18 -474.056)
(400.059 1520.42 -697.188)
(456.933 1402.87 -1607.01)
(-360.072 -3623.04 10222.8)
(2827.42 2219.36 -114.327)
(1228.67 -1241.58 10921)
(4892.01 858.316 1843.72)
(82.5916 -1202.03 4116.38)
(729.618 -27.8419 6019.37)
(3817.01 -3489.14 8730.53)
(1461.91 -3962.74 10290.6)
(624.758 1391.79 579.92)
(1478.47 1756.44 -522.841)
(1135.04 3062.73 -112.217)
(1095.74 1898.97 -1338.54)
(1718.43 1838.95 -162.819)
(1587.1 1633.68 -336.611)
(1297.45 2225.33 193.226)
(1875.93 2052.32 -524.84)
(-2937.94 4077.87 16307.6)
(2510.1 2301.34 2512.55)
(222.587 19340.2 11626.3)
(1810.28 8155.22 6094.9)
(-2130.28 6638.22 12470.4)
(-3918.85 -17756.8 16764.8)
(-540.163 22607.1 11602.4)
(1081.26 7394.93 9577.68)
(3130.87 -141.498 1106.01)
(1670.16 -1125.87 3696.67)
(230.114 -1321.67 5765.45)
(1796.05 -115.848 588.144)
(322.654 833.781 -1011)
(1705.62 597.063 -381.383)
(1270.21 -219.261 -968.807)
(779.286 722.622 -1847.25)
(2174.5 2607.82 973.509)
(3637.67 -772.294 7938.25)
(3361.83 255.134 1172.76)
(1798.79 -772.43 368.99)
(2965.33 4276.67 -98.4135)
(3546.95 -4136.68 4541.47)
(1768.5 -1609.67 -34.4785)
(4195.62 722.916 2666.03)
(1847.49 -345.054 2823.94)
(457.531 -731.106 116.564)
(2386.09 4476.18 307.922)
(4391.05 -5399.3 6664.59)
(2823.57 2096.74 -362.687)
(2963.18 3011.25 -302.265)
(3712.15 1214.11 951.499)
(4763.79 1396.46 -976.611)
(772.941 2556.79 13599.6)
(1612.6 1359.77 2696.61)
(1649.25 -990.557 3408.59)
(3044.96 1966.82 4671.55)
(2946.8 1866.64 6056.72)
(2125.51 658.482 2382.49)
(3927.54 1106.17 1580.75)
(2271.47 833.951 1278.05)
(-1347.23 94.4213 11120.6)
(1524.22 2673.06 4694.74)
(780.105 -912.846 1916.1)
(1175.24 1158.06 -1720.64)
(13608.6 -5597.88 467.624)
(3208.56 -78.9662 4628.91)
(17602.8 479.302 8691.58)
(4335.18 531.289 4186.1)
(-458.424 195.441 538.179)
(-261.989 205.285 354.182)
(-221.66 41.2674 428.334)
(-117.051 206.463 486.119)
(-272.39 139.598 481.045)
(-268.073 178.819 473.668)
(-237.152 111.502 438.888)
(-241.452 138.094 455.058)
(7.27911 146.727 201)
(39.5139 41.0234 186.991)
(-32.3988 217.295 328.758)
(78.712 64.469 144.996)
(37.6185 162.676 231.099)
(-21.2755 190.257 375.053)
(16.0425 181.758 153.389)
(-0.454071 161.213 271.219)
(-194.871 28.6826 372.946)
(-88.439 136.491 377.243)
(-153.329 54.8345 408.6)
(-96.1693 143.828 350.333)
(-172.978 79.7977 391.982)
(-154.575 37.5413 409.591)
(-164.729 120.354 402.225)
(-150.459 77.0364 390.267)
(127 159.872 63.6695)
(158.856 24.9051 96.2562)
(12.8585 155.329 212.483)
(146.09 -13.5542 43.2902)
(146.693 124.048 99.9446)
(12.3512 150.343 250.323)
(163.41 65.6861 -0.0617669)
(26.5115 120.997 149.988)
(-150.077 205.205 359.429)
(-202.924 108.491 414.874)
(-5.08379 203.424 363.228)
(-5.2918 170.191 225.966)
(-152.318 221.421 378.273)
(-200.91 213.312 454.173)
(-104.174 199.643 316.348)
(-74.0408 200.357 383.933)
(-141.784 173.785 368.831)
(1.18934 165.611 250.407)
(-104.587 155.592 355.102)