/*--------------------------------*- C++ -*----------------------------------*\
| =========                 |                                                 |
| \\      /  F ield         | OpenFOAM: The Open Source CFD Toolbox           |
|  \\    /   O peration     | Version:  2506                                  |
|   \\  /    A nd           | Website:  www.openfoam.com                      |
|    \\/     M anipulation  |                                                 |
\*---------------------------------------------------------------------------*/
FoamFile
{
    version     2.0;
    format      ascii;
    arch        "LSB;label=32;scalar=64";
    class       volVectorField;
    location    "1100";
    object      U;
}
// * * * * * * * * * * * * * * * * * * * * * * * * * * * * * * * * * * * * * //

dimensions      [0 1 -1 0 0 0 0];

internalField   nonuniform List<vector> 
42368
(
(0.0175818 0.0195904 0.981949)
(0.0363042 0.0885201 1.01011)
(0.00485868 0.0562748 1.09241)
(0.00163196 0.0167933 1.06491)
(0.110367 0.0580416 0.997164)
(0.0470844 0.0257802 1.02436)
(0.106268 0.062465 1.02091)
(0.029525 0.0650758 1.04604)
(-0.316927 0.261576 0.69883)
(-0.268279 -1.46431 4.12757)
(0.126578 -0.910569 3.12218)
(-0.900665 -0.927366 2.64089)
(-0.38171 -0.322399 2.17905)
(0.356053 -1.15157 3.15877)
(-0.26809 -0.889575 2.77591)
(0.266275 -1.00784 3.24835)
(-0.129289 0.0761191 1.19879)
(-0.104785 -0.391866 2.79304)
(-0.138143 -0.159515 2.62322)
(0.134275 -0.436403 2.53983)
(0.567823 -0.202548 2.22116)
(-0.0778518 -0.233031 2.76153)
(0.392475 -0.322709 2.53908)
(-0.138441 -0.184471 2.72129)
(-0.395771 -0.00153423 1.67426)
(-0.830534 -0.616088 3.68042)
(-0.317925 -0.700671 3.66745)
(-0.760405 -0.210568 3.7642)
(-0.859579 -0.757849 2.82874)
(-0.702844 -0.470145 3.57423)
(-0.628797 -0.416722 3.57895)
(-0.418919 -0.577207 3.71342)
(-0.238021 0.115348 1.39396)
(0.0584701 0.0703106 1.29142)
(-0.257382 0.0340608 1.39981)
(-0.96069 -0.521037 2.54409)
(-0.0951904 0.172685 1.33203)
(-0.0968697 0.150074 1.48017)
(-0.391963 0.0924428 1.40366)
(-0.325142 0.0608638 1.54573)
(-0.400844 0.178479 1.11033)
(-0.449782 -0.500512 3.00125)
(0.100252 -0.741856 2.76783)
(-0.143697 0.10221 1.19151)
(-0.334011 0.18908 1.11625)
(0.29499 -0.618335 2.60431)
(-0.208222 0.0997327 1.05664)
(0.10938 -0.315781 2.88826)
(0.116696 0.0360742 1.52893)
(-0.177282 0.212451 1.54361)
(-0.835119 -0.784983 2.82784)
(-0.472282 -0.497425 3.05589)
(-0.302986 0.0437798 1.81637)
(-0.287059 0.116364 1.46188)
(-0.575786 -0.326498 3.12372)
(-0.314355 -0.685058 2.81913)
(-0.0501923 0.0318128 1.31264)
(-0.0923639 -0.81598 2.40527)
(-0.295081 -0.768358 2.96644)
(-0.0327237 -0.436091 2.805)
(0.0643018 -0.30892 2.68977)
(-0.0377924 -0.776671 2.5647)
(0.171333 -0.392928 2.67277)
(-0.175685 -0.7727 2.62626)
(0.3468 0.031143 4.63096)
(1.50226 -0.274419 6.52079)
(0.783723 -0.177722 5.36588)
(2.00456 1.35566 5.65449)
(1.64277 0.34776 5.55264)
(1.3633 -0.219919 6.09349)
(1.98754 0.360552 5.71892)
(1.01379 -0.0571652 5.74486)
(0.285182 -0.995817 8.33676)
(-0.768706 -2.55002 7.88259)
(0.0190811 -0.126213 7.70216)
(1.04483 0.145742 4.88313)
(0.237637 -1.28395 8.49384)
(-0.763396 -2.36036 8.00989)
(-0.040884 -0.176733 8.54252)
(-0.374964 -0.354942 8.27413)
(-0.508161 -0.349543 5.52852)
(0.566938 0.809611 7.104)
(0.0471959 0.495222 6.75136)
(0.107004 0.185032 4.41512)
(0.0320642 0.32808 6.64248)
(0.188519 -0.172833 7.17949)
(-0.444554 0.792088 6.34808)
(0.0856418 0.04968 6.98367)
(2.31352 1.52025 5.20943)
(0.920887 2.51314 2.99733)
(1.13812 1.97972 3.42155)
(1.14749 2.41897 2.85851)
(1.34182 2.18321 3.89412)
(0.854797 1.7923 4.1254)
(1.26993 2.08978 3.10492)
(1.1508 1.82856 3.36551)
(2.60298 -0.554619 8.34103)
(1.20369 -0.00398967 6.95635)
(3.1851 1.69838 7.33509)
(2.52355 1.86846 5.08199)
(2.08829 -0.450577 7.58065)
(1.8527 0.530355 7.89402)
(1.43674 2.16937 8.04426)
(1.57137 1.23911 8.0637)
(0.210149 -1.08664 8.09471)
(1.72153 1.01201 4.32239)
(-0.326781 -0.667788 8.18168)
(-0.237044 -0.86393 6.49639)
(-0.1653 -0.683838 7.29071)
(0.322966 0.0732006 7.78733)
(0.193463 -0.224403 6.84069)
(0.0848023 -0.0821826 7.40331)
(0.681199 0.332945 7.80015)
(3.70404 0.835273 7.47469)
(2.13161 2.31168 4.99622)
(1.90627 1.63726 5.58753)
(1.56214 1.12695 7.28567)
(1.94615 1.9584 7.17805)
(2.34995 1.61808 5.79899)
(2.08549 1.1926 6.29828)
(-0.22678 -0.309326 6.41633)
(0.874311 0.529271 5.20033)
(1.45639 1.04039 5.02127)
(0.0633788 0.757456 7.34775)
(-0.0458189 0.636719 6.75348)
(0.717507 0.465757 4.77806)
(0.346734 0.20351 7.71508)
(0.806766 -0.0278264 4.58441)
(-0.759059 -0.317194 1.10078)
(-1.2427 -0.305206 -0.440737)
(-0.682465 0.217144 3.13924)
(-0.0839754 0.0648572 1.27609)
(-0.681741 0.378812 0.472207)
(-0.380861 -0.747058 1.04568)
(-0.106663 -0.0491057 1.89263)
(-0.0221186 0.174104 1.80084)
(-1.25776 -0.290579 -1.82845)
(0.561333 -0.176834 0.909889)
(0.0299469 0.327969 2.46406)
(0.0977811 0.0734626 1.43596)
(0.870754 0.182122 1.16731)
(0.385708 -0.330666 0.699108)
(0.690045 -0.617464 1.04264)
(0.448778 0.0721492 0.601753)
(-0.171942 0.358369 2.81163)
(0.139132 0.113315 2.46166)
(-0.18375 0.169795 2.23122)
(-0.233749 0.17319 1.80251)
(0.137435 0.38119 2.47235)
(0.168274 0.154908 2.33698)
(-0.536115 0.126624 2.29997)
(-0.419548 0.139324 2.31529)
(0.140642 0.119809 0.985411)
(0.168802 0.0396427 1.06052)
(0.0420049 0.0428396 1.25395)
(0.0291728 -0.00279651 0.952211)
(0.140081 0.0582159 1.0221)
(0.119798 0.0449894 1.0238)
(0.13883 0.0348285 0.877189)
(0.1382 0.0231209 0.913279)
(-0.919446 0.183289 -0.692824)
(-0.537431 0.352819 2.75691)
(-0.286316 -0.152883 1.36387)
(-0.120835 -0.0201879 1.3847)
(0.417909 -0.298639 1.5496)
(0.22748 0.149105 1.32503)
(-0.0947485 -0.0150033 1.31156)
(-0.172381 -0.017436 1.48998)
(-0.679748 -0.809768 0.967872)
(-0.0728145 0.0356404 1.44515)
(0.00227722 0.38661 2.61961)
(-0.455862 0.566546 2.83886)
(0.625736 0.210013 1.46915)
(0.519175 0.0742422 1.11962)
(-0.267626 0.425099 2.7637)
(-0.145703 0.107955 2.67537)
(-1.79293 -0.456787 4.04096)
(-0.0929151 -0.15586 0.840713)
(-0.0258945 -0.0754254 1.07624)
(-0.359902 -0.139289 1.8458)
(-0.694267 -0.117113 2.53996)
(0.0357717 0.0550134 0.92222)
(-0.517718 -0.0697041 2.17585)
(0.113327 -0.201514 1.0327)
(-1.51462 -0.195661 3.63036)
(-0.342022 -0.138576 1.84697)
(-0.00788946 -0.147601 1.29265)
(-1.1692 0.0496784 3.56406)
(-1.38817 -0.178985 3.54636)
(-0.547535 0.0148893 2.3412)
(-1.28787 -0.156238 3.46986)
(-0.72554 -0.0132846 2.65496)
(6.95297 -6.40788 -1.09241)
(8.12625 -8.11802 -5.26163)
(0.723398 -4.84228 -4.85275)
(-0.772874 -3.13433 -2.20285)
(7.09518 -8.27735 -3.19744)
(7.21039 -8.95427 -3.88513)
(0.71583 -3.65048 -3.69243)
(1.2225 -2.53262 -4.14125)
(7.94088 -5.31221 -14.0255)
(-0.990364 5.76287 -19.3204)
(-2.67057 2.13051 -19.8498)
(2.40418 -3.10533 -23.3915)
(5.7317 -3.82222 -20.9706)
(4.36364 -3.08352 -28.0471)
(2.17645 -4.5018 -22.9195)
(0.308283 -2.2339 -34.6076)
(-1.61244 -1.37605 -6.08837)
(-3.81523 0.26783 -4.54296)
(1.36126 -2.1458 6.27513)
(-0.174949 -2.30229 0.151262)
(0.344791 -0.13134 -2.96063)
(0.0265248 -0.922461 -1.4435)
(2.32591 -3.13702 -0.82777)
(3.45783 -3.26531 0.222794)
(1.7693 0.0366686 0.308638)
(-1.09371 -0.813157 -2.85642)
(1.4652 3.93936 -2.66639)
(1.18429 1.92791 1.67815)
(0.910916 -0.898952 -0.221056)
(0.284517 1.81091 -2.85507)
(1.93336 1.07891 0.301746)
(-0.209782 2.43585 -2.32661)
(6.91498 -9.14275 -11.9767)
(0.158566 -6.06221 -7.59092)
(-1.73419 -2.52532 -2.5392)
(0.298998 -3.35805 -10.9587)
(0.17361 -5.71634 -13.8962)
(0.776235 -2.02783 -8.56324)
(0.972565 -2.57589 -7.82937)
(0.804783 -0.678226 -4.19443)
(7.43896 -8.95018 -12.6486)
(0.879619 -3.99696 -22.1057)
(1.37274 -2.05546 -21.9311)
(-1.61163 -5.08239 -12.99)
(-0.494355 -7.53963 -17.5022)
(1.57265 -2.90443 -21.6536)
(-2.40375 -3.55397 -15.0467)
(0.402254 -1.28253 -15.0939)
(-0.144945 -3.64642 -7.26145)
(-1.6744 -1.47589 -2.89216)
(-0.143835 -2.19839 -7.94915)
(2.66942 1.0234 -3.73116)
(1.08356 -0.778106 -5.22469)
(-0.612235 0.0601135 -4.56379)
(0.652239 -2.3824 -6.40664)
(-0.0263716 0.290296 -4.18715)
(-1.1961 -6.18754 -10.3688)
(0.278615 -2.91648 -11.1543)
(-1.13856 -3.12126 -21.494)
(1.46 -0.0978587 -20.6357)
(-0.275937 -2.57781 -13.3666)
(-0.299879 -3.43273 -13.1315)
(-1.79142 -2.8534 -17.3469)
(-0.709414 -3.07394 -18.5974)
(-1.17709 -1.81071 6.37047)
(-0.0822073 -0.309496 5.45453)
(-0.596641 -0.695055 11.8999)
(0.510047 1.63621 2.88627)
(-1.62962 -1.004 5.22784)
(-2.84539 -1.34512 10.7678)
(3.66112 0.363216 2.60885)
(-0.719445 -0.357989 6.36718)
(0.792877 -3.0431 4.00988)
(1.63442 -0.198466 5.08353)
(3.09623 -3.11575 8.67395)
(2.87738 1.42687 4.82809)
(1.21882 -0.843984 5.18292)
(-1.65831 -5.15233 6.84984)
(5.34344 1.98815 5.31589)
(1.63305 -0.254052 5.09096)
(-1.55813 0.112139 11.1836)
(1.29053 -1.08465 6.05709)
(1.54449 0.787479 7.14741)
(1.86758 0.286981 5.81218)
(1.03881 -0.0619366 7.90544)
(1.66288 0.783794 9.30326)
(1.9242 0.706054 4.84407)
(1.66191 0.238113 7.59661)
(1.1554 1.67773 2.18519)
(3.25782 0.920144 2.37292)
(1.23437 1.88348 3.35875)
(1.43915 2.45953 2.79907)
(2.02604 1.44496 2.63166)
(2.05941 0.462577 1.54267)
(0.946723 2.45037 3.05746)
(1.78006 1.88241 2.44988)
(0.248023 -1.28253 5.36187)
(-0.0125443 -0.377781 7.09571)
(0.790716 1.5546 2.52228)
(1.50779 2.30897 -0.00381796)
(-1.46693 -0.928346 2.50888)
(0.388133 -1.20002 0.597818)
(0.212227 0.883233 0.749712)
(0.827591 1.49915 1.55401)
(2.96818 0.778106 7.80273)
(-1.48004 3.25477 -2.61948)
(-0.0879784 -0.804301 7.25018)
(-1.95701 -1.69799 11.2429)
(1.38765 -1.05955 6.34161)
(1.31926 -0.673764 6.37178)
(0.597214 0.797184 5.18112)
(1.46469 -0.255878 4.84793)
(4.98115 1.21376 3.3698)
(0.582253 1.64425 3.06333)
(0.367036 2.11991 2.26937)
(0.697235 1.16162 4.47197)
(4.36518 0.628318 3.27436)
(1.47895 1.20012 2.39888)
(2.96693 1.34787 2.94075)
(-0.0519635 1.84738 2.98389)
(0.401737 0.409012 7.00759)
(2.96893 -0.217262 3.88968)
(1.02668 0.246915 0.553041)
(1.59023 -2.15097 6.1075)
(6.14565 -1.08662 3.37941)
(4.90627 -0.686939 3.56094)
(3.68676 -0.84363 4.75416)
(1.73884 0.476346 1.12894)
(0.101586 0.0132144 1.0463)
(0.038532 0.0412036 1.12284)
(0.205335 0.0189733 1.16004)
(0.0421343 0.060891 1.0098)
(0.0983508 0.0295639 1.02568)
(0.161347 0.0378103 1.09835)
(0.122892 0.0876242 1.08258)
(0.155602 0.0560003 1.11929)
(0.0866344 -0.121308 1.17061)
(-0.273899 0.0558423 2.55489)
(0.412895 0.16539 1.49864)
(0.210964 -0.427407 2.19521)
(0.275748 -0.216403 2.00977)
(0.408469 -0.0373851 1.72802)
(0.24717 -0.0353825 1.8948)
(0.181165 -0.0242587 1.76745)
(-0.0541818 0.0212555 1.97372)
(0.0826898 -0.000375847 2.23136)
(-0.0990542 -0.215673 2.75475)
(-0.0943822 0.168569 2.19747)
(0.492391 0.0269968 1.25875)
(-0.0213298 0.000767777 1.84363)
(0.161232 0.197073 1.88705)
(0.169822 0.130269 1.67715)
(-0.330898 0.179058 1.34337)
(-0.315662 -0.900157 3.2577)
(-0.636524 -0.0909925 2.96682)
(-0.671983 -0.0855671 3.6577)
(-0.603244 -0.13788 2.72812)
(-0.202011 -0.226503 3.12206)
(-0.813697 -0.0107101 2.87446)
(-0.493104 -0.10468 2.91724)
(0.0820578 -0.0277436 1.27434)
(0.23301 0.0745555 1.13052)
(-0.0851626 0.13351 1.31572)
(-0.422869 -0.282304 2.49361)
(-0.0112742 0.185668 1.36099)
(0.178145 0.0587112 1.28792)
(-0.150654 0.150108 1.51903)
(0.027809 0.153874 1.55717)
(0.312319 0.0979685 1.55463)
(-0.0310044 -0.112112 2.67853)
(0.350132 0.00603637 1.74426)
(0.137329 0.0380879 1.40541)
(0.234616 0.135851 1.54252)
(0.0596925 0.171432 1.74806)
(0.242725 0.0371971 1.48684)
(0.298855 0.0816296 1.3988)
(0.238823 0.13809 1.42903)
(0.00699456 0.210446 1.33181)
(-0.553532 -0.0176544 2.52578)
(-0.0676053 0.254896 1.7925)
(0.112821 0.0715533 1.36782)
(-0.0106857 0.122003 1.50464)
(0.0355245 0.221819 1.5622)
(-0.0562581 0.531336 2.04116)
(0.219618 0.0209103 1.38021)
(0.0387006 0.105557 1.73297)
(-0.257102 0.154676 2.68809)
(0.516913 0.28547 1.79002)
(0.439279 0.306064 1.23753)
(-0.0354995 0.116663 1.92107)
(0.0214698 0.181591 1.87732)
(-0.249506 0.0786205 2.79064)
(-7.2975 0.50772 -8.20951)
(-2.29326 -0.397964 -1.94418)
(0.597352 0.109028 -4.42268)
(0.970716 2.26796 6.07092)
(-0.0970033 0.1157 3.47842)
(0.327036 -1.24364 2.76865)
(-0.0573121 -3.25883 -5.43011)
(-1.00627 0.238453 3.67562)
(-0.417926 0.261551 -0.771328)
(-0.0943029 0.0834817 0.887078)
(0.176607 -0.0502417 1.0813)
(0.426724 0.491782 1.32888)
(0.0943716 0.171897 0.965863)
(-0.123299 -0.733219 0.961676)
(0.500165 0.567486 0.862021)
(0.171085 -0.00276111 1.05065)
(-0.953756 -0.979767 1.98954)
(0.0922751 -0.803 1.77512)
(0.671858 0.142975 0.154696)
(0.489811 0.287164 2.76021)
(0.224769 -0.416647 1.94763)
(0.204495 -0.475638 1.62214)
(0.0946734 0.266891 -2.32381)
(0.23383 -0.565836 1.87421)
(0.679654 2.07767 7.08423)
(0.597125 1.28879 1.50154)
(0.472516 0.0182265 4.11501)
(0.154527 -0.214628 2.11846)
(0.286219 0.884484 4.76448)
(0.0455224 -1.03923 3.4109)
(0.938793 0.90441 4.17807)
(0.556068 -0.0329354 4.07432)
(0.63871 0.0225387 1.51142)
(-1.60702 -0.779178 3.38554)
(0.430667 2.30733 4.33523)
(0.37094 1.00065 1.47541)
(0.0372877 0.785727 1.19239)
(-1.87391 -0.853338 2.94184)
(0.0754903 1.09263 1.12125)
(-1.74334 0.426066 3.78163)
(1.75499 -1.05178 0.935167)
(0.0344037 -0.118637 1.57046)
(-0.442906 -0.0126174 1.72088)
(-2.23316 -1.11647 3.7134)
(0.383675 0.466293 1.64541)
(0.494509 0.217141 1.74495)
(-0.356783 0.000351927 1.53688)
(0.140967 0.00863076 1.59197)
(-1.84846 -3.77009 -0.887374)
(3.95558 1.85253 2.51223)
(0.975767 1.76001 2.17147)
(0.796809 0.507538 3.29741)
(1.40433 -1.44823 3.10234)
(1.66393 1.32812 3.29018)
(0.857501 0.495288 3.38655)
(1.25639 1.47567 3.17875)
(-0.714221 -1.09169 2.59795)
(0.520554 0.318332 3.07701)
(0.61613 0.93143 1.98857)
(0.0234892 -0.637721 1.58701)
(-0.544396 -1.52466 -1.66028)
(-0.0866388 -0.0104561 2.65026)
(-0.147001 -0.638328 1.47194)
(0.45527 0.640711 2.12879)
(-0.684814 -2.81347 8.18229)
(0.650939 -1.3255 7.5051)
(-1.85258 -3.79432 4.15127)
(0.823147 0.32213 5.99673)
(0.237978 -1.31774 8.67162)
(-3.04195 -2.80117 6.04003)
(-0.448166 -0.277421 3.61568)
(-3.4496 -3.17856 5.70588)
(2.03204 -0.59116 6.11919)
(0.584326 0.394319 4.86626)
(2.57334 0.0927292 5.43916)
(2.73557 1.20846 5.93571)
(2.24259 0.188541 6.14427)
(1.71167 -0.361827 5.11089)
(2.24584 0.389393 5.53254)
(2.35526 0.197009 4.97231)
(1.96335 -8.47577 2.03547)
(2.4687 -7.76883 4.07528)
(6.11543 -8.75424 0.537013)
(0.382726 -2.31416 -1.8991)
(1.5037 -7.78553 2.55451)
(2.2051 -7.49134 2.89072)
(1.03157 -3.45596 -0.95673)
(1.92439 -3.87865 0.505348)
(0.842506 1.52959 3.1803)
(1.6208 1.94283 4.3127)
(-0.073165 0.428253 1.24832)
(1.19281 2.56507 3.53953)
(0.821722 1.6071 2.62083)
(1.35507 2.05936 3.64158)
(0.705794 1.69213 2.33361)
(1.01933 1.75717 2.47032)
(3.03074 -0.616926 8.86032)
(0.235186 -3.38598 5.05581)
(1.47963 1.94048 5.53796)
(3.4493 1.77307 8.3898)
(-0.18618 -0.28158 7.33017)
(-1.35848 -1.14825 6.39012)
(2.09856 1.49443 8.09977)
(-1.40248 -0.83523 6.07475)
(2.94922 -1.12359 7.08238)
(1.73904 0.19254 7.07904)
(2.3601 -1.82224 7.39661)
(-2.68139 -2.87213 5.58798)
(-0.507161 -1.15052 6.24006)
(1.80435 -0.472723 7.60171)
(-0.582494 -2.52675 6.63349)
(2.10434 -1.29778 8.11966)
(-0.805174 -3.81838 -0.258698)
(2.19986 -0.0774144 3.78436)
(1.48268 1.69673 4.74744)
(-1.37773 -0.605497 -2.04154)
(3.19349 -0.971914 1.62939)
(0.334894 0.0491774 0.189398)
(2.13343 -0.442852 1.74866)
(0.51383 0.714066 2.92415)
(0.626314 -3.19211 1.5539)
(-1.88782 -1.15295 -1.96599)
(-0.0130329 0.815509 2.04917)
(0.27622 -2.86778 4.44419)
(-0.811198 -2.4143 1.35333)
(1.4876 -1.45616 0.753957)
(1.32738 -2.66384 4.24254)
(0.856265 -1.28207 3.10733)
(-0.289647 0.458863 2.42312)
(-0.144021 0.0234312 2.61976)
(-0.190298 0.454178 2.99659)
(0.343373 -0.251384 2.22583)
(0.350848 0.433361 1.64579)
(-0.0252767 -0.0755371 2.58489)
(-0.0932522 0.142242 2.48826)
(-0.378547 -0.28417 3.27031)
(-0.0186127 0.199536 2.27592)
(0.625958 -0.0218963 1.92648)
(0.166426 0.626566 2.89663)
(0.347282 0.20186 2.49506)
(-0.920444 -0.845347 0.146779)
(0.239856 0.196727 1.98612)
(-0.0184464 0.342727 1.66128)
(1.02407 0.701654 2.95865)
(-0.463346 0.54609 2.32998)
(-0.049866 0.591557 2.6882)
(-0.339167 0.586979 2.01758)
(0.204501 0.794776 2.50914)
(-0.399721 0.551973 2.73694)
(-0.307723 0.608717 2.38325)
(-0.331966 0.549488 2.14539)
(-0.234521 0.675778 2.12806)
(0.725151 -1.46972 1.72074)
(0.420404 0.537081 2.58039)
(-0.0882345 0.727707 3.77758)
(0.0980745 1.10619 2.98932)
(-2.91376 -2.77958 -2.89286)
(0.386864 0.205099 2.33201)
(0.0686458 0.744665 2.77906)
(0.367398 1.22771 4.79172)
(0.0138287 -0.0403849 2.83346)
(-0.233429 0.195883 2.93176)
(-0.679312 -0.765604 3.74744)
(0.340044 0.339765 2.6629)
(-0.044148 0.0834902 2.56085)
(0.258591 -0.167211 1.67485)
(-0.0592401 0.155613 3.53584)
(0.135441 -0.11785 2.50456)
(-0.116471 0.223854 2.56791)
(0.103502 0.327104 1.50463)
(-0.0151349 0.437633 2.87209)
(-0.0542364 0.502038 3.02849)
(-0.068121 0.312059 2.29095)
(0.0880525 0.442066 1.08694)
(-0.024622 0.497276 3.06545)
(0.252288 0.348729 2.02187)
(0.0310467 0.478544 3.10527)
(0.094873 -0.168254 2.35184)
(0.595655 0.440515 1.61419)
(0.208964 0.553819 3.11183)
(0.190371 0.46046 3.30655)
(1.18233 0.821869 1.41542)
(-0.439787 0.267543 2.52674)
(0.385401 0.228006 1.18046)
(0.346104 0.757293 3.23963)
(0.472654 0.797475 3.77153)
(-0.122786 0.076717 0.604718)
(-0.250224 0.603214 3.67653)
(0.125323 0.836547 3.33244)
(0.0738467 0.459655 3.03089)
(0.00505943 0.47339 2.95502)
(-0.165104 0.0373382 2.80599)
(1.49573 1.45047 0.955264)
(-1.2335 -2.33532 -3.75683)
(4.19677 0.425039 -1.69827)
(-2.5547 4.77605 -3.01198)
(0.331948 1.31762 3.09664)
(-0.221623 -0.55568 -2.10204)
(2.37559 1.28994 -0.0579561)
(2.00168 -1.52752 -2.1226)
(0.341199 -3.10548 -26.8601)
(0.107629 11.2817 -41.4104)
(0.507416 0.141507 -19.7603)
(4.30581 -0.143985 -53.6266)
(5.95001 0.702989 -45.4599)
(1.85772 1.55723 -42.6974)
(2.82798 0.609316 -49.0026)
(-0.402178 4.20153 -44.9912)
(-0.335763 -6.15221 -7.05184)
(4.08719 -2.12006 5.92473)
(3.11857 0.539799 1.844)
(3.89171 -0.0939645 -3.78929)
(2.50436 -4.64855 -4.7649)
(3.41544 -2.68838 -0.940129)
(2.83655 3.43251 -2.87387)
(2.62134 1.01784 2.85535)
(-8.18326 -9.57205 -38.9931)
(4.49952 -3.95988 -56.8866)
(10.3674 3.49392 -44.9806)
(0.481879 -12.2318 -77.8424)
(5.8876 -11.964 -68.6502)
(3.93833 -7.00624 -63.767)
(3.29201 -9.10449 -66.8604)
(-2.67566 -3.76762 -59.7202)
(-0.649235 1.38415 -16.0365)
(-3.66073 4.28416 -5.28235)
(-0.109015 4.63048 -9.19197)
(7.07527 -3.67386 -60.7528)
(-0.910652 -3.0455 -24.2914)
(-4.55687 -2.50616 -10.592)
(1.57355 -4.81654 -36.1032)
(-1.84848 -3.70748 -20.5996)
(0.585403 -3.99732 -23.6313)
(5.08147 -1.72817 -56.5146)
(2.36703 -1.25715 -24.9669)
(-3.59106 0.84562 -12.9265)
(-0.362891 -7.71303 -31.5786)
(0.532779 -0.123359 -42.6604)
(-0.363329 -1.98489 -17.8431)
(3.6062 -3.2484 -30.1769)
(-1.14505 1.60481 -17.2671)
(-4.68448 5.37649 -13.4963)
(4.14384 -3.3354 -57.8142)
(6.21025 7.46764 -33.0558)
(0.235051 -5.65495 -24.6777)
(-4.06099 -10.6056 -39.263)
(3.2923 -4.45908 -40.3452)
(1.3367 -6.04888 -59.0958)
(1.32445 -3.25239 -21.3317)
(5.91495 7.08055 -0.241886)
(-2.07826 1.04771 -44.8249)
(0.0882012 3.64255 -12.6556)
(-1.147 2.69924 -20.6277)
(4.48342 -1.15439 -31.6868)
(2.52237 4.10154 -24.3371)
(3.60091 -1.23262 -29.7441)
(2.95164 1.72762 4.08431)
(2.48288 1.09815 4.28679)
(2.5898 1.45286 3.86309)
(1.09812 0.821634 4.15043)
(2.67809 1.19914 4.45217)
(2.62798 1.25571 4.0714)
(2.55154 1.1601 3.9064)
(2.54238 1.03911 4.04651)
(1.79826 0.317347 4.88117)
(-0.69848 -0.290243 2.24936)
(0.204349 0.399537 3.29713)
(-0.802336 0.766553 2.08528)
(-1.1751 -0.597542 2.1575)
(-1.13303 0.635699 2.31143)
(-1.38302 0.564724 1.71537)
(-0.873628 1.62475 3.08682)
(1.89939 0.824958 4.30587)
(0.195065 -0.690245 3.58245)
(0.17567 0.552005 3.48784)
(-0.570128 -0.626821 2.77308)
(0.67555 -0.578974 3.75932)
(0.14018 -0.433438 3.74662)
(0.500812 -0.290823 3.47516)
(-0.0138098 0.226434 3.43327)
(-0.0306053 0.35542 4.32064)
(-0.233465 0.0576725 2.52279)
(-1.10283 -0.522429 2.97989)
(-0.0416798 -0.255408 1.44388)
(-0.910713 0.281336 2.57818)
(-0.475197 0.107829 2.61239)
(-0.270177 -0.135132 3.25764)
(0.25896 -0.533899 2.87983)
(0.682412 0.389618 4.43431)
(0.595058 1.92188 3.67658)
(0.795699 0.508008 4.40413)
(-0.400651 0.963391 2.60062)
(0.921365 0.542394 4.20264)
(1.0932 0.951598 4.24237)
(1.06696 0.48374 4.25573)
(1.07863 0.504432 4.09316)
(1.19457 0.459582 4.26561)
(-0.546701 0.702227 2.45764)
(0.215853 0.156643 3.40127)
(1.32335 1.01478 4.17417)
(1.47457 0.660317 4.28845)
(-0.475186 0.365701 2.31206)
(0.540332 1.59433 4.26438)
(-2.77163 2.59168 2.46219)
(0.959478 0.922117 4.06046)
(0.96445 0.372179 4.06867)
(-0.229395 0.315859 2.2812)
(-0.607196 0.0174177 2.97909)
(0.180964 1.76579 3.89088)
(1.19757 0.413009 4.07225)
(-1.68447 1.65838 2.17695)
(-0.531028 0.0571712 2.68051)
(1.62918 0.63005 4.41609)
(0.334577 -1.39328 4.28827)
(-0.189649 -0.212878 2.20978)
(1.83558 -1.8322 4.21581)
(-0.250858 -0.747025 2.89975)
(-0.0458573 0.17632 2.98018)
(-0.139648 0.190849 2.93185)
(-0.175191 0.202154 2.91707)
(0.56486 0.486379 1.44895)
(0.739295 0.183475 0.884634)
(0.0784715 -0.054812 2.09419)
(0.306097 -0.108194 1.34117)
(1.87755 0.216687 0.634511)
(0.683159 -0.290873 0.553164)
(0.574497 0.208806 0.49362)
(0.352831 -0.0910928 1.97543)
(-0.489734 -0.432174 2.3546)
(0.224878 0.194073 2.20539)
(-0.101271 -0.0976762 2.70068)
(-0.0446312 0.000147272 1.99064)
(0.0736525 0.105114 1.50546)
(0.1618 -0.113394 1.66519)
(0.579436 0.0235345 1.24196)
(0.228081 -0.147805 1.83981)
(0.339331 -0.227147 2.35547)
(-0.196811 -0.167624 3.03619)
(-0.162017 0.104707 2.3047)
(-0.109058 0.119824 1.40832)
(-0.239617 0.199177 2.55478)
(-0.0148307 -0.263709 2.52323)
(-0.282029 0.00818342 1.99679)
(-0.156378 0.0633081 2.01431)
(0.173187 0.0187559 1.13854)
(0.156315 0.0273221 1.16057)
(0.100401 0.00267134 1.12687)
(0.0816932 0.0172635 1.04874)
(0.122598 0.0372356 1.06023)
(0.172359 0.00114861 1.08912)
(0.109183 0.0201473 0.943005)
(0.155894 -0.031808 1.05215)
(0.624975 -0.0575117 1.54626)
(-0.952666 -0.224015 2.9503)
(0.243598 0.0744073 1.35423)
(0.160426 0.00482584 1.42967)
(0.383034 0.0605703 1.24437)
(-0.0727502 -0.0315313 2.06599)
(0.205711 -0.025164 1.44947)
(0.198992 0.0525485 1.49298)
(-0.384315 -0.497511 2.49324)
(0.304349 -0.0883309 1.41925)
(0.0685852 -0.316394 2.22014)
(-0.744181 -0.0782219 3.18578)
(-0.631244 -0.431969 2.69881)
(0.467408 0.0631725 0.939762)
(-1.14488 -0.733685 3.50177)
(0.0188135 0.0831742 1.71583)
(-1.03528 0.0144692 3.41766)
(0.155868 -0.099713 1.09665)
(0.300513 0.0157409 1.07947)
(-0.0681222 -0.0490263 1.51598)
(-0.504439 -0.0771922 2.36213)
(0.0561871 -0.0781581 1.55315)
(-0.145798 0.00641244 1.99111)
(0.162789 -0.131661 1.25789)
(-0.626071 -0.0686216 3.19198)
(-0.0988162 -0.0388721 1.46608)
(0.161115 -0.111256 1.34875)
(-0.0514605 -0.0780852 2.39338)
(-0.242005 0.208735 2.43298)
(0.0810799 -0.106214 1.81765)
(0.0606557 0.058734 1.77568)
(0.0624366 -0.0530026 1.29173)
(0.0382636 0.126488 1.01383)
(-0.0992821 0.228283 0.968614)
(-0.035435 0.241513 1.19255)
(0.0466636 0.165516 0.825668)
(0.0323228 0.0378739 1.00805)
(-0.081779 0.186711 1.06797)
(0.0176443 0.182691 1.18646)
(-0.0669043 0.221451 1.1521)
(-0.119404 0.672424 1.58134)
(-0.41944 0.287855 2.41468)
(-0.262013 0.533898 2.7447)
(0.576159 0.276038 2.12984)
(-0.152671 0.710257 2.39368)
(-0.273826 0.521159 2.36064)
(-0.266249 0.660191 2.7467)
(-0.193248 0.346314 2.86333)
(-0.107864 0.373152 1.61561)
(-0.627405 0.522414 2.16929)
(-0.547972 0.637271 2.15491)
(-0.354039 0.377512 1.51546)
(-0.354993 0.567763 1.69446)
(-0.499177 0.519505 1.95277)
(-0.368037 0.535965 1.96103)
(-0.501262 0.462638 2.08421)
(0.144214 0.0503449 0.0576137)
(1.29321 0.706272 2.84328)
(0.217063 0.321853 2.08329)
(0.383684 1.82131 2.85559)
(0.233951 1.37421 2.91161)
(0.180402 0.804821 2.5061)
(0.171486 1.41782 2.82896)
(0.239097 0.588883 2.90591)
(-0.0848486 0.406936 1.50765)
(-0.0451944 0.397482 1.37024)
(-1.49836e-05 0.0414354 1.08393)
(-0.348752 1.32891 2.64215)
(-0.0669037 0.498405 1.81041)
(-0.0706612 0.419877 1.53216)
(0.0188631 0.823302 1.30819)
(-0.0857027 0.602231 1.53739)
(-0.173158 0.501243 1.69182)
(-0.15197 0.477638 2.50619)
(-0.394789 0.448846 2.43394)
(-0.180713 0.484625 1.58319)
(-0.0801637 0.631827 1.77639)
(-0.387546 0.774004 2.42637)
(-0.177636 0.49192 1.66713)
(-0.340755 0.76136 2.05488)
(-0.117111 0.348658 1.51212)
(-0.166596 0.167315 1.32391)
(0.082884 1.26809 3.15891)
(-0.0910786 1.07174 2.28574)
(-0.11396 0.453371 1.40214)
(-0.157785 0.746278 1.34694)
(-0.196442 1.33716 2.34138)
(-0.456046 1.30774 2.60912)
(-0.205482 0.36046 1.58255)
(0.151512 0.643189 2.21503)
(0.417942 0.382455 3.20652)
(-0.320471 0.47032 2.34965)
(-0.529825 0.685443 1.86711)
(-0.231972 0.522842 2.71006)
(-0.11287 0.716154 2.57182)
(0.213861 0.355345 3.45716)
(0.155067 -0.00485966 1.06112)
(0.271912 0.0120073 1.16139)
(0.239821 0.0727706 1.14769)
(0.144687 0.0146622 0.976674)
(0.177479 0.0433732 1.10346)
(0.250342 0.0655249 1.09528)
(0.125396 0.0511631 1.08499)
(0.235178 0.052235 1.12728)
(0.383747 -0.0195693 1.33025)
(0.306576 0.0316048 1.35172)
(0.168516 0.11178 1.7095)
(0.256553 0.0476959 1.29622)
(0.378233 0.0505811 1.3613)
(0.39954 -0.0228825 1.35572)
(0.192315 0.0543746 1.42695)
(0.309809 0.0359208 1.56436)
(0.099741 0.1707 1.43215)
(0.0375485 0.0902913 1.71116)
(-0.0865911 0.267282 1.79351)
(-0.050571 -0.0659543 1.53303)
(-0.00945504 0.0823563 1.46203)
(0.0467313 0.179394 1.67111)
(-0.166401 -0.0359847 1.50309)
(0.237679 0.190703 1.8706)
(-0.0612592 0.365578 1.33355)
(-0.631358 0.117383 2.01528)
(-0.648498 -0.0343739 2.39412)
(-0.798798 0.0358436 3.74084)
(-0.3945 -0.107216 1.78916)
(-0.408302 -0.163749 2.04891)
(-0.898826 -0.190935 3.16471)
(-1.13041 -0.189404 2.49724)
(0.351992 0.065519 1.19827)
(0.230192 0.134539 1.21118)
(0.227423 0.114514 0.964729)
(0.212911 0.43649 1.2216)
(0.199382 0.0907087 1.2503)
(0.224111 0.0675753 1.19171)
(0.185951 0.142065 1.13941)
(0.165268 0.198633 1.07074)
(0.356388 0.0715199 1.23249)
(0.195753 0.241105 1.33797)
(0.188256 0.204814 1.65666)
(0.170845 0.191271 1.35415)
(0.253679 0.0953616 1.29623)
(0.265431 0.0579194 1.42663)
(0.245053 0.1487 1.38771)
(0.131951 0.151698 1.50958)
(0.0353402 0.12659 1.25917)
(-0.044386 0.162543 1.20021)
(-0.259284 -0.0639994 1.72548)
(-0.531497 -0.285001 2.17261)
(0.0122117 0.161233 1.30362)
(-0.0979519 0.135392 1.11987)
(-0.242439 0.00180769 1.54763)
(-0.192641 -0.0939336 1.43396)
(0.0302562 0.204321 1.42887)
(-0.156389 -0.155826 1.58195)
(-0.104049 0.0688253 1.28243)
(0.199593 0.133632 1.67312)
(0.0327054 0.0546289 1.48957)
(-0.22286 -0.0976747 1.71029)
(0.0345463 0.191203 1.66375)
(-0.0698912 0.13929 1.49245)
(0.292446 -0.0460622 1.39168)
(0.0280606 -0.274591 1.72424)
(0.0946376 0.00552201 1.30299)
(0.359862 0.00809256 1.33763)
(0.32362 -0.00857958 1.41569)
(0.212493 -0.163879 1.62303)
(0.359047 -0.0506196 1.36475)
(0.199542 -0.107314 1.31253)
(-0.223846 -0.666058 1.96076)
(-0.470234 -1.17689 2.40089)
(0.153639 -0.540501 1.3642)
(0.0588123 -0.22225 1.35345)
(-0.187026 -0.75893 1.76848)
(-0.396518 -1.08339 2.17559)
(0.0376654 -0.287169 1.36158)
(-0.137473 -0.629553 1.36607)
(0.152172 0.0913289 1.63356)
(0.265699 -0.193336 1.60282)
(0.221417 0.044528 2.20811)
(-0.185023 -0.19241 1.33369)
(0.124326 -0.389919 1.51502)
(0.137537 -0.055326 1.82854)
(0.172425 -0.336853 1.53124)
(0.304386 0.0206529 1.93243)
(0.263624 0.0273784 1.1528)
(0.231478 -0.0505852 1.11741)
(0.117386 0.00894464 1.03982)
(0.177143 0.0378351 1.0508)
(0.233333 -0.0333794 1.09014)
(0.203629 -0.0156786 1.12458)
(0.186656 -0.00546322 1.08409)
(0.13279 -0.00892703 1.03479)
(0.099077 -0.320852 1.55182)
(0.237454 -0.139344 1.25996)
(0.340675 -0.069643 1.23834)
(0.228629 -0.149411 1.29137)
(0.251102 -0.137884 1.39189)
(0.209758 -0.0869987 1.3417)
(0.208906 -0.118309 1.31914)
(0.192402 -0.0620495 1.26734)
(-0.0656505 -0.571084 1.76906)
(0.130023 -0.158282 1.35019)
(0.194258 -0.253917 1.41858)
(0.114629 -0.0331594 1.31869)
(0.106806 -0.241077 1.36341)
(0.0981101 -0.270551 1.42311)
(0.153414 -0.234829 1.4733)
(0.105385 -0.218759 1.31208)
(0.218399 -0.0570963 1.16349)
(0.34678 -0.0546628 1.22423)
(0.196395 -0.119343 1.17993)
(0.277596 -0.0958475 1.07946)
(0.206395 -0.0978442 1.18156)
(0.171876 -0.0721941 1.20084)
(0.228049 -0.0148543 1.16231)
(0.208957 -0.0746302 1.14781)
(0.110898 0.0876997 1.26647)
(-0.065746 -0.0444816 1.1463)
(0.178384 -0.168365 1.28789)
(0.209777 -0.121949 1.21713)
(0.0463558 -0.0578643 1.24691)
(-0.0296655 -0.0194924 1.27105)
(0.147663 -0.110117 1.36424)
(0.104308 -0.0213238 1.26051)
(0.2161 0.0313629 0.891931)
(0.778348 0.120357 1.68016)
(0.438228 0.0468499 1.49422)
(0.310394 0.196554 1.27473)
(0.376894 -0.0472312 0.989122)
(0.681673 -0.0391931 1.30586)
(0.161466 -0.170626 1.02768)
(0.320644 0.0296209 1.46033)
(0.928604 -0.0147581 1.90824)
(1.30874 0.11333 2.59347)
(0.405712 -0.502197 1.95624)
(0.171477 -0.467257 2.10597)
(0.982729 -0.0384253 2.3905)
(1.25837 -0.0140645 2.49683)
(-0.0278128 -0.583791 1.8205)
(0.425377 -0.498104 1.92669)
(-0.0559535 -0.749758 1.75658)
(0.00185947 -0.994366 1.77938)
(-0.427712 -0.324322 0.467675)
(0.359775 -0.0233667 2.68876)
(0.0574592 -0.98509 1.92835)
(-0.0084234 -1.0405 1.93179)
(-0.213656 -1.03109 1.4817)
(-0.463528 -0.880497 1.80803)
(0.237773 1.02365 1.64447)
(0.274437 -0.144556 1.96143)
(0.597634 0.06046 3.79028)
(1.04721 0.0378499 3.45991)
(-0.175172 0.225439 1.98587)
(0.214676 -0.210669 1.977)
(1.06499 0.267242 4.57419)
(0.905357 -0.138276 3.36835)
(0.644074 0.126491 1.71252)
(0.141289 -0.162188 1.56038)
(0.509388 0.68028 1.81378)
(0.424697 0.129437 2.23358)
(-0.0411516 -0.555213 1.67172)
(0.0183974 -0.292432 1.51785)
(0.291761 0.274362 2.03498)
(0.388518 0.384501 2.03813)
(0.710839 -0.157391 1.89488)
(0.227669 -0.36261 2.21608)
(0.273701 -0.575097 2.07976)
(0.152625 -0.44847 1.78444)
(0.22217 -0.403544 1.71745)
(-0.102039 -0.700592 1.86678)
(0.220568 -0.375753 1.78106)
(0.207946 -0.707947 1.91518)
(-0.250031 -0.502438 1.56634)
(0.572186 0.872927 2.04334)
(0.40495 0.444453 2.4693)
(0.680579 0.145568 2.7983)
(0.300993 0.506672 1.85063)
(0.17354 0.756699 2.40753)
(0.669633 0.126973 1.82548)
(0.250162 0.384922 2.2801)