/*--------------------------------*- C++ -*----------------------------------*\
| =========                 |                                                 |
| \\      /  F ield         | OpenFOAM: The Open Source CFD Toolbox           |
|  \\    /   O peration     | Version:  2506                                  |
|   \\  /    A nd           | Website:  www.openfoam.com                      |
|    \\/     M anipulation  |                                                 |
\*---------------------------------------------------------------------------*/
FoamFile
{
    version     2.0;
    format      ascii;
    arch        "LSB;label=32;scalar=64";
    class       volScalarField;
    location    "1900";
    object      p;
}
// * * * * * * * * * * * * * * * * * * * * * * * * * * * * * * * * * * * * * //

dimensions      [0 2 -2 0 0 0 0];

internalField   nonuniform List<scalar> 
49216
(
247172
185338
111262
90440.9
199043
167404
121983
108447
161143
121378
58717.4
52420.2
138301
112832
80175.7
85363.6
59688.6
33136.2
23995
9263.99
64694.9
55482.6
32736.8
16039.2
14739.2
33767.3
11967.9
13172.5
35152
29170.9
18504.4
17017.2
193526
118295
41783.2
39841.4
98018.8
98325.2
51409.6
45257.1
133516
46356.7
87557.2
87529.4
97657
76511.7
89500.3
104341
24312.2
32175.5
36064.8
-12838.4
45676.9
53661.8
9309.55
37477.4
20352.1
-6126.76
47393.3
33672
15253.9
8286.62
26117.4
5672.33
201097
106808
161579
95217.1
154219
159010
136122
122248
33889.2
47158.8
21955.4
11579.1
35952.4
23525.5
25677.8
18726.5
66220.2
10452.6
38862.6
17068.5
24814.7
27872.3
28323.1
28665.4
8052.41
4112.6
15585.2
5621.2
16109.7
-507.276
13477.5
3522.42
79962.4
83168.8
54417.5
26319.1
56743.8
73988
43197.4
39018.4
85774.8
20581.4
23353.5
78799.5
49338.4
32246.2
68793.3
23996.6
60196.8
44890.8
4742.77
6451.4
42623.9
37315.8
15112.5
15922.4
56967.4
-1395.89
-2631.33
14668.4
18473.1
7291.49
15607.6
1064.77
37659.4
15613.2
7883.15
9100.9
20178.3
12670.3
9385.71
-3249.22
7813.61
407.67
-1861.61
-4635.53
-1230.45
1581.13
-3340.74
-1244.5
4127.27
4103.21
33866.6
12210.9
-1837.68
5933.01
21076.1
29672.1
619.887
-1083.62
2767.82
-2532.73
-1550.27
-3145.59
471.696
-2674.54
189.596
-3984.77
-487.382
1203.52
-4977.63
-256.031
-3710.68
546.717
1794.07
-1563.13
-4100.06
5957.87
-5650.76
-3107.73
-2276.87
-3508.49
-1105.2
-242.984
-1107.79
11937.9
-705.459
-901.914
621.598
-806.5
1082.41
15444.9
-7188.16
-6020.73
-2299
4601.29
-5528.21
-30843.9
-24855.2
-4027.9
10549.9
26752.1
-16054.1
-26047.9
6335.3
-14366.6
-957.669
-1408.19
-2236.65
-4333.01
-547.819
-810.734
-8445.75
-3295.12
-2046.89
-10205.6
5946.91
2902.53
-3110.72
-7.65773
9997.26
10771.6
-3490.3
-9087.1
-7967.92
122.326
-6496.02
-6519.44
-6323.05
-8865.71
7348.25
-17804.4
-2146.75
-10282.4
-14966.2
-6528.91
-13796.1
3200.41
3685.77
-6417.95
-12000.5
-518.783
-3106.14
-8754.29
-16361.3
-13200.2
-10602.1
-15293.2
-8333.89
-10058.6
-7190.12
-17493.2
-15656.1
-16116.1
-13518.9
-3545.1
-5956.13
-7718.08
-14319.4
-11133.3
-7285.19
-12263.6
6022.13
4797.9
26181.1
1543.81
10695.4
8313.92
7623.69
15956.8
7028.33
5040.66
29334.9
7862.94
21916.3
5399.43
24240.2
24861.1
27287.9
42312
27516.8
21221.2
32464.5
38290.4
27097
33601.2
-2251.78
10450.2
12742.3
4786.27
-2291.74
7640.64
5067.91
6365.68
13720.6
27174.1
5504.33
15968.3
20249.8
20436
9632.33
10034.2
14198.7
11964.4
26572.7
24135.4
21650
26533.6
24639.7
31728.7
19564.6
4992.54
17349.3
14090.8
12469.8
13205
15592.5
14804.2
27205.7
22152.7
20998
34225.3
27888.8
22216.7
26911.8
24716.3
89.0684
-364.726
1425.92
335.906
-342.475
-35.0207
-628.478
415.663
-1438.25
475.487
-2014.84
-2160.07
-1389.56
-2597.79
-373.455
-1292.27
42.9989
-1864.78
102.076
1440.21
-399.899
-1860.25
-188.24
-609.195
1442.96
-5239.71
196.196
4661.78
371.89
-2681.59
1533.27
-18.9162
-1284.68
102.941
158.563
-3669.57
-1708.84
-358.579
-1690.95
-509.265
89.304
-215.581
-1305.56
1355.99
-702.649
-1630.04
275.493
-1247.5
-36.338
165.279
-4920.44
-570.164
1506.75
274.15
-536.843
-1067.65
1307.81
1440.32
-1042.67
-513.965
221.979
1118.41
13.3498
-2652.45
-157.932
225.883
-1071.06
1205.03
-338.436
194.663
-1034.13
-53.8492
183.895
5180.94
-8493.12
2574.49
1542.76
2223.51
1986.65
3385.06
-1846.84
-5240.8
-680.448
-2516.12
-1381.42
-2460.13
-2601.7
-2417.29
628.848
365.628
-6690.78
1040.93
1741.19
1369.49
1218.51
1677.24
991.369
-1993.76
1237.2
-954.437
650.774
-612.578
520.115
448.485
804.369
-1149.83
-6436.38
-1924.24
-1287.37
-3382.95
-2762.43
-3902.75
-2363.23
525.769
-3278.86
-4397.52
1274.18
734.586
-2721.03
-1142.35
-692.567
-5339.73
-5234.68
-5776.6
-110.851
-3663.26
-4205.69
-5089.11
5883.24
-2001.87
22067.1
2811.58
3593.46
6206.87
7671.64
12947.2
-3063.39
-475.064
7062.01
-4069.58
-2863.66
160.166
-4782.71
-1383.28
26358.5
18744.4
30885.6
14614.3
22190.6
23502
25524.6
26551.3
-3829.56
-1199.3
-1120.4
-2149.46
-3684.24
-2824.24
-2271.88
-2047.56
-903.503
17392.4
-590.535
-2715.81
-1992.79
4605.73
-5418.39
-418.189
1441.81
-1376.16
6910.34
16742.9
4833.52
-904.629
7936.88
4481.59
21905.9
278.787
-2045.03
6712.78
9397.73
901.971
6968.07
647.461
21699.2
2312.41
-2295.81
7368.24
11743.6
4423.43
4086.57
-4850.82
75.22
2549.86
83.6648
-6005.31
857.662
966.17
2152.93
1966.2
1367.93
1031.6
-977.608
-2937.2
-2041.83
-2641.42
-2646.78
-840.172
-318.812
-370.485
-83.5852
7.01542
-772.763
-428.294
-226.096
-150.832
-7101.11
-4757.5
861.647
5957.06
-7048.69
-4936.74
-6.82456
-1287.68
3142.08
-913.456
-4754.6
-6651.37
1476.37
4.06496
-4140.36
-3081.67
1108.26
-4844.39
-860.403
-129.404
1767.4
-1872.58
425.794
-1318.03
-1087.37
-4364.51
-2523.06
-814.251
-1719.99
-3023.47
-3066.02
-3953.16
-704.767
-57.5591
-2815.14
-1406.32
-1367.63
-1909.42
-1328.04
-1478.07
68605.1
45982
18068.6
-572.482
-2006.12
33012.8
-13583.3
19106.9
8985.07
26381.1
37374
457.491
2884.23
30783.8
860.676
19682.2
38230.7
45107
57379.1
9222.25
26879.8
57627.4
26449
40186
13140.7
3007.38
5442.3
3836.08
10175.1
4516.99
9446.17
5392.37
-6224.69
17495.3
16229.9
4282.1
-4207.72
3542.43
42.0304
13521.4
38182.3
3358.89
44993.3
37079.6
1096.03
-18064.8
19381.5
6885.37
13095.7
12629.5
5716.8
8778.54
10998.7
8574.26
13058.1
4141.19
24868.1
11383.8
10174.4
21455.2
5665.4
9542.09
6712.74
7848
2784.32
2379.6
6104.46
-2165.04
154.003
168.737
-327.602
16.0142
329.653
2074.31
490.214
5890.88
-7400.8
-11237.1
-7951.41
-4710.57
6658.18
6140.44
6216.55
9441.31
1670.71
-1900.66
6264.97
5104.26
-1191.44
3601.76
8067.97
3471.45
3764.01
5965.93
5458.49
7857.78
-869.147
353.897
-577.24
1784.33
-460.264
2911.26
-2147.39
2406.87
917.114
-713.234
-436.233
841.062
-1284.03
1314.67
2444.89
-5060.82
2665.07
18.8347
2483.94
7381.27
7006.05
3532.72
6247.42
1142.69
1672.19
8192.16
7971.55
5263.92
11002.5
5854.68
1445.24
5643.32
20334.7
41691.8
15092.1
19758.3
22162.8
24418.8
19367
15355.5
30529.7
24066.6
12379.8
6857.72
21681.9
24070.7
8266.57
11821.2
695.611
9253.51
-4241.22
7355.73
4950.86
7917.68
-9799.31
-1970.72
8241.36
5739.63
5185.9
-1054.74
5715.03
7874.31
1953.03
4430.2
34475.4
15674.6
23472.7
15882
19835.8
16541.2
12467.9
23713.6
28112.4
13116.9
12447
12197.7
19148.3
12813.4
18995
15409.6
5906.25
15247.9
5887.19
11978.6
10754.5
14978.6
11710.7
5129.17
5888.23
15061.5
5916.78
4856.72
5069.54
9958.11
3351.93
4632.8
203152
52952.2
8309.47
-277528
204238
40776.8
221717
149498
3143.81
-3292.36
-2452.88
-4547.73
5636.51
-2778.53
8763.8
6801.07
128.222
3355.29
1249.59
-12340.7
9371.5
3201.95
874.419
3075.05
47403.7
-20521
-14163.9
-802.173
-10035.8
-20992.4
-17012.6
-11837
61621
-20379.6
-127068
-15207.9
49720.8
53288.2
-88203.9
-39304.4
27691.2
-6878.54
5342.18
5968.38
25472.7
10972.7
-4197.11
10616.5
-74273.3
-40951.6
-13226
-14422.2
-40351.4
-3814.87
-7091.27
-3081.26
-10758.7
-3042.29
-7530.33
5935.28
3114.45
-10876.9
5542.28
-5146.67
47900.4
16839.2
-319.294
13890.4
16319.1
-1478.3
-31141.9
11757.1
-2552.7
751.605
-1062.76
-3184.23
-2153.21
-2964.23
-799.822
-747.368
-743.564
1863.75
15339.4
1565.99
-11906.7
7483.23
-17597.6
3031.76
13122.6
7646.88
5476.69
-1589.48
12599.2
8498.18
9178.59
4865.91
39540.8
-2693.65
18450.4
2793.15
14202.9
-15236.6
-7547.57
4086.17
-10495.6
927.139
-346.768
-3108.21
1260.67
-1087.94
-2233.59
-7225.92
-10708.3
11895.7
6043.05
5656.08
2984.1
13488.3
2936.5
7135.61
3241.56
-2828.54
2583.47
-3585.48
-10511.2
-3412.29
-7857.18
-2246.54
-860.106
3956.77
-1514.36
-5136.87
-1836.69
-1664.7
-1277.15
-1863.06
6976.69
21542.1
3073.7
2641.74
7427.85
11959.2
691.643
1986.22
647.033
-1390.48
1782.86
-738.678
534.365
-321.657
1143.21
469.87
-852.96
6536.9
6675.4
-1205.86
1135.83
4277.14
-624.659
2622.04
2372.08
449.554
2144.78
1670.89
-885.514
-414.844
1787.83
909.219
1795.27
-610.898
135.427
672.139
-838.992
-3.63608
-346.183
-800.812
2588.46
3446.23
4443.86
3799.21
-162.436
1357.64
715.211
834.913
1339.9
248.26
472.681
-597.944
-342.855
-1668.57
-1349.7
-197.08
67700.6
50806.5
42439.8
15775.6
43317.8
56340.3
19406.7
28774.1
43283.4
37839.4
31446.5
1695.45
20104.6
22891.8
7824.2
28713.9
39397.6
30250.5
46243.3
16623
27342.2
29303.5
29517.2
24956.8
4642.86
7192.41
1827.76
272.398
4770.39
8465.44
2267.12
3585.69
30422.4
25955.3
11516.3
10302.8
6701.44
10194.1
5966.72
10072
50227.9
4986.86
32999.4
43088.4
27146.3
4814.56
44528.1
24509
8891.81
10631.4
13348.2
12688.4
7982.17
10775
8315.24
11576.9
28061
15036.6
9077.24
28170.5
14861.8
11274.3
13214.9
11700.7
26981.9
35260
41323.5
31433.8
31728.2
31302.2
34417.8
34638.6
35069.1
42060.7
40824.9
17135.1
40464.9
47422.1
30210.4
33805.5
32385.3
30542
34302.2
5809.8
22391.3
30553.5
16291.8
23953.2
8615.72
4878.62
8666.46
-2336.87
3913.09
9102.14
1912.34
5320.93
38108.5
32816.1
20222.4
21464.8
31829.9
33632.5
21173.8
19100.4
37114.5
21517.4
33828.7
35830.5
32033.2
27812.4
38259.5
30635.4
23761.5
14706.7
14239.8
10048.7
18877.8
18042.7
18870.3
14667.8
25882.6
12599
14410.9
29253.1
18795
16986.9
17424.4
18589
186452
20935.5
-109306
-70973.7
185032
296781
-109225
14034.7
1933.41
1883.27
-26158.6
-4297.58
5693.33
6855.13
-15796.2
-9064.78
-40526.8
-46215.1
-143919
-51301.9
4065.93
24882
-99453.2
-32576.3
34686.3
-14386.3
-15167.8
-3573.53
-12842.1
-11194.4
-11945.2
-8436.16
9539.5
-50700.8
-68648.7
19775.5
-104057
-147332
-52140.7
-82134.7
37326.8
21552.5
-40047.2
-47115.4
-43484.5
-7269.96
-125322
-17416.9
-53140.1
-9710.72
3083.87
-39819.2
58191
15777
-2519.01
-10685.3
5312.96
-20274.2
14984.5
-22215.8
28338.1
2278.18
6878.81
-3257.75
270.636
171.409
76.4225
-227.564
69.4531
-334.316
258.045
-214.394
1084.34
210.781
372.78
-1081.4
1501.56
351.709
127.239
192.309
-1283.5
155.736
-208.738
-410.696
548.151
-76.3675
1083.56
33.6423
-1256.42
-1758.29
-337.726
35.0335
-1108.21
-1157.92
-1325.29
-1193.26
471.92
703.15
-142.453
-500.39
116.589
-502.252
-1897.26
-1343.75
-86.4721
437.603
-415.102
-540.328
296.038
-873.022
206.084
295.847
1231.04
-328.579
-1269.26
-125.894
-826.466
-1046
-227.654
-2526.35
-3195.42
-912.645
642.158
-1128.3
-797.748
-821.555
-207.963
934.456
430.861
-826.472
1009.57
495.494
224.695
289.645
-24.4336
238.965
701.412
-184.236
-92.6054
-167.756
620.147
-162.281
-389.286
-261.078
608.037
351.901
303.299
-1190.29
482.714
339.716
470.186
-68.6274
-801.207
-234.822
-4358.16
-989.189
-883.909
-304.303
-1738.85
-2564.67
-240.1
279.473
307.681
-235.979
-186.593
19.76
781.733
662.689
50.431
-206.251
-39.1578
391.245
-297.499
-198.764
287.945
65.7695
780.19
-461.888
-841.082
-2001.82
-166.839
188.823
-275.715
165.074
568.984
-914.356
13.1486
112.125
776.527
654.57
285.127
811.252
157967
170863
199095
71116.5
98454.6
182685
79687.8
117548
200422
267095
222587
103921
182039
244276
120983
184576
302191
230122
225419
151937
251575
216845
279247
244899
34175.5
14819.6
62979.2
23387.4
16546.6
21682.2
30160.3
33158.8
128086
167015
51300.9
69397.6
107581
109453
77992.8
75915.3
194433
104556
222914
204201
153242
126133
197166
159001
183363
14683.8
48118.3
90317.3
126839
66837.5
109529
51697.9
193570
122885
91929.4
184627
143181
121883
143304
124910
25699
13504.9
32270.8
13483.7
17953.1
10611.5
22516.4
11643.7
16767.5
48529
38555.6
5151.42
9428.98
-4940.38
5831.51
6201.92
49941.4
49199.1
79811.4
19365.2
20490.4
31635.7
18588.5
38541.5
9037.4
12665.9
7403.71
-198.235
9522.49
10121.3
9112.28
9161.54
13249
12908.1
18406.6
10638.7
15774.9
5983.87
7228.47
1733.29
12297.5
2847.38
24243.1
16402.9
21571.4
2576.43
22701.8
19356.9
13413.9
17420.3
8587.61
13450.4
26890.8
5011.34
16199.4
5806.84
16776.7
3053.78
9638.09
29113
4089.39
7942.74
17644.2
14353.1
204715
184017
192427
108829
167413
176972
118649
139956
98926.7
61491.3
92616.7
29859.4
62123.2
79238.1
53594.4
58662.4
196393
103474
203473
104935
178947
171740
189407
196164
21023.3
17399.7
49285.2
7949.76
30356.7
37625.9
19300.7
25877.3
105122
153137
78286.2
35200.1
82499.6
105294
62845.9
94354.6
128387
50470.4
115796
159106
90229.6
63272.3
141263
104362
135750
58767.9
38237.5
88355.1
98516.5
79087.4
89338.3
51550.9
156867
95417.1
45853.1
99280.8
108925
95579.2
92959.8
53373.3
26601.6
27407.8
13592.4
2267.76
12275.7
16598
13757.1
17572.1
37314
64040.7
51859.7
15055.9
28714.3
49159.7
18674.6
33721.9
-6550.8
39291.5
30942
14212.2
-17793.4
16880.8
9166.51
21653.1
3923.85
8111.91
1456.07
221.639
58.4548
4691.7
1831.42
2606.32
16856.7
12207.9
5175.95
4061.9
9889.65
15126
6791.64
11442.4
24408.6
15664.9
30215
16068.9
26550.1
20388.3
17613.6
10379.9
5495.31
17188.8
11210.4
-221.702
-210.995
9371.74
-98.148
10333.7
-3278.78
8746.57
13099
13105.8
8827.28
7166.4
10006.3
8881.45
23216.8
35325.8
37894
18936.1
17700.6
19473.4
24061.8
27865.2
42604.5
40875.5
66915.2
47971.4
47224.9
52556.8
55319.8
63731.6
35679.5
63317.2
36651.8
30378.8
49831.5
59790.7
41215.2
56468.6
16599.2
31400.7
17362.6
10567.7
18935.5
27290.8
17162.4
22421.6
33742.8
36373.8
25233.8
43803.5
36017.7
37331.8
34788.5
22030.2
34024
42642.3
60073.8
40694.7
35735.2
52811.8
49961.1
55869.1
35081.1
22868.5
40374.5
30051.4
29156.9
26413.9
33801.7
33649.6
38881.9
34097.7
43703
64011.6
49850
38737.2
51175
44450.6
67227.6
102625
117357
80739.5
96481.8
88742
105763
114122
130183
67744.3
129908
112152
134675
57699.5
164667
143240
125775
142839
138145
136168
140307
144232
154383
138654
90184
116151
105034
86545.7
79946.3
103527
81837.9
93115.3
105681
117393
92481.3
110195
127809
113836
105189
104260
88367.7
118390
120299
104228
141225
147693
124123
151055
126433
97935.2
138945
124954
111114
110809
121915
132784
125105
128812
125881
141963
138626
144216
151870
123972
17391.5
14786.1
33284
11414.7
10526.4
13488.4
11157.4
14386.2
12839.1
7297.1
21348.1
17644.5
5233.48
1383.84
-7013.55
-1104.45
40966.6
25822.1
37282.4
41310.7
37122.9
35107.7
46139.1
45364.7
9804.13
9350.61
20568.2
8023.44
14868.5
16077.1
21296.4
23812.8
10702.3
28003.8
16251.8
16606.2
6082.35
22582.6
9978.17
13647.9
10322.2
10420.3
25275.5
28949.6
9100.9
5687.35
26254.3
23924.9
31195
18517.5
16629.4
30874.7
26937.8
16974.9
33808.9
23393.4
34450.6
31360.3
20105.9
30352.7
40407.7
30236.7
29766.2
23654.3
70362.1
9726.01
11466.3
-83119.2
-21025.8
-52517.6
234771
29102.7
6914.27
2048.51
6953.13
-7324.7
1828.97
-11601.3
6520.8
3001.95
16791.5
6868.39
7240.31
-16712.8
17681.8
22714.2
10993.8
10961.4
-12272.7
-3981.67
11366.4
4323.81
-16727.6
-13803
7933.74
-5674.22
37645.6
16908.1
-44577.2
-9887.74
22531
1469.79
3553.08
-16901.8
-782.754
-8450.71
8463.1
25207.3
12047.3
7060.91
11086.3
16896.1
54748.6
51191.8
862.029
-3134.33
-66452.3
-8462.28
-15735.6
-416.387
36932.9
-6910.67
-7459.63
8774.14
1240.31
-10457.2
11652
-4442.07
2301.77
3673.09
-297.031
-5485.24
3105.42
3105.26
3270.78
-237.972
5014.85
2352.81
1267.44
-3420.54
2033.85
2715.61
1287.7
3127.64
36.1851
281.133
-42.0411
-10.8227
-27.7209
7.54644
-104.649
-58.4172
-108.694
-225.603
-1072.36
4545.07
436.834
-56.7611
-2057.24
-1148.39
2833.85
-39.8373
-4287.42
-3252.77
-504.22
-395.916
-4403.14
-3436.75
5372.09
33.6132
665.175
65.8863
980.533
-482.598
501.138
338.071
-87.9244
-5492.3
-112.661
-434.57
-186.391
-1193.58
-320.072
43.6791
93.0857
-286.514
-661.465
418.161
-61.2482
-80.7562
-38.6053
113.208
25315.6
93508.8
69613.3
65852.6
79947.7
54012.1
147130
99044.1
85517.8
53262.9
60578
42643.1
71374.3
66600.9
81569.8
73452.2
25609.6
67844.1
57082.4
89921.3
66471.4
60249.2
97530.1
103378
65051.8
49638.1
45574.2
13828.2
44991.4
45870.5
36761
37915.6
77578.1
69092.6
71604.2
55238.8
74899.4
87666.4
84745.1
81055.2
85859.1
48227.7
72254.3
65565.5
85713.5
76413.8
86531.2
74666.1
75793.9
66983.2
70672.8
86045.1
76998.9
73032.3
71062.7
71166.8
80039.3
71541
57267.2
91117.1
91505.3
65292.7
93010.2
65222.4
9027.74
18730.3
10387.1
15041.8
22757.2
11109.3
18716
16348.5
6664.17
-3401.4
1102.47
-1835.81
-2263.14
1561.61
6895.86
3100.55
8266.71
4310.29
4202.34
11281.9
9842.31
6850.32
7502.46
6029.17
6591.98
4422.9
1035.96
-2543.83
4574.25
4525.97
1276.64
1302.8
17860.9
18066.7
22732.9
14712.4
10236
11260
12774.5
17296.3
12110.5
11789.6
5741.33
9318.63
7184.57
7603.25
5665.94
12918.5
14200.2
17209.8
9500.27
11312.8
14255.1
18130.5
15288
10255.6
11023
12258.9
9653.16
7653.58
7928.25
13719.4
9419.02
9287.88
15993.7
14897.8
33446.9
22282
19947.6
18646.5
27651.4
28558.5
13215.4
8937.27
30641.7
9124.09
13333.4
11854.8
13205.3
14914.2
35204.3
28861.9
32131.8
18820.6
34394.1
35759
35410.7
34973.3
8346.07
1696.36
5014.78
-4567.61
3499.87
4362.39
2105.57
912.443
17818.5
32133.8
14927.7
10699.3
21252.5
29076.3
15295.2
16420.1
16289.8
9402.61
25309
32104.7
22554.4
18899.2
32243.8
28906.9
30329.8
15174.9
6783.21
14310.8
20829.6
16085.9
16616.1
12026.2
31875.4
15804.9
7597.91
22199.6
25805.9
17370.3
20865.8
19617.7
84612.2
139010
198624
215382
205688
223916
215513
240151
176328
160222
258554
205112
203456
209885
227821
240459
194679
260119
275766
367873
268646
297286
293022
328238
245522
208893
275199
375412
325897
330354
334452
369188
227329
207395
251662
196515
243124
221694
240041
303582
222470
233883
262484
233206
236297
256587
250528
296041
239555
256127
216618
314118
287536
328527
305388
304168
250655
428227
236666
290126
327785
407333
301500
228248
601166
799399
674658
644244
593656
777328
719345
688239
785238
746790
674863
733625
755797
719676
797691
717353
600374
562547
431958
460067
432729
499691
381504
490894
604787
623302
501086
513190
495891
577534
407302
506160
771239
638072
638502
660650
740642
715108
734304
722481
773459
667411
645695
641743
715025
746256
728816
656305
648320
631347
648610
440481
658603
681750
519930
637560
663743
474249
623565
609465
642214
534624
671107
608942
198930
110791
136121
113434
160676
167581
98306.8
126033
105590
55184.4
70975.4
33473.5
57349.6
61134.6
52735.5
54801.7
131141
67556.1
57059.1
41702
81287.4
77801.5
74732.6
65029.5
67100.8
16016.3
28856.6
12021.5
28906
33346.6
32299.7
24177.4
101097
106813
90251.9
48653.2
85066
96056.4
72451.6
71181.3
107065
41438.3
91288.5
94480.2
80176
41146.5
128582
77309.6
113922
77731.8
43501.1
53325
94468.7
69044.8
65763.3
39003.6
84973
55658.8
41207
74951.1
43876.2
62863.5
68786.9
37126.6
134985
132358
172615
138232
143142
121776
132949
154749
164288
238524
211607
130210
117052
274627
119195
154531
209943
227927
231745
211848
210888
260500
228883
231760
108376
113201
123884
75995.5
113084
115226
103282
105902
128067
158304
134724
138452
131360
152465
135231
152573
142040
154887
238506
209672
143119
165018
201053
195017
153848
103174
132253
163150
151676
135754
158477
120742
169176
178923
137155
176251
162051
171479
165229
150725
111337
-227895
30307.8
12062.9
149542
48346.1
-14479.2
-8649.26
70242.8
69033.4
10812.9
-63013.3
27093.9
41592
2987.8
35573.1
129953
11366.6
22032
-17978.8
-12576.6
-57344
1713.21
-1677.31
-18622.3
-28338.5
2704.48
6726.59
-8488.06
-39725.7
-13807.4
-7030.13
-109511
-591.952
34369.5
20693.1
-162020
-7832.75
7709.89
101155
1614.15
-57758.1
-46799.4
153658
-62812.7
-84398.7
-89041.1
-470.933
-346380
-127263
91164.2
-2577.46
-9915.31
-4049.35
1854.7
7541.1
-95986.2
-9861.98
28060.9
15940
-163951
-44655.6
-40952.2
-110476
69377.8
92915.6
42352.1
73709.7
87534.9
64006.3
81020.3
84668.4
113113
129174
67021.1
114913
117521
105064
91329.2
86691.6
28969.1
47624.6
10746.8
32662.6
41677.2
32809
22179.3
29492.8
60594.8
84245
49210.8
77433.1
69637.4
63955.3
51210.8
47604.5
103614
54403.6
78874
95689.8
83445
70682
86755.1
69972.3
91430.6
82592.3
50469.2
45951.9
81471.4
90132.7
52980.9
63219.2
57788.8
87062.9
83225.2
39452.9
39011.1
90023.6
58152.7
83476.2
59870
40396.3
83348.9
51589.9
57096.9
47963.7
54163.1
75355.4
4578.2
232.537
2073.48
-5266.33
5085.84
6386.37
45.085
3053.91
14.9769
-20.4874
-238.336
-265.717
-18.314
89.1826
-190.941
-91.8603
-1009.1
-176.171
-1469.53
102.033
-893.45
72.021
-2760.91
-875.417
3654.29
-1391.05
323.966
6165.65
1672.49
-1121.24
-1504.27
-113.447
150.965
1778.49
-5817
-682.953
-347.999
797.73
-976.932
-4638.97
510.809
-653.041
212.652
1553.76
58.9512
-308.154
260.344
17.6584
581.918
-4059.86
-1186.98
-5857.22
-4675.8
-4930.18
-4183.88
-3338
269.356
-4054.61
-801.382
-52.5431
-363.848
-2136.55
-340.062
-1173.21
45791.8
159743
163062
66401.8
92654.2
128884
91297.4
143702
140492
193221
105961
119894
244557
-62358.5
189379
53205.1
110700
148867
120112
93977
157859
90162.6
135604
64873.6
28672.2
68744.6
58861.6
26815.7
42817.1
48711.2
49842.1
49088.7
155664
186001
56863.2
99137.4
189837
171861
114240
80685
-197768
90615.2
87171.6
23166
-19333.1
176104
92255
168356
132672
63594.9
102787
80659.1
93770.3
48337.1
93670.9
78784.4
87783.3
79976.2
70051.5
69519.1
140058
68416.4
178477
103642
935961
885499
943931
938080
914296
896056
931485
920079
813992
759180
803044
766767
822362
805482
782204
769190
864929
802229
670380
640524
778456
819462
751058
777991
836639
626494
596135
469409
667009
685368
572910
589486
877420
894011
891077
828519
867835
891160
872117
910888
853440
829940
827621
900596
876193
779866
823590
815746
889653
821279
727810
701007
836149
860165
766304
671211
903022
726627
734807
877904
780521
780501
825957
745618
27359.3
-24994.7
-6105.29
5126.71
-34952.9
-77960.1
10257.5
-36536.1
-7253.77
906.376
-8609.38
612.404
-5923.14
-7797.99
-7253.71
-6625.49
-7313.89
2636.4
-2388.73
1137.88
-2275.44
-6018.47
-6428.32
-12884.2
28091.2
-1877.36
3608.69
25284.2
-463.51
-2659.94
-3438.91
-5913.64
-34275.8
54940.1
-2198.92
-4369.62
-30885.9
-27742.1
-20501.6
-29661.4
-27959.4
-7965.28
-1784.18
36416.5
-7200.7
-6250.16
-5249.76
-986.942
17861.6
-7864.47
-2444.33
2202.56
-8569.76
-14206.4
-6925.87
3088.43
3705.67
2788.26
-5022.95
-2727.51
-633.557
-4602.01
-261.854
-6588.81
-162.981
-165.064
103.166
-170.576
-222.829
-305.895
-223.993
-202.48
-791.55
-1251.23
1701.32
-2057.79
-1291.21
-441.359
-2122.94
-2417.4
1034.85
-8281.23
3660.35
929.35
645.966
-1342.91
242.817
1012.75
-889.711
58.3157
-214.731
2419.27
-847.902
-1478.16
-481.594
-183.611
-246.102
-311.81
-334.232
-459.854
-205.798
-560.639
-364.503
-455.982
-416.36
-1751.23
-2015.46
-755.083
-305.36
-138.943
-1032.74
-1747.8
456.432
-54.189
-1468.93
856.108
403.25
-191.208
240.642
-1381.99
631.736
-688.852
-3225.37
-4404.74
-187.575
-378.846
-3766.94
-3763.89
4591.49
44522.4
71211
47918.1
35944.8
19748.7
39142.8
38517
81593
47941.8
118226
148356
134670
86067.2
125012
114100
133856
160731
175669
182683
127136
163734
143832
187409
96827.8
170570
177015
146574
145538
154609
135922
183179
93102.5
68959
90123
156552
84050.8
88203.5
95020.3
86058.5
66968.2
155001
139838
111731
91594.9
162362
132988
132875
84605.9
84222
145490
150805
109137
106552
158140
162539
121751
190551
184184
164987
166812
167911
136732
173529
1.27237e+06
268305
4.28536e+06
1.11772e+06
1.90737e+06
2.39838e+06
1.88698e+06
2.81491e+06
1.07166e+06
4.71198e+06
5.57849e+06
2.58561e+06
1.88663e+06
3.36588e+06
2.40884e+06
3.57425e+06
3.273e+06
2.34042e+06
4.20922e+06
3.79774e+06
3.22629e+06
2.70763e+06
3.61444e+06
3.67387e+06
1.18032e+06
1.55833e+06
3.81737e+06
2.37866e+06
1.37915e+06
3.05439e+06
1.31895e+06
3.42191e+06
1.82365e+06
2.24632e+06
1.20253e+06
2.50659e+06
2.0886e+06
2.4538e+06
2.37064e+06
2.01624e+06
2.61803e+06
2.37117e+06
1.48124e+06
1.83314e+06
2.56327e+06
3.45595e+06
3.80836e+06
3.00223e+06
2.69285e+06
1.34733e+06
3.08105e+06
3.13816e+06
3.37469e+06
2.44005e+06
2.85516e+06
3.59041e+06
1.89995e+06
3.21271e+06
1.85265e+06
2.52114e+06
3.59884e+06
3.32912e+06
3.16804e+06
3.53542e+06
108407
133805
277877
207428
142699
181283
205189
188779
213368
208166
255970
197448
155554
246978
218579
256800
448969
325723
420117
353180
307484
427780
408546
411493
243555
204935
276551
237380
190457
221352
239573
218761
176783
212509
168115
199072
236255
196342
200552
169245
256178
219370
339319
314227
274158
224295
264353
244929
317377
210282
240779
290558
345057
198814
224008
235744
331516
308195
234736
343235
309268
300039
317614
239126
2.2652e+06
4.15912e+06
-231925
4.91099e+06
3.61157e+06
2.69029e+06
1.34581e+06
1.15188e+06
4.74134e+06
3.6543e+06
-7.22164e+06
1.54733e+06
3.91698e+06
7.53949e+06
4.16578e+06
2.9492e+06
-1.70099e+06
-787725
-4.03859e+06
-1.58644e+06
-641505
-2.00425e+06
-1.54691e+06
-1.76663e+06
7.40327e+06
3.07752e+06
-4.25198e+06
-1.26552e+06
5.34613e+06
9.09482e+06
4.53597e+06
5.23993e+06
3.33218e+06
393451
5.09935e+06
6.24023e+06
2.17359e+06
1.90068e+06
5.32729e+06
1.67184e+06
5.61742e+06
6.19066e+06
-1.53955e+06
284278
3.31596e+06
4.71505e+06
-166663
1.77412e+06
1.26014e+06
7.14691e+06
4.99017e+06
3.54537e+06
17576.5
2.76587e+06
-249318
1.13474e+06
1.71342e+06
1.892e+06
9.14964e+06
2.22235e+06
1.81745e+06
3.7235e+06
2.32341e+06
4.56122e+06
688052
620664
671669
846135
800083
815243
864285
749896
541387
354222
595809
615342
551000
452658
601764
693301
607268
600584
466364
692698
558754
568319
632086
566672
796513
669957
718494
744810
781374
714347
726231
717154
661650
666046
792237
656889
621910
678304
653284
770664
615724
661878
544855
549341
611317
640508
522614
591844
681132
772555
647627
682268
703750
727366
695994
679406
633558
694513
682096
661902
603830
661499
631398
679474
377445
290845
318970
366372
347531
361113
370513
315754
236482
122080
128486
234443
207219
151628
184459
155257
246071
103351
144048
256007
235775
208012
198348
174643
322190
289970
295712
292158
300754
312089
314868
317459
270875
307166
327102
251781
283274
328632
302649
341463
230499
217856
192643
317071
229622
227055
211861
189981
285636
360391
281645
297013
287927
321286
262173
320315
252658
270144
257456
113274
266959
268691
176722
212284
496827
568233
442161
466434
423172
451272
446476
418855
655630
592918
671026
469436
602053
649486
592837
627104
404263
393900
243290
428692
395467
378534
433133
385264
433586
428062
496902
402143
400145
419910
408167
430142
580375
402410
440914
492409
580610
447760
508803
496092
616442
459292
487015
427860
585576
603223
522336
543116
419910
455268
478735
457898
458078
471989
470208
491506
412577
450934
462539
479215
452237
475280
553928
582032
2255.35
20574.5
20823
21974.5
7063
22328.8
8079.37
23871.5
46337
93874.5
73163.5
76570.9
48044.1
65644.9
48030.2
69852.3
30399.6
59496.7
45980.5
40333.9
42185.6
42182.7
44146
47669.9
28991
51916.2
37669.8
14933.4
26647.2
40671.6
23467.8
41045.6
29799.5
22670.2
31664.8
43490.8
28716.4
35172.5
38441.5
36331.5
51233.3
57608.2
49229.4
19681.1
56491.1
47606.4
49941.9
43531.7
21933.3
40092.4
39744.7
40704.2
22741.3
41695
39442.9
38343.2
22967.6
43177.5
63287.6
54177.1
32467.1
39011.2
46211.2
52916.7
546254
158534
324547
604957
522509
268484
613319
360195
109504
43630.8
49868.6
101910
74382.2
54711.4
63774.4
57527.1
158614
87892.9
97037.6
245163
194757
103679
187833
130248
524640
199694
356049
414382
432717
259614
576554
318997
187007
284878
534763
195229
214622
232673
166799
260240
121114
115577
93291.4
213543
144448
120647
132418
118146
305082
660330
202459
317365
380167
366945
294866
247384
224805
228817
154849
97124.2
229306
205444
115209
152012
22594.3
32045.8
50305
12418.5
23100.2
28055.5
2170.33
21484.4
71502
137314
154334
74582.6
101510
141202
81763.5
149624
111723
162045
133554
61516.4
105867
157721
81863.9
115859
-31370.1
9319.1
29384.2
-19030.3
-13934.7
11170.7
-28201.4
-3322.22
45400.2
57895.4
4246.82
29854.2
38698
27704.7
29723.2
25762.5
79295.9
70773.6
152353
90430.5
78662.3
63536
96020.8
111318
50302.5
-20194.5
15112.6
41052.7
39897
13192.4
42392.2
5890.33
81230.2
49387.2
57364.5
151200
78814.8
69592.9
94410.3
71250
185644
174846
146262
80686
115237
186036
116611
100998
164267
139224
117982
78887.4
143685
134616
90395.2
103666
92504.4
92978.8
97734
50152.1
82110.3
80610.7
81017.5
66722.8
38927
14678.4
-18657.6
-14079.5
8169.73
15220.2
-20775.3
-36152.5
147256
124001
61178.3
53614.5
76146.2
97496
92140.6
105043
171100
73274.8
95880.8
117190
134789
97859.1
136101
84451.3
83252.7
56070
36976.3
22467.4
57000.6
59754.9
26847.2
38922.2
65741.4
29183.5
36137.5
55304.6
73926
53248.7
68470.9
62960.4
328356
280095
325270
308843
316990
302245
349479
325618
205106
125883
237289
186623
208820
192000
231823
217857
314899
296934
308602
241839
319567
301230
324319
298145
272797
201259
231306
163802
265429
276717
225302
211014
267313
327143
306423
281797
298246
338096
275917
291939
254789
283367
272122
315528
273226
271204
295407
281970
333548
318778
296771
329798
294808
308440
318836
304068
312972
287773
270414
267811
311967
318025
282913
257617
371799
358196
359821
346513
354090
389587
381234
384502
341868
331282
422422
297465
333378
354221
390004
387068
335657
397807
319134
353202
357810
358037
400759
385235
321550
286943
293526
198393
245643
259782
310115
301933
343406
377092
323378
304309
386966
414685
344854
338182
378453
323202
403028
394069
384937
387118
400469
389241
340173
345564
364953
313513
349467
357003
333047
360471
352679
345719
361147
414885
378782
353862
406138
376470
5.44681e+06
2.35143e+06
-690485
1.585e+06
1.56854e+06
3.03556e+06
140468
-444769
2.16312e+06
1.63693e+06
234955
595532
1.00174e+06
1.29194e+06
-168319
-399628
4.56373e+06
2.6091e+06
3.26719e+06
-698966
3.58414e+06
7.32485e+06
935543
462318
115137
558067
-1.78619e+06
95386.8
404538
247481
1.46791e+06
864132
896080
1.30451e+06
2.08168e+06
802471
-3946.9
-1.21208e+06
1.06646e+06
2.24748e+06
1.76275e+06
1.22077e+06
3.40111e+06
2.47685e+06
-357840
-478050
3.44687e+06
1.85613e+06
1.77755e+06
2.08629e+06
39499.8
1.44058e+06
2.04767e+06
2.25324e+06
3.87093e+06
417076
1.33094e+06
806690