/*--------------------------------*- C++ -*----------------------------------*\
| =========                 |                                                 |
| \\      /  F ield         | OpenFOAM: The Open Source CFD Toolbox           |
|  \\    /   O peration     | Version:  2412                                  |
|   \\  /    A nd           | Website:  www.openfoam.com                      |
|    \\/     M anipulation  |                                                 |
\*---------------------------------------------------------------------------*/
FoamFile
{
    version     2.0;
    format      ascii;
    arch        "LSB;label=32;scalar=64";
    class       volScalarField;
    location    "100";
    object      k;
}
// * * * * * * * * * * * * * * * * * * * * * * * * * * * * * * * * * * * * * //

dimensions      [0 2 -2 0 0 0 0];

internalField   nonuniform List<scalar> 
43136
(
0.00392811
0.00392153
0.00395928
0.00385813
0.00390983
0.00393867
0.00391306
0.00393172
0.00392222
0.00391908
0.00395082
0.00385958
0.00391009
0.00393433
0.0039167
0.00392889
0.00398066
0.00398761
0.00399038
0.00387366
0.00396433
0.00399196
0.00395551
0.00397418
0.00380785
0.00380902
0.00381894
0.00379273
0.00380193
0.00381121
0.0038052
0.00381064
0.00390348
0.00394278
0.00384034
0.0038394
0.00391221
0.00392656
0.00385323
0.00385579
0.00393517
0.00385755
0.0039722
0.00397188
0.00392952
0.00392507
0.00395765
0.00394367
0.0039397
0.00384094
0.00384088
0.0038551
0.00386477
0.00385189
0.0038573
0.00384809
0.00395885
0.00386414
0.00385289
0.00396013
0.0039486
0.00386992
0.00394498
0.00386796
0.00377942
0.00382836
0.00380971
0.00380233
0.00378788
0.00380275
0.00379574
0.0038065
0.00389845
0.00399959
0.00396368
0.00395374
0.00392188
0.00395954
0.00393984
0.0039776
0.00386428
0.00395123
0.00394431
0.00390723
0.00388289
0.00393522
0.00390085
0.00394812
0.00382538
0.0039004
0.00387023
0.00384945
0.00383609
0.00385813
0.00384461
0.00386321
0.00384471
0.00382177
0.0038119
0.00388266
0.00385724
0.00381773
0.00386695
0.00383047
0.00387366
0.00391412
0.00394178
0.0038545
0.00388302
0.00389888
0.00387443
0.00389438
0.00383356
0.00381995
0.00389429
0.00386612
0.00384001
0.00383574
0.00385214
0.00384767
0.00386216
0.00389436
0.0039216
0.0039558
0.00387541
0.0038867
0.00391069
0.00392049
0.00388471
0.00388844
0.00391086
0.00385393
0.00387826
0.00389207
0.0038737
0.0038913
0.00392596
0.00401206
0.00403564
0.00388321
0.00392934
0.00399564
0.0039151
0.00399328
0.00396105
0.00404472
0.00405536
0.00391065
0.00396038
0.00401739
0.00394635
0.00401347
0.00382682
0.00382916
0.0038388
0.00380263
0.00382151
0.00383105
0.00381664
0.00382847
0.00388654
0.00390677
0.00384715
0.00385544
0.00387843
0.00388066
0.00385759
0.0038592
0.00391902
0.003881
0.00401031
0.00393699
0.00391752
0.00390898
0.00394295
0.00394404
0.00389875
0.003843
0.00384734
0.00386101
0.00387274
0.00385722
0.00386852
0.00384857
0.00393511
0.00389377
0.00387865
0.00400636
0.00392467
0.00389582
0.00392876
0.00389582
0.0188321
0.0176288
0.0175638
0.0110467
0.01716
0.0178958
0.0165623
0.0169853
0.0167236
0.015857
0.0161185
0.00946604
0.0150231
0.0159308
0.0146417
0.0151836
0.0175633
0.0169871
0.0170917
0.0105185
0.0167343
0.0173866
0.0162033
0.016577
0.00555726
0.0056026
0.0065653
0.00418198
0.00513761
0.0060468
0.00524651
0.00590432
0.0161081
0.0169492
0.0103078
0.0101812
0.0155984
0.0163669
0.0113659
0.0109574
0.016904
0.0101989
0.0171168
0.0176573
0.0162185
0.0159262
0.0171093
0.0163967
0.0164899
0.0102403
0.00995912
0.0103628
0.0110203
0.0105524
0.0105145
0.0102124
0.0170042
0.0104057
0.00993898
0.0161618
0.0162408
0.010508
0.0157621
0.010034
0.015956
0.0157817
0.0173886
0.00896145
0.0155246
0.0163693
0.0158709
0.0164002
0.0168246
0.0176884
0.017297
0.0090056
0.0161672
0.017045
0.0156118
0.0161294
0.0197123
0.017517
0.0195598
0.0107952
0.018961
0.0196952
0.0179334
0.0187029
0.00499728
0.00515806
0.00618788
0.00406849
0.00481958
0.00546345
0.0048877
0.0053104
0.0155476
0.0180458
0.00797265
0.00865223
0.0155633
0.0174647
0.00906118
0.00915172
0.0162887
0.00931259
0.0171639
0.0189759
0.0161606
0.0157894
0.0172771
0.0162593
0.0177243
0.00797981
0.00880796
0.0104177
0.00967118
0.00869105
0.010234
0.0091888
0.0189374
0.0105996
0.00917027
0.0162403
0.0183075
0.0105209
0.0158884
0.00931922
0.00402413
0.00401196
0.00404721
0.00388505
0.00398502
0.00403447
0.00397536
0.00400359
0.0039723
0.00393861
0.00397642
0.00387239
0.00394127
0.00395553
0.00394482
0.00394638
0.00405494
0.00401853
0.00406482
0.00391022
0.0040043
0.00404503
0.00399637
0.00402342
0.00382699
0.00381775
0.00383606
0.00379912
0.00381749
0.00382751
0.00381944
0.00382716
0.00397106
0.0039972
0.00387131
0.00386551
0.00396435
0.00397206
0.00388163
0.00388988
0.00399636
0.00388377
0.00400082
0.00404057
0.00396885
0.00395307
0.00400892
0.00397738
0.00398985
0.0038691
0.00387033
0.0038848
0.00389622
0.00388235
0.00388512
0.00387312
0.00401271
0.00389806
0.00388042
0.0039849
0.00397859
0.00390251
0.00397378
0.00389225
0.00375405
0.00377465
0.00377222
0.0037621
0.00375776
0.003765
0.00376027
0.00376756
0.00382861
0.00389952
0.00390283
0.00384565
0.00384284
0.003881
0.00384914
0.00388518
0.00382476
0.00390043
0.00390596
0.00384454
0.00383808
0.00387719
0.0038491
0.0038813
0.00377389
0.00380212
0.00379932
0.00378708
0.00378034
0.00378989
0.00378425
0.00379198
0.00378443
0.00378109
0.0037678
0.00379799
0.00378941
0.00377364
0.00378902
0.00377732
0.00380874
0.00382296
0.00387787
0.00380583
0.00381098
0.00382138
0.00381916
0.003834
0.00378644
0.00377138
0.00380233
0.00379876
0.00378529
0.0037796
0.00379299
0.00378608
0.00380876
0.00381831
0.00382219
0.00387835
0.00381909
0.00381765
0.00384329
0.00383969
0.0037779
0.00381421
0.00381408
0.00378703
0.00378226
0.00379368
0.00378942
0.00379852
0.00387565
0.0039605
0.00394083
0.00389302
0.00389549
0.00391644
0.00390686
0.00392331
0.00386343
0.00392138
0.00391602
0.00385112
0.00387158
0.00389329
0.00388539
0.00389552
0.00379206
0.00382682
0.00381185
0.00379401
0.00379442
0.00380403
0.00379845
0.00380433
0.0038264
0.00382081
0.00378925
0.00383218
0.00383733
0.00380817
0.00382523
0.00380077
0.00384376
0.00384966
0.00389402
0.00383924
0.00384968
0.00386277
0.00386656
0.0038748
0.00383066
0.00379453
0.00383651
0.00382458
0.00381316
0.00380218
0.00381772
0.00381028
0.00384398
0.00383357
0.00384823
0.0038987
0.0038585
0.00383425
0.00388691
0.00386264
0.0184006
0.0189086
0.0193322
0.0109623
0.0171066
0.0194395
0.016643
0.0187659
0.0183364
0.0149655
0.0171065
0.0113448
0.018369
0.0161268
0.0185852
0.0164102
0.0192976
0.0183904
0.0190678
0.0111689
0.0205512
0.0190747
0.0198984
0.0186222
0.00509585
0.00511855
0.00542645
0.0041277
0.00470565
0.00532051
0.00473106
0.00523098
0.0178983
0.0176257
0.0101193
0.00987027
0.0183932
0.0177622
0.0104461
0.0104895
0.0187359
0.0120722
0.0180118
0.0193447
0.0186489
0.0200265
0.019072
0.0202092
0.0175589
0.00993683
0.00976129
0.00946134
0.0101701
0.0102301
0.00962063
0.00955512
0.0189197
0.0113556
0.0119063
0.0177959
0.0201676
0.0116734
0.0197234
0.011808
0.00376337
0.00376465
0.00375602
0.0037861
0.00377051
0.00376232
0.00377382
0.00376953
0.00376516
0.00376426
0.00375479
0.00378225
0.00377205
0.00376263
0.00377512
0.00376904
0.0037531
0.00375208
0.0037512
0.00376321
0.00375545
0.00375203
0.0037564
0.00375413
0.00382515
0.00381914
0.00380142
0.00386422
0.00383703
0.00382346
0.00384263
0.00383647
0.0037717
0.00376071
0.00380077
0.00379967
0.00377615
0.00377855
0.00378596
0.00378903
0.00376298
0.00378716
0.00375464
0.00375498
0.00377092
0.00377865
0.00375592
0.00376119
0.00376249
0.00380624
0.00380597
0.00378418
0.0037726
0.00380059
0.00378127
0.00381317
0.00375935
0.00377885
0.00379777
0.00375886
0.00376386
0.0037715
0.00376328
0.00377065
0.00376761
0.00376149
0.00380092
0.00377931
0.00376933
0.00376971
0.00377492
0.00377573
0.00375735
0.00375879
0.00379526
0.00376542
0.00375943
0.00376201
0.00376383
0.00376701
0.0038584
0.00386145
0.00393907
0.00388832
0.00387759
0.00388223
0.0038979
0.00390171
0.00378538
0.00377577
0.00382253
0.00378939
0.00378319
0.00378214
0.00378856
0.00379001
0.00376114
0.00380746
0.00377639
0.00376942
0.00376541
0.00377347
0.00376789
0.00377443
0.00376264
0.00377049
0.00380743
0.003812
0.00376761
0.00377026
0.00379348
0.00380053
0.00382045
0.00378178
0.00377443
0.00382836
0.00381774
0.00378261
0.00381728
0.00378213
0.00382368
0.00383453
0.00377696
0.00381745
0.00382365
0.00382187
0.00381131
0.00381012
0.00377988
0.00382415
0.00378075
0.00382596
0.00379918
0.00380943
0.00380619
0.00381929
0.00387154
0.00392809
0.00385572
0.00393818
0.00389749
0.00390569
0.00390926
0.00392175
0.00377517
0.00380299
0.00377155
0.0038131
0.00379108
0.00379058
0.00379054
0.00379507
0.00388297
0.00394426
0.0038778
0.00397246
0.00390895
0.00392145
0.00392068
0.00393873
0.00384551
0.00380013
0.00384705
0.00390288
0.00385669
0.00383278
0.00387783
0.00385915
0.00385461
0.00391474
0.0038396
0.00380181
0.00386854
0.00388424
0.00381793
0.00383828
0.00380467
0.00385553
0.00391522
0.00385024
0.00382266
0.00387018
0.00384334
0.00388843
0.00380869
0.00385893
0.00392643
0.00384486
0.00381919
0.00384812
0.00384024
0.00386359
0.00376485
0.00376146
0.00376261
0.00380772
0.00377368
0.00376455
0.00378976
0.00377912
0.0037606
0.00376025
0.00375826
0.00379444
0.00376869
0.0037623
0.00377765
0.00377056
0.00375747
0.00375533
0.00375648
0.00379191
0.00376251
0.0037558
0.0037725
0.00376196
0.00385808
0.00385111
0.00385631
0.00392348
0.00387205
0.00386093
0.0038935
0.00388161
0.00376985
0.00377226
0.00381929
0.00381152
0.00378037
0.00378731
0.00379976
0.0038082
0.0037629
0.00380001
0.0037582
0.00376039
0.00377333
0.00377967
0.00375869
0.00376573
0.00378065
0.00383644
0.0038287
0.00383104
0.0038025
0.00382642
0.00381464
0.00383742
0.00377028
0.00381063
0.00381595
0.0037644
0.00377462
0.00379502
0.00377267
0.00379035
0.00401349
0.00396592
0.00391171
0.00399706
0.0039905
0.00395164
0.00396797
0.00393113
0.00390979
0.00384885
0.0038251
0.00388661
0.00388273
0.00384676
0.0038735
0.00383452
0.00383464
0.00380244
0.00378194
0.0038273
0.00381887
0.00379895
0.00381063
0.00378963
0.00397328
0.00393485
0.00388988
0.00396502
0.00395916
0.00392655
0.00394092
0.00390847
0.00394504
0.00389708
0.00397049
0.00392723
0.00393169
0.00391758
0.00395291
0.00393707
0.00390137
0.00388512
0.00382161
0.00386335
0.00388443
0.00386821
0.00386924
0.00385292
0.00388274
0.00395099
0.00391381
0.00386936
0.00390017
0.00391796
0.0038832
0.00390371
0.00384756
0.0038407
0.00387004
0.00381073
0.00383517
0.00385497
0.0038433
0.00385862
0.00390703
0.00395891
0.00395793
0.00387185
0.00390914
0.00393972
0.00389422
0.00392906
0.0040799
0.00426665
0.00418678
0.00396187
0.00409419
0.00422159
0.00404094
0.00420003
0.00401658
0.00408698
0.00401598
0.00391914
0.00401313
0.00406432
0.00397334
0.00404005
0.00383705
0.00385606
0.00384527
0.00380499
0.0038332
0.00384929
0.00382191
0.00384192
0.0039644
0.00395708
0.00386904
0.00390653
0.00394092
0.00391755
0.00390922
0.00389081
0.00402121
0.00394276
0.00414549
0.00400012
0.00399938
0.00398554
0.00404902
0.00405277
0.00393329
0.00385586
0.00388703
0.00387657
0.0039004
0.00388181
0.00389594
0.00387085
0.00398148
0.00391563
0.00393346
0.00412034
0.0039624
0.00392526
0.00400287
0.00393449
0.00394811
0.0039522
0.00402868
0.00386941
0.00392932
0.00398349
0.0039432
0.00398173
0.0039719
0.0039928
0.00407463
0.0039094
0.00395712
0.00402113
0.00397553
0.00402143
0.00413719
0.00418419
0.00426947
0.00395688
0.00411404
0.00421733
0.00412159
0.00419444
0.00382309
0.00383714
0.00384961
0.00380036
0.00381753
0.00383806
0.00382262
0.00383636
0.00393332
0.00401468
0.00385576
0.00387019
0.0039482
0.00397646
0.0038794
0.00388446
0.00399592
0.00390866
0.00412345
0.00408638
0.00399297
0.00399279
0.00404051
0.00402985
0.00402527
0.00386315
0.0038785
0.00390358
0.00390493
0.00388172
0.00389907
0.0038833
0.00408104
0.00392848
0.00390509
0.00411034
0.0040706
0.00393472
0.00404144
0.00392624
0.00389843
0.00386167
0.00394627
0.00391425
0.00389425
0.00388338
0.00391776
0.00391611
0.00382732
0.00379773
0.00384165
0.00382179
0.00381915
0.00381263
0.00382709
0.00382097
0.00399531
0.00391972
0.00399178
0.00397823
0.00397477
0.00395243
0.00398966
0.00396898
0.00394494
0.00388615
0.00398734
0.00397021
0.00393942
0.00391598
0.00396934
0.0039564
0.00385459
0.00393735
0.0039111
0.00385749
0.00387059
0.00389825
0.00386475
0.003893
0.00384613
0.00384428
0.00386561
0.00391832
0.00386545
0.00384993
0.00388826
0.00387994
0.00397107
0.00394476
0.00388042
0.00397959
0.00396965
0.00393833
0.00395705
0.00391455
0.00396388
0.00395659
0.00387139
0.00389171
0.00393684
0.00393376
0.00390137
0.00390113
0.0169658
0.0161141
0.00673741
0.00633418
0.0165419
0.0167698
0.00892776
0.010311
0.0152495
0.0143996
0.00785078
0.00810874
0.0148652
0.0146923
0.0112262
0.0113594
0.00437901
0.00453879
0.00401343
0.00399791
0.00442586
0.00446739
0.00406236
0.00410774
0.00429545
0.00457908
0.00400185
0.00401262
0.00435116
0.00441199
0.00405095
0.00409646
0.0157076
0.00692765
0.00667176
0.00779408
0.0107815
0.0100108
0.00759626
0.00701604
0.0155079
0.00793678
0.00774369
0.00708356
0.0111846
0.0108756
0.00756501
0.00748743
0.00471578
0.00472101
0.00528157
0.00405829
0.0042886
0.00504377
0.00437874
0.00503137
0.00490472
0.00410567
0.00551236
0.00516938
0.00491601
0.00443798
0.00504498
0.00451887
0.0161484
0.0145666
0.00922519
0.00880158
0.0154165
0.0148187
0.0102342
0.01067
0.0134138
0.0124245
0.00923305
0.0101198
0.0128959
0.0125212
0.010213
0.0100493
0.00505723
0.00556752
0.00410042
0.00414257
0.00522267
0.00525728
0.00420285
0.00434321
0.00462721
0.00499388
0.00410462
0.00410482
0.00469003
0.00472554
0.00413557
0.00422368
0.0139838
0.00948538
0.00919306
0.00991367
0.0105507
0.0105113
0.00994419
0.00955081
0.0135961
0.0099109
0.00921145
0.0093854
0.0105648
0.0103834
0.00940957
0.00930138
0.00595855
0.00517347
0.0061465
0.0041794
0.00473343
0.00574603
0.00480359
0.00569141
0.00686365
0.0042643
0.00655213
0.0084945
0.00733972
0.00493
0.00799361
0.00520354
0.0167473
0.00638491
0.0132444
0.00681472
0.0128553
0.0135611
0.0128873
0.0130852
0.00421781
0.00399692
0.00429479
0.00397949
0.00411899
0.00417078
0.00416718
0.00416934
0.0127317
0.00795136
0.0121494
0.00906029
0.0122115
0.0123101
0.011887
0.0118811
0.00449821
0.00397734
0.00455271
0.00400478
0.00429635
0.00436692
0.00435818
0.00436417
0.00539672
0.0127413
0.00602629
0.00418588
0.00601765
0.0126759
0.00434636
0.00721062
0.00588232
0.00427344
0.00725445
0.0129178
0.00599898
0.00600039
0.00699156
0.00659521
0.0125236
0.00658798
0.00425529
0.0084329
0.00813691
0.00728715
0.00807842
0.00728211
0.0124908
0.00889818
0.00425884
0.00719921
0.0121242
0.00900263
0.00717234
0.00446947
0.00377791
0.00381498
0.00377129
0.0038121
0.00379764
0.00380278
0.00380026
0.00380958
0.0038528
0.00389934
0.0038248
0.00389715
0.00387791
0.00387643
0.00387717
0.00387737
0.00375885
0.00377213
0.00375342
0.00377402
0.00376615
0.00376222
0.00376384
0.00376186
0.00384975
0.00389527
0.00382824
0.00389718
0.00387428
0.00387506
0.00387831
0.00387789
0.00383672
0.00378698
0.0038339
0.00387946
0.00383801
0.00382099
0.00385604
0.00383824
0.00383397
0.00387617
0.00380862
0.00377703
0.00384221
0.00385372
0.00379313
0.003813
0.00377748
0.0038337
0.00387626
0.00381184
0.00379292
0.00384024
0.00381213
0.00385108
0.003777
0.00380587
0.0038777
0.00380381
0.00378327
0.00380337
0.00380313
0.00381852
0.00465346
0.00458279
0.00701822
0.00446817
0.00457469
0.00459437
0.00459987
0.00459871
0.00442532
0.0041323
0.00574985
0.00418546
0.00437639
0.00450034
0.00431702
0.0044674
0.00928656
0.00902439
0.0118028
0.0100208
0.00960494
0.00925316
0.0100189
0.00970143
0.00429149
0.00414037
0.00512331
0.00414881
0.00427068
0.00430512
0.00424887
0.00432119
0.00455991
0.00671261
0.00442889
0.00427754
0.0044645
0.00452109
0.00431262
0.00444033
0.00476763
0.00434928
0.00936483
0.00763764
0.00476019
0.00455545
0.00724815
0.00704304
0.00651947
0.00442372
0.00422631
0.00563184
0.00607149
0.00445898
0.00581437
0.00439235
0.00714992
0.00680908
0.00434752
0.00889215
0.00686685
0.00652441
0.00645704
0.00528869
0.0039606
0.00391085
0.00387729
0.00395045
0.00393592
0.00391177
0.00392015
0.00389166
0.00383331
0.00379121
0.00377988
0.0038149
0.00380636
0.00379048
0.00380273
0.0037841
0.00380311
0.00376985
0.00376276
0.00379501
0.0037832
0.00377032
0.00377968
0.00376506
0.00394938
0.00388049
0.00386018
0.00395677
0.00392496
0.00388617
0.00391631
0.00387422
0.00386829
0.00385164
0.00392611
0.00385065
0.00386396
0.00386685
0.00389297
0.00389614
0.00383705
0.00381856
0.00377975
0.00382613
0.00382648
0.00380389
0.00382134
0.00379526
0.00384273
0.0039141
0.00384865
0.00383232
0.00387006
0.00388254
0.00383858
0.00385235
0.00381135
0.00380204
0.00381201
0.0037737
0.00379189
0.00381052
0.00379208
0.00380613
0.00378619
0.00380974
0.00383252
0.00383175
0.00379549
0.00380445
0.00381758
0.00382127
0.00383311
0.00385711
0.00389694
0.00390211
0.00384428
0.00385583
0.00387352
0.00388107
0.00390043
0.00394315
0.00399919
0.00397823
0.00391971
0.00394014
0.0039742
0.00398645
0.00389055
0.00393925
0.00396213
0.0039614
0.00391094
0.00393041
0.00394919
0.00396284
0.00382053
0.00384768
0.00384732
0.00388431
0.00384529
0.0038359
0.00386899
0.00386257
0.00383011
0.00389933
0.00389566
0.00386305
0.00385105
0.00386415
0.00386777
0.00388036
0.00388198
0.00387774
0.00391651
0.00395543
0.00389503
0.00388838
0.0039133
0.00390448
0.00389213
0.00396853
0.0039277
0.00392899
0.00391014
0.0039331
0.00391923
0.00394112
0.0130328
0.0154313
0.0110336
0.00746789
0.0120517
0.0133966
0.00902304
0.0101536
0.0186062
0.0285199
0.0389493
0.0113022
0.0168709
0.0236341
0.0134782
0.0263889
0.0136
0.0213933
0.0220093
0.0101007
0.0130513
0.0176984
0.0112873
0.0168099
0.00505117
0.00622145
0.00554508
0.00427975
0.00498183
0.00575265
0.00449866
0.00509376
0.0139493
0.0104035
0.00720704
0.00890874
0.0103956
0.0102861
0.0093922
0.008657
0.0162846
0.0105243
0.0279128
0.0131307
0.0127144
0.0133989
0.0151381
0.0145348
0.00839875
0.00580714
0.00739633
0.00624655
0.00735928
0.00673088
0.00720024
0.00704017
0.0111732
0.00834021
0.00900846
0.0169025
0.0119205
0.00940175
0.0118996
0.0105257
0.0203067
0.0211389
0.0196552
0.00977267
0.0177208
0.0208679
0.0167021
0.0197384
0.0342569
0.0288487
0.02183
0.0112917
0.0266213
0.0285415
0.0223657
0.0221862
0.0182301
0.0179825
0.0171505
0.0100812
0.0159286
0.0176317
0.0141277
0.0144028
0.0055904
0.00659626
0.00657842
0.00435838
0.0055313
0.00665109
0.00547895
0.00614539
0.0210086
0.0198682
0.00881698
0.00952717
0.0204942
0.0188727
0.0102993
0.0102603
0.0335827
0.0111954
0.0214391
0.0238935
0.0270918
0.0204272
0.0242785
0.0202654
0.0178096
0.00844065
0.00912329
0.00860314
0.00942727
0.00958861
0.00896973
0.00878273
0.0198831
0.0091768
0.0101046
0.0166168
0.0157651
0.00976726
0.0170674
0.00985039
0.0131539
0.0157109
0.0129197
0.0065645
0.0121242
0.0139297
0.00873071
0.0114086
0.0198754
0.0259425
0.03254
0.0578591
0.01891
0.024183
0.0184753
0.0250471
0.0204118
0.0464704
0.0298116
2.59176
0.0389588
0.0482756
0.129091
0.073418
0.00463169
0.0395672
0.110154
0.00424702
0.00532061
0.0300141
0.00529872
0.0602
0.0144373
0.0119491
0.00631658
0.0258715
0.0122482
0.0117659
0.0103704
0.00867017
0.0175888
0.0607358
0.0307727
0.0159216
0.0152944
0.0180613
0.0179746
0.0213636
0.00844976
0.00516295
0.0631049
0.241341
0.0092471
0.00824728
0.0910745
0.0455387
0.0151008
2.55242
0.26707
0.0396099
0.0278773
0.311055
0.0334659
0.415594
0.0295302
0.049995
0.243219
2.63301
0.0600426
0.0605188
0.527491
0.354085
0.0380654
0.0291294
0.251209
0.451546
0.0349739
0.0348204
0.23252
0.163203
0.287836
0.44071
0.22377
0.558948
0.400487
0.396026
0.292742
0.325722
0.192819
0.0875193
0.0842833
0.00486567
0.102465
0.128131
0.0617395
0.0850797
0.0556971
0.431348
2.62797
1.1045
0.504578
0.668761
1.69476
2.51664
0.0553351
1.05404
0.388471
0.418994
0.336771
0.424501
0.365689
0.396866
0.442187
2.13883
1.17204
0.7503
1.52321
2.18821
1.54192
1.74795
0.417977
0.930706
1.12027
0.481018
0.556787
1.45649
0.555074
1.19984
0.0174061
0.0187228
0.0126163
0.00870039
0.0157002
0.016815
0.0107108
0.011926
0.0299198
0.0515209
0.148336
0.0163375
0.0263792
0.0509511
0.0199655
0.0925314
0.0178573
0.0912814
0.0380506
0.0169332
0.0184254
0.0520649
0.0172282
0.0300515
0.00607701
0.00885634
0.00823203
0.00465925
0.00594952
0.00801797
0.00505648
0.00700285
0.0164725
0.0125588
0.00837748
0.0111555
0.0122722
0.0121406
0.0112563
0.0105683
0.0258044
0.0149999
0.11735
0.0182757
0.0189122
0.0200049
0.024065
0.0227267
0.0121356
0.00725532
0.0110367
0.0098434
0.0104988
0.00919049
0.010642
0.0101404
0.0160697
0.0141387
0.0140813
0.0600638
0.0172342
0.0149728
0.0179402
0.0163079
0.0441405
0.0972311
0.0902902
0.0165444
0.0523283
0.09701
0.0612871
0.0891802
0.13229
0.053305
0.0490423
0.0165873
0.0887812
0.0691493
0.0716937
0.0562946
0.0658554
0.0352854
0.0258687
0.0130066
0.0403122
0.0350805
0.0324468
0.0282055
0.0081913
0.00920712
0.00900685
0.00476971
0.00769941
0.00927683
0.00781441
0.00883088
0.0874878
0.0861949
0.0145838
0.0145715
0.0891425
0.0817699
0.0159169
0.016097
0.162256
0.0164597
0.0508158
0.108011
0.120991
0.0646507
0.104949
0.0602782
0.0751845
0.0143513
0.0142502
0.0131339
0.0149621
0.0150387
0.014032
0.0140025
0.079247
0.013433
0.0151761
0.0405771
0.0434977
0.0146683
0.0478437
0.0148107
0.0162138
0.0138991
0.0173285
0.0105526
0.0132487
0.0159235
0.0131293
0.0150472
0.0193472
0.0327149
0.057336
0.0139519
0.0177647
0.0401762
0.0176808
0.0344272
0.0255831
0.072706
0.0430764
0.0169008
0.0221031
0.0523791
0.0216396
0.0431349
0.00693661
0.00753642
0.00833559
0.0048609
0.00593144
0.0077997
0.00596231
0.00732711
0.0127678
0.0155781
0.00903773
0.00953091
0.01327
0.0142099
0.0102202
0.0108673
0.0193296
0.0141336
0.070219
0.0233011
0.0179909
0.0177448
0.0207137
0.0193463
0.0154772
0.00906495
0.00985244
0.0115963
0.0117242
0.0104505
0.0113179
0.0103015
0.0213931
0.014909
0.0133858
0.0559072
0.0201037
0.015513
0.0192202
0.0148199
0.020602
0.0237181
0.0284567
0.0133335
0.0190104
0.0233142
0.0199498
0.0235215
0.0316535
0.0428464
0.0609857
0.0177121
0.0337915
0.0430796
0.0347288
0.0419575
0.0472179
0.0565725
0.0356043
0.0140187
0.050381
0.0559159
0.0395332
0.0401834
0.00975196
0.00921635
0.00787699
0.00498854
0.00824558
0.00921398
0.00748075
0.00782001
0.0253851
0.0321892
0.0143431
0.016909
0.0261861
0.0242637
0.0154475
0.0153463
0.0312081
0.0177314
0.06057
0.039854
0.030959
0.0318365
0.0404551
0.0470818
0.0345005
0.0136638
0.0150301
0.0131532
0.0145759
0.0145421
0.0146324
0.0143873
0.0427196
0.0137776
0.0155077
0.0559189
0.0449159
0.0152491
0.0484904
0.0153056
0.00831253
0.00746191
0.00939068
0.00678468
0.0085056
0.00865347
0.00860991
0.00896661
0.00475799
0.00404532
0.00498468
0.00406508
0.00468119
0.0046777
0.00468409
0.00473756
0.0103687
0.00979044
0.0108869
0.0088894
0.0103248
0.0105354
0.0104059
0.0109096
0.0043442
0.00400806
0.00445191
0.0040111
0.00427533
0.00430544
0.00426337
0.0042928
0.00748437
0.00947326
0.00678109
0.00485432
0.0075188
0.00871631
0.00493426
0.00691032
0.00759825
0.00488653
0.00898286
0.00957979
0.0081002
0.00763405
0.00876554
0.00879613
0.00959149
0.00675182
0.00483549
0.00777128
0.00779903
0.00722321
0.00781976
0.00682103
0.00992463
0.00840591
0.0049448
0.00953932
0.0095828
0.00794589
0.00872961
0.00522313
0.00390384
0.00395438
0.00395578
0.00392086
0.00392173
0.00394693
0.00392721
0.00394769
0.00400775
0.00402967
0.00412006
0.00404652
0.00401205
0.00404537
0.00404693
0.00408976
0.0040284
0.00417493
0.00419713
0.00420223
0.00408729
0.00414011
0.00412171
0.00417725
0.00395342
0.00407381
0.00418888
0.00405353
0.0039844
0.00402953
0.00401284
0.00412719
0.00397901
0.00398562
0.00394918
0.00399816
0.00399136
0.00398362
0.0039805
0.00397834
0.00400915
0.00403761
0.00410862
0.00401445
0.00401299
0.0040438
0.00402158
0.00405596
0.00399578
0.00395927
0.00404159
0.00408871
0.0040014
0.0039844
0.00404798
0.00403964
0.00401808
0.00416281
0.00410335
0.00414736
0.00408786
0.00410594
0.00409788
0.00415784
0.0221813
0.0208721
0.0231513
0.0137239
0.0215396
0.0226808
0.0209156
0.0219075
0.0191039
0.0191765
0.0193415
0.0127182
0.0176679
0.0187749
0.016912
0.0175536
0.0209144
0.0198854
0.0198183
0.0130403
0.0200558
0.0200329
0.0192214
0.0193164
0.00585136
0.00528664
0.00509014
0.00410539
0.00527418
0.00561942
0.00482052
0.00482329
0.0194793
0.0225536
0.013769
0.0122621
0.0189353
0.0217944
0.0126224
0.014171
0.0206629
0.0123798
0.0194686
0.0230505
0.0195627
0.0190454
0.0210304
0.0197455
0.0215124
0.0136917
0.0118052
0.0128278
0.0146069
0.0139484
0.0138969
0.0135402
0.0221809
0.011996
0.0116863
0.0185479
0.0224324
0.0131977
0.0193606
0.0126357
0.00409405
0.00407468
0.00400906
0.00406859
0.00406989
0.004059
0.00405728
0.00404146
0.00405291
0.00402402
0.00396351
0.00400237
0.00403485
0.00402709
0.00401897
0.0039959
0.00393196
0.00390939
0.00386693
0.00391459
0.00391468
0.00390088
0.00390629
0.0038854
0.00403546
0.00398477
0.0039576
0.00398586
0.00401108
0.00399604
0.00399752
0.00397649
0.00405231
0.00398913
0.00404483
0.00401348
0.00404069
0.00403519
0.00403629
0.00403145
0.00404753
0.00400648
0.00395494
0.00397403
0.00402178
0.00401399
0.00398889
0.00396887
0.00397678
0.00403195
0.00400158
0.00395691
0.00398818
0.00401548
0.00396859
0.00400568
0.0039582
0.0039339
0.00398062
0.00393438
0.00395288
0.00395216
0.00395495
0.0039583
0.00379889
0.00390779
0.00385557
0.00385464
0.00381178
0.00382783
0.00382943
0.00384053
0.00466378
0.0166314
0.00913899
0.00751939
0.00554307
0.0104518
0.00608768
0.00951102
0.00394599
0.00484874
0.00406467
0.0040989
0.00399138
0.00403357
0.00402664
0.00405833
0.00393565
0.00445634
0.00406585
0.00406287
0.00396822
0.00403102
0.00400163
0.00403933
0.00398241
0.00387448
0.0038753
0.00438215
0.0040482
0.0038674
0.00423262
0.00391769
0.00421395
0.00464062
0.00538172
0.0039214
0.00422066
0.00447605
0.00425349
0.00438241
0.00389654
0.00389878
0.00444249
0.00401395
0.00394026
0.0039283
0.00397967
0.00398454
0.00393093
0.00407821
0.00459125
0.00509067
0.00400275
0.00406798
0.00447235
0.00459802
0.0176306
0.0169795
0.0179051
0.0104488
0.0165074
0.0176282
0.0158798
0.0166819
0.0167001
0.0166205
0.0171178
0.0113141
0.0154485
0.0166378
0.0148057
0.0155325
0.0181433
0.0172478
0.0181094
0.0105828
0.0174382
0.0178915
0.0168525
0.0169566
0.00660928
0.0056229
0.00569866
0.00407859
0.00601761
0.0061479
0.00552604
0.00541609
0.0157265
0.0172855
0.0102598
0.0111602
0.0150396
0.0162218
0.0109615
0.0103595
0.0168884
0.0113011
0.0170907
0.0181672
0.0158156
0.0153204
0.0171331
0.0161393
0.0167778
0.0103963
0.0112215
0.0102408
0.0105008
0.0104004
0.0104179
0.0104482
0.0173896
0.0102494
0.0112509
0.0159209
0.0168579
0.0108254
0.0154613
0.0117516
0.0154834
0.0163601
0.0171517
0.00961546
0.0134218
0.0172574
0.0127589
0.0162531
0.0170547
0.0183926
0.0192767
0.00915313
0.016282
0.0191399
0.01604
0.0183032
0.0172389
0.01961
0.0195713
0.00928849
0.0168954
0.0201221
0.0160282
0.0188078
0.00530872
0.00515221
0.00572884
0.00409029
0.00475005
0.00552805
0.00477764
0.00547678
0.014494
0.0139783
0.00935902
0.0093685
0.0146534
0.0140095
0.0097241
0.00970655
0.0175665
0.00959634
0.0200073
0.0179366
0.017203
0.0172217
0.0178428
0.0174732
0.0137088
0.00923937
0.0094546
0.00901291
0.00940757
0.00945589
0.00918155
0.00929813
0.0169006
0.00937543
0.00948396
0.0189053
0.0164252
0.00960233
0.0167171
0.00958932
0.0176543
0.0198734
0.0182571
0.0111568
0.015093
0.018909
0.0150333
0.0183734
0.0238547
0.0266952
0.0248617
0.0195055
0.0277773
0.0259751
0.0272788
0.0243953
0.0192954
0.0230702
0.0210434
0.0134708
0.0191051
0.022006
0.0184566
0.0208289
0.00482832
0.00589339
0.00455369
0.0040618
0.00452031
0.00534957
0.00434317
0.00455751
0.0225643
0.0173375
0.0128192
0.0219055
0.0224635
0.0220637
0.0172107
0.016128
0.0230972
0.019374
0.023981
0.0200483
0.0218558
0.0283709
0.0208282
0.0240547
0.0165951
0.0105611
0.0212567
0.00915593
0.0131441
0.0147801
0.0120677
0.0187743
0.0192144
0.0136687
0.0177653
0.0224888
0.0242881
0.01718
0.0235097
0.0178282
0.00795706
0.00677889
0.00717233
0.00660377
0.00776476
0.00708786
0.00786567
0.00702932
0.00512834
0.00426178
0.00427387
0.00429236
0.00452098
0.00431969
0.00448194
0.00425851
0.0047339
0.00422896
0.00404104
0.00409136
0.00455429
0.00423774
0.00454031
0.00414334
0.00437597
0.00414747
0.00403898
0.0040237
0.00425314
0.00415133
0.00422607
0.00407967
0.00604876
0.00672054
0.00606352
0.0045271
0.00601461
0.0062978
0.0050665
0.00518142
0.00527673
0.00434062
0.00431256
0.00524705
0.00512791
0.00453459
0.00510939
0.0045453
0.00674992
0.00608126
0.00448419
0.0046657
0.0049376
0.00501437
0.00469053
0.00456883
0.00500466
0.00419789
0.00427851
0.00424258
0.00453394
0.00431255
0.00449923
0.00428445
0.0147626
0.0164215
0.0156015
0.00915688
0.0133684
0.0157891
0.0133566
0.0154372
0.018725
0.0210124
0.0201568
0.0112541
0.0188386
0.0204315
0.0187897
0.019875
0.0167632
0.0196219
0.0191002
0.00854976
0.0152527
0.0191306
0.0154803
0.0188572
0.00435659
0.00450198
0.00423226
0.00400018
0.00425114
0.00439835
0.00417925
0.00426763
0.0171686
0.0146727
0.00898089
0.00939173
0.0170189
0.0167287
0.0106024
0.0100742
0.018102
0.0107544
0.0197145
0.016739
0.017413
0.0186669
0.0173354
0.0172293
0.0145724
0.00768941
0.00890802
0.00640234
0.00880663
0.00915775
0.00702631
0.00824627
0.016223
0.00851566
0.0100744
0.019342
0.0167446
0.00951667
0.0174247
0.0101965
0.00377506
0.00381899
0.00377975
0.00381962
0.00381113
0.00380687
0.00380331
0.00380196
0.00388316
0.00397799
0.00390398
0.00396498
0.00396208
0.00395071
0.00394569
0.00393466
0.00378105
0.00383791
0.00378258
0.00383019
0.0038247
0.00381782
0.00381235
0.00380522
0.00387815
0.00394773
0.00388437
0.0039496
0.00393408
0.00392124
0.00392019
0.00391052
0.00387082
0.0038201
0.00386547
0.00394192
0.00386034
0.00383005
0.00387881
0.00385634
0.0038635
0.00393224
0.00387975
0.00381351
0.00385471
0.00390409
0.00382938
0.00388774
0.00381063
0.00385838
0.00392728
0.00386232
0.00382849
0.00385221
0.00387501
0.00389042
0.00380412
0.00385414
0.00391659
0.00386428
0.00383523
0.00386382
0.00387225
0.0038896
0.00464038
0.00438363
0.00576796
0.00449609
0.00462552
0.00457501
0.00468873