/*--------------------------------*- C++ -*----------------------------------*\
| =========                 |                                                 |
| \\      /  F ield         | OpenFOAM: The Open Source CFD Toolbox           |
|  \\    /   O peration     | Version:  2412                                  |
|   \\  /    A nd           | Website:  www.openfoam.com                      |
|    \\/     M anipulation  |                                                 |
\*---------------------------------------------------------------------------*/
FoamFile
{
    version     2.0;
    format      ascii;
    arch        "LSB;label=32;scalar=64";
    class       volScalarField;
    location    "100";
    object      nut;
}
// * * * * * * * * * * * * * * * * * * * * * * * * * * * * * * * * * * * * * //

dimensions      [0 2 -1 0 0 0 0];

internalField   nonuniform List<scalar> 
43136
(
2.93758e-05
3.83208e-05
3.56067e-05
7.63161e-05
6.32095e-05
3.82199e-05
8.47329e-05
0.000104708
3.93719e-05
3.54724e-05
3.58716e-05
7.15435e-05
6.1599e-05
4.40441e-05
6.6238e-05
0.000147039
5.88061e-05
4.05222e-05
0.000162037
0.0001446
0.000135206
7.3514e-05
0.000110303
0.000229625
0.000124505
0.000145752
0.000135469
0.000168181
0.0001557
0.000150133
0.00015884
0.000219461
7.94033e-05
0.000140484
9.71329e-05
0.000126822
5.91852e-05
8.02447e-05
7.59531e-05
8.68477e-05
4.13596e-05
8.2478e-05
5.26903e-05
5.17179e-05
9.56916e-05
9.27261e-05
4.63877e-05
9.93913e-05
9.33456e-05
0.000136944
0.000128573
0.000161443
9.42521e-05
0.000151972
0.00019698
0.000141897
0.000161262
0.0002712
0.000157183
0.000173779
0.000109988
0.000126822
7.02738e-05
7.02519e-05
0.000103479
6.31431e-05
0.000109076
0.00010301
0.000143019
0.000106281
0.000104078
0.000153416
4.68084e-05
3.66762e-05
5.24159e-05
6.15505e-05
3.89464e-05
3.07936e-05
3.05712e-05
3.93004e-05
7.97926e-05
6.30106e-05
5.3294e-05
8.01047e-05
4.01822e-05
3.78592e-05
4.5025e-05
4.06784e-05
0.000104618
8.82713e-05
9.95012e-05
0.000104778
0.0001086
7.50292e-05
8.46767e-05
0.000110549
7.34923e-05
8.42883e-05
0.000119855
7.54467e-05
4.79977e-05
0.000100569
7.33273e-05
6.90117e-05
5.86554e-05
4.99132e-05
3.97919e-05
6.89562e-05
6.8978e-05
6.76755e-05
7.60992e-05
4.65638e-05
7.68456e-05
9.06574e-05
5.61138e-05
6.36927e-05
0.000100213
0.000111065
8.65315e-05
9.57232e-05
7.38196e-05
7.93437e-05
7.86882e-05
4.67365e-05
8.4423e-05
5.75545e-05
3.91476e-05
7.38566e-05
0.000228366
0.000364059
0.00020614
0.000293284
0.000210563
0.000263272
0.00015658
0.000214271
0.000487072
0.000340313
0.000317533
0.000485121
0.000261607
0.000210277
0.000231292
0.000164444
0.000223639
0.000231355
0.000175358
0.000191369
0.0002116
0.000238509
0.000217706
0.00018786
0.000221433
0.000270629
0.000196433
0.000218414
0.000172901
0.000217491
0.000128195
0.000133429
0.000301502
0.000198391
0.000288216
0.000188011
0.000265807
0.000264167
0.000331253
0.00027211
0.000308455
0.000338097
0.000191974
0.00025847
0.000251622
0.000314791
0.000320115
0.000216932
0.000205604
0.000145406
0.000144942
0.000164672
0.000227266
0.000234563
0.000231625
0.000250324
0.000221413
0.000149652
0.000148742
0.000148377
0.000287042
0.00026574
0.000198211
0.000348398
2.04853e-06
1.9936e-06
3.25738e-06
8.6816e-06
7.11105e-06
4.22183e-06
7.11373e-06
7.93753e-06
1.90704e-06
1.63091e-06
2.41904e-06
8.47067e-06
7.4958e-06
5.00417e-06
7.55335e-06
7.74857e-06
3.33788e-06
2.69635e-06
3.22315e-06
9.20691e-06
8.5831e-06
5.01618e-06
8.61612e-06
8.57149e-06
4.94872e-06
5.15593e-06
1.2613e-05
1.90667e-05
3.30687e-06
6.8961e-06
7.19202e-06
6.96618e-06
7.51385e-06
8.28723e-06
9.31412e-06
8.98323e-06
7.53829e-06
7.92731e-06
8.76997e-06
8.96065e-06
4.88634e-06
8.79975e-06
4.88939e-06
4.78319e-06
7.98146e-06
8.07633e-06
2.98179e-06
8.26885e-06
8.32308e-06
9.44452e-06
9.02662e-06
9.27522e-06
9.14882e-06
9.15799e-06
9.18358e-06
9.15937e-06
8.52551e-06
9.22716e-06
8.89092e-06
8.33761e-06
8.51018e-06
9.08431e-06
8.27801e-06
8.83498e-06
1.57306e-06
1.5568e-06
2.86456e-06
9.30661e-06
4.3215e-06
4.48149e-06
7.58144e-06
6.72501e-06
1.852e-06
1.84299e-06
1.77557e-06
1.13607e-05
8.15909e-06
4.77864e-06
8.18682e-06
8.30035e-06
3.26931e-06
1.97223e-06
2.60483e-06
1.20141e-05
9.27396e-06
4.51262e-06
9.13765e-06
9.37518e-06
7.60128e-06
6.29839e-06
4.97874e-06
2.05303e-05
2.95705e-06
4.89601e-06
8.34379e-06
4.53308e-06
6.69072e-06
4.39182e-06
1.03209e-05
1.14828e-05
7.91913e-06
8.35889e-06
6.78788e-06
1.04075e-05
5.14784e-06
1.1634e-05
4.37038e-06
3.31791e-06
7.11442e-06
8.15432e-06
2.43848e-06
8.31163e-06
8.44381e-06
1.05111e-05
1.17402e-05
1.17602e-05
1.05143e-05
1.05599e-05
1.14409e-05
1.12186e-05
5.72249e-06
1.19377e-05
1.1819e-05
8.4293e-06
8.90937e-06
1.17321e-05
8.4297e-06
1.19184e-05
0.000244773
5.71731e-05
0.000144491
0.00018604
0.000194085
0.000167972
0.000198273
0.000170074
4.4209e-05
3.69044e-05
6.28122e-05
7.55077e-05
0.000118579
9.59862e-05
8.51842e-05
0.000120236
0.000121517
8.03257e-05
0.000125654
0.000188451
0.000146235
8.42005e-05
0.000170248
0.000110026
0.000161515
0.000127639
0.000172673
0.000155669
0.000197516
0.000113542
0.000156913
0.000169267
0.000212789
0.000137704
0.000214983
0.000119478
0.000156297
0.000139677
8.47302e-05
0.000144203
0.000131905
8.31656e-05
8.41578e-05
9.51721e-05
0.000183551
0.000106445
6.13338e-05
0.000113528
0.000140207
0.00020673
8.55097e-05
0.000139853
0.00020138
0.000238296
0.000160092
0.000183981
0.000129277
0.000161386
0.000149079
0.000111046
0.00018599
0.000123231
0.000119186
0.000142073
0.000396897
0.000178833
0.000223188
0.000263855
0.000222599
0.000192242
0.000228937
0.000175416
9.99272e-05
9.28436e-05
6.0606e-05
0.000119381
6.74911e-05
6.09539e-05
7.21564e-05
5.57342e-05
0.000122565
7.31327e-05
5.88027e-05
9.08678e-05
6.62194e-05
6.82197e-05
7.857e-05
6.08454e-05
0.000220255
0.000174371
0.000139396
0.000216983
0.000156798
0.000142895
0.000180676
0.000194573
9.95865e-05
9.95755e-05
0.000167509
0.00011383
0.000103706
0.000181056
0.000176791
0.000143081
8.9714e-05
8.55369e-05
5.95559e-05
9.01883e-05
9.13807e-05
0.000104877
0.000145452
6.28471e-05
0.000130266
0.000184769
0.000110823
0.000138137
0.000196388
0.000171893
0.000121701
0.000168489
8.59769e-05
0.000124248
0.000135906
7.12273e-05
0.00010466
0.000102694
6.80951e-05
0.000110304
8.56726e-05
6.91358e-05
6.80729e-05
0.000112522
0.000101437
9.39213e-05
0.000102864
7.85815e-05
3.06816e-05
3.53351e-05
3.28005e-05
9.77002e-05
5.72564e-05
4.70349e-05
4.32257e-05
5.18004e-05
4.51254e-05
3.38869e-05
6.7087e-05
7.87148e-05
5.32181e-05
5.0307e-05
6.03992e-05
8.88613e-05
0.000119326
0.000142142
0.000122197
0.00016016
0.000144872
0.000133757
0.000131679
0.000169222
6.02789e-05
5.46311e-05
0.000128384
0.000104888
6.02689e-05
9.98022e-05
0.000106798
0.000110995
5.94315e-05
7.96208e-05
5.98255e-05
6.27184e-05
6.16673e-05
7.48375e-05
4.49135e-05
5.9891e-05
7.73033e-05
0.000120388
9.41496e-05
9.85932e-05
0.000109363
0.000118618
9.87986e-05
0.000119216
5.97639e-05
0.000140395
0.000110134
7.33287e-05
6.52471e-05
9.50533e-05
5.89564e-05
7.34897e-05
4.54161e-06
5.02154e-06
2.60785e-06
1.34145e-05
1.15395e-05
3.84266e-06
1.15753e-05
1.24632e-05
4.70313e-06
1.76797e-06
3.38719e-06
1.06009e-05
6.28869e-06
2.36276e-06
1.08825e-05
1.05696e-05
2.61692e-06
3.64475e-06
2.78086e-06
1.19136e-05
9.57152e-06
3.70201e-06
1.25679e-05
1.23093e-05
1.08719e-05
1.6814e-05
1.08067e-05
6.74633e-06
2.2848e-05
2.57324e-05
2.29976e-05
2.70914e-05
1.16073e-05
1.21305e-05
1.31187e-05
1.23992e-05
1.20027e-05
1.20018e-05
1.23598e-05
1.23922e-05
3.93215e-06
1.1029e-05
3.25698e-06
5.10157e-06
1.22279e-05
1.16533e-05
3.44728e-06
1.00081e-05
1.23356e-05
1.31656e-05
1.24458e-05
1.24498e-05
1.24951e-05
1.24194e-05
1.24582e-05
1.24813e-05
1.25161e-05
1.17174e-05
1.12707e-05
1.17465e-05
1.23526e-05
1.1491e-05
1.19495e-05
1.14075e-05
7.4798e-05
6.96874e-05
0.000163605
0.000123879
9.28652e-05
8.10689e-05
0.00011166
0.000117632
6.75036e-05
5.79052e-05
0.00020543
0.000175
8.35786e-05
7.45974e-05
8.78009e-05
0.000104551
0.000257392
0.00039075
0.000470859
0.000179145
0.000210966
0.000270459
0.00024754
0.000268525
5.60485e-05
9.97607e-05
7.68054e-05
4.05434e-05
4.64122e-05
5.5184e-05
8.97111e-05
5.84971e-05
9.13299e-05
0.000147009
6.88483e-05
6.0737e-05
8.91706e-05
0.000122055
0.00017286
5.78261e-05
7.63496e-05
5.45128e-05
0.000149227
0.00016283
0.000103916
0.000106521
0.000175335
0.000126058
0.000183748
8.83272e-05
6.42551e-05
0.000112882
0.000127389
7.08993e-05
9.04293e-05
6.57424e-05
0.000170472
0.000112723
6.55845e-05
0.000156276
0.000231777
9.23885e-05
0.00013219
0.000257918
9.49689e-05
0.000144818
7.49043e-05
9.92098e-05
0.000182136
0.000128451
0.000179271
0.000164231
0.000213974
0.000169626
7.70652e-05
0.000168006
0.000381657
0.000233774
0.000233381
0.000219363
5.86777e-05
4.12979e-05
4.10896e-05
8.92148e-05
4.87396e-05
4.30353e-05
4.69788e-05
4.51417e-05
0.000104153
0.000155566
0.000127964
0.000136211
0.000146866
0.000160323
0.000180943
0.000129197
0.000368017
8.95995e-05
0.000147569
0.00021636
0.000223603
0.000153755
0.000158377
0.000142183
0.000228041
0.000175245
9.67609e-05
6.67963e-05
0.000230535
0.000163677
8.64984e-05
0.0001158
8.33495e-05
0.000176899
0.000196673
0.000111048
9.28837e-05
0.000127335
9.65278e-05
0.000159566
8.47528e-05
8.07428e-05
0.000167682
0.000104271
9.4332e-05
9.95776e-05
0.000117803
8.89228e-05
4.9451e-05
2.56629e-05
5.00526e-05
3.04657e-05
4.46361e-05
3.77739e-05
3.8827e-05
5.95928e-05
2.03867e-05
2.54608e-05
4.8385e-05
3.51163e-05
3.19053e-05
3.78312e-05
4.17193e-05
4.51518e-05
7.17639e-05
7.55601e-05
8.0203e-05
5.25251e-05
7.25979e-05
9.71258e-05
9.55845e-05
0.000100837
3.60525e-05
3.24974e-05
3.18058e-05
2.01171e-05
2.71077e-05
3.28169e-05
3.17608e-05
3.90918e-05
3.20768e-05
4.65378e-05
3.217e-05
3.45876e-05
3.86429e-05
5.01289e-05
2.25702e-05
3.63729e-05
4.01354e-05
4.38128e-05
6.63428e-05
8.76663e-05
4.80946e-05
4.87104e-05
4.54055e-05
4.17864e-05
6.18463e-05
3.09657e-05
3.68551e-05
5.16643e-05
4.25333e-05
5.44658e-05
3.90921e-05
3.67932e-05
8.72365e-05
6.18789e-05
5.3325e-05
7.8481e-05
6.56383e-05
6.09246e-05
6.67031e-05
4.55538e-05
7.80886e-05
8.47582e-05
9.19249e-05
4.6165e-05
7.63472e-05
7.99386e-05
4.60243e-05
7.6445e-05
8.85047e-05
9.08446e-05
0.000117321
7.21209e-05
8.08939e-05
8.22821e-05
9.9831e-05
0.000116499
0.000167574
0.000177357
0.000157347
7.16034e-05
0.000161703
0.000207535
8.53719e-05
0.000224381
2.28077e-05
3.86456e-05
4.32895e-05
2.16344e-05
2.41227e-05
3.65837e-05
2.80579e-05
4.61919e-05
7.85757e-05
8.048e-05
4.19301e-05
4.6546e-05
0.000103337
7.56996e-05
5.90485e-05
4.03135e-05
8.05169e-05
4.72475e-05
0.000146261
0.00013759
9.37371e-05
9.80416e-05
0.000114385
0.000114005
0.000121957
4.39764e-05
6.18351e-05
3.49248e-05
5.5606e-05
4.64672e-05
6.3595e-05
5.35284e-05
0.000112591
9.28296e-05
6.74125e-05
0.000164601
0.000139811
7.90051e-05
0.000127575
7.7383e-05
2.41887e-05
5.21724e-05
5.33141e-05
2.95723e-05
2.12491e-05
3.03852e-05
3.32574e-05
3.12264e-05
6.56895e-05
0.00011549
0.000112555
9.59659e-05
7.01264e-05
7.70345e-05
9.48126e-05
8.93217e-05
7.6735e-05
0.000120526
0.000106325
6.6809e-05
7.59843e-05
9.21037e-05
8.70538e-05
0.000105494
3.43095e-05
6.59298e-05
4.37823e-05
4.09631e-05
3.74079e-05
4.02179e-05
3.59527e-05
4.60998e-05
4.63001e-05
3.83308e-05
3.65349e-05
5.49226e-05
6.22796e-05
5.85482e-05
4.7859e-05
3.58258e-05
4.96125e-05
6.11256e-05
8.40121e-05
5.24546e-05
5.7545e-05
8.21565e-05
9.12876e-05
6.77863e-05
4.34964e-05
3.62981e-05
7.23147e-05
5.63598e-05
5.04632e-05
4.31233e-05
4.69923e-05
6.15926e-05
6.66168e-05
6.3549e-05
6.94735e-05
9.90662e-05
8.01205e-05
6.01669e-05
8.90215e-05
8.44067e-05
0.000351993
0.000463759
0.000155836
0.000166796
0.000147546
0.000160488
0.000146522
0.000101066
0.000306649
8.53172e-05
8.72418e-05
0.00011782
5.65902e-05
5.31987e-05
8.30842e-05
5.16061e-05
9.34827e-05
5.69005e-05
3.54249e-05
9.77588e-05
3.87726e-05
4.46416e-05
5.20008e-05
3.16995e-05
0.000150619
0.000122185
0.000102389
0.000147048
0.000146605
0.000137633
0.000133536
0.000123526
0.00013025
8.84998e-05
0.000150533
0.000123475
0.000148403
0.000148315
0.000143736
0.000167004
0.000131202
0.000135873
4.80508e-05
9.87479e-05
9.67024e-05
0.000166379
0.000144256
4.44801e-05
9.65344e-05
0.000141917
0.000113737
8.5999e-05
0.000131965
9.23707e-05
8.84017e-05
0.000119434
5.77296e-05
7.4501e-05
0.000103002
3.98516e-05
9.17733e-05
0.000106351
6.90531e-05
0.000104663
4.28493e-05
2.48488e-05
3.37259e-05
8.73137e-05
5.21277e-05
3.30122e-05
5.64584e-05
4.52842e-05
2.23273e-05
2.54411e-05
2.15504e-05
0.000108019
3.44581e-05
2.3193e-05
4.61323e-05
3.06103e-05
3.34188e-05
2.73895e-05
2.72458e-05
0.000100941
4.45037e-05
2.80776e-05
6.70599e-05
4.57506e-05
0.000127596
0.000173843
0.000153217
0.00025028
0.000110707
0.000126164
0.000125509
0.000126241
4.18203e-05
3.91227e-05
8.29498e-05
6.99692e-05
5.61302e-05
8.24039e-05
8.89566e-05
0.000113353
3.19957e-05
7.3686e-05
2.73509e-05
3.14686e-05
4.11491e-05
9.31771e-05
3.6132e-05
3.89547e-05
6.11621e-05
9.44934e-05
8.7174e-05
0.000113832
0.000106841
0.000100581
0.000100711
0.000149299
3.50431e-05
9.66691e-05
7.13774e-05
3.58245e-05
8.99507e-05
0.000102534
6.1093e-05
0.000123878
0.000319757
0.000188752
0.000108239
0.000302502
0.000120246
0.000127147
0.000207196
0.000107595
0.00014917
0.000162883
0.000109938
0.000155545
0.000147921
0.000116096
0.000126768
0.000120375
5.6147e-05
9.83689e-05
2.90805e-05
4.78156e-05
3.68451e-05
5.07499e-05
4.28974e-05
2.67496e-05
0.000185461
0.000142456
4.01976e-05
9.70854e-05
5.45919e-05
6.84907e-05
7.00965e-05
4.56612e-05
0.000136964
6.31603e-05
7.78413e-05
0.000100159
0.00014346
0.000114662
0.000167544
8.68537e-05
0.000113363
9.59634e-05
8.91745e-05
8.12896e-05
0.000108848
0.000124877
0.000139297
7.6211e-05
9.66579e-05
0.000110721
0.000100137
4.00854e-05
7.03243e-05
6.515e-05
3.2723e-05
8.48379e-05
5.58535e-05
2.91049e-05
8.41629e-05
6.68875e-05
6.76489e-05
4.16595e-05
8.28616e-05
0.000107425
4.20788e-06
6.56853e-06
7.57906e-06
8.13657e-06
6.33824e-06
6.57387e-06
9.99234e-06
9.647e-06
6.87349e-06
7.12006e-06
1.48906e-05
1.42305e-05
6.94395e-06
7.08316e-06
9.90915e-06
9.89568e-06
1.43779e-05
2.7211e-05
2.56338e-05
6.29276e-05
1.31448e-05
1.75526e-05
1.34014e-05
1.5519e-05
7.84541e-06
1.01301e-05
4.86688e-05
2.73245e-05
1.50553e-05
1.06922e-05
1.08946e-05
1.16388e-05
6.6469e-06
1.2946e-05
9.39099e-06
1.44038e-05
9.81494e-06
9.70539e-06
7.6661e-06
1.12268e-05
6.785e-06
1.43586e-05
1.49624e-05
1.52982e-05
9.76891e-06
9.84311e-06
7.95013e-06
1.48341e-05
7.55478e-06
5.08011e-06
8.95818e-06
1.0445e-05
2.22679e-05
5.35257e-06
9.07177e-06
2.46982e-05
7.58377e-06
1.04595e-05
1.02906e-05
1.04708e-05
1.67319e-05
1.07164e-05
1.18152e-05
2.08707e-05
5.16824e-06
5.53487e-06
8.67508e-06
1.1485e-05
5.28886e-06
5.40954e-06
7.38613e-06
6.97715e-06
5.85296e-06
6.08956e-06
8.48523e-06
1.11609e-05
5.90882e-06
5.9635e-06
6.70697e-06
6.62779e-06
1.15824e-05
9.47194e-06
2.92923e-05
2.13449e-05
1.57944e-05
1.30136e-05
9.34445e-06
9.06098e-06
9.68933e-06
8.48062e-06
2.56106e-05
1.67227e-05
1.76634e-05
1.30982e-05
1.09112e-05
1.39519e-05
5.6283e-06
8.70438e-06
1.16018e-05
1.12693e-05
6.85529e-06
7.05919e-06
1.1316e-05
1.15599e-05
5.72889e-06
1.12209e-05
8.5599e-06
8.759e-06
6.7223e-06
6.79422e-06
8.5923e-06
8.47934e-06
7.75632e-06
8.51084e-06
1.41634e-05
1.53155e-05
3.17378e-05
8.65605e-06
1.87883e-05
2.23856e-05
1.03019e-05
1.92414e-05
1.82777e-05
1.44306e-05
1.56866e-05
1.21492e-05
1.51282e-05
8.34025e-06
6.5892e-06
3.47721e-06
7.95096e-06
1.41294e-05
7.45628e-06
7.73476e-06
7.76137e-06
7.7691e-06
7.28848e-06
2.56957e-05
1.52585e-05
2.11217e-05
1.73773e-05
1.61636e-05
1.98981e-05
3.61577e-05
8.17031e-06
8.18615e-06
8.33084e-06
1.59022e-05
8.08543e-06
8.21959e-06
8.12433e-06
8.15309e-06
1.45898e-05
2.02515e-05
1.05948e-05
1.29635e-05
1.42509e-05
2.91909e-05
1.53543e-05
2.86684e-05
6.47485e-06
7.86739e-06
7.13924e-06
1.5564e-05
6.41188e-06
7.79518e-06
4.29728e-06
9.12751e-06
6.20456e-06
1.87257e-05
9.99839e-06
8.02027e-06
1.18673e-05
1.93178e-05
7.04369e-06
1.5054e-05
8.00777e-06
9.69755e-06
3.06416e-05
1.68912e-05
1.03119e-05
9.60106e-06
1.60535e-05
1.71538e-05
7.99878e-06
1.68913e-05
3.83468e-05
1.69593e-05
8.02881e-06
1.61368e-05
1.02297e-05
5.53179e-06
5.45478e-05
2.50545e-05
5.13917e-05
2.91807e-05
6.59434e-05
6.07249e-05
6.74851e-05
5.97914e-05
1.9723e-05
2.75545e-05
6.41149e-05
4.63121e-05
3.02678e-05
6.50232e-05
7.52023e-05
6.9502e-05
0.00011653
0.000118115
0.00029504
0.000109781
0.000137782
0.000264952
0.00021344
0.000276206
2.23769e-05
4.49389e-05
6.30185e-05
3.22278e-05
3.33298e-05
6.92949e-05
5.96931e-05
6.96542e-05
4.31153e-05
6.46813e-05
4.06568e-05
3.72395e-05
9.05142e-05
5.99937e-05
2.2241e-05
8.32319e-05
7.98544e-05
8.37257e-05
9.23651e-05
0.000247924
5.26496e-05
5.71019e-05
5.5714e-05
5.52807e-05
0.000215757
8.07951e-05
7.39735e-05
8.90449e-05
5.78065e-05
6.35025e-05
6.24818e-05
6.19671e-05
0.000150219
0.000110912
6.02647e-05
0.000107164
0.00010814
0.000112593
0.000115791
7.29577e-05
1.50528e-05
2.71941e-05
2.02787e-05
3.85043e-05
7.43502e-05
6.96501e-05
1.39576e-05
6.77083e-05
2.04955e-05
2.94563e-05
1.21589e-05
2.23893e-05
3.01146e-05
9.64092e-06
1.74476e-05
1.12173e-05
9.30686e-06
8.55792e-06
6.11775e-06
1.13346e-05
9.25704e-06
6.95719e-06
1.00165e-05
6.66759e-06
7.18709e-05
2.70147e-05
9.5772e-06
2.14261e-05
3.77269e-05
3.35147e-05
1.79459e-05
1.30075e-05
2.38463e-05
2.27346e-05
4.19358e-05
3.06908e-05
2.34631e-05
2.48349e-05
2.57159e-05
3.85478e-05
1.50098e-05
2.32305e-05
1.65354e-05
1.97002e-05
1.59308e-05
1.41028e-05
2.10167e-05
2.03989e-05
1.92707e-05
1.39571e-05
2.87325e-05
1.22708e-05
1.00859e-05
2.34967e-05
2.56687e-05
1.64232e-05
1.88278e-05
1.83178e-05
1.84712e-05
1.45034e-05
1.78963e-05
1.99632e-05
1.30391e-05
1.38901e-05
2.53537e-05
6.97336e-05
6.08324e-05
2.64736e-05
3.17974e-05
4.48979e-05
3.96869e-05
4.25495e-05
0.000129581
0.000200717
0.000194041
0.000161382
0.0001255
0.000157103
0.000140586
0.000165889
0.000125038
0.000223194
0.000179835
9.58276e-05
0.00012181
0.0001468
0.000106665
0.000197933
3.23182e-05
9.05425e-05
6.89326e-05
5.21528e-05
3.38449e-05
5.84472e-05
4.58363e-05
4.54962e-05
7.15775e-05
5.51112e-05
4.24976e-05
8.23289e-05
8.33813e-05
7.03523e-05
7.17406e-05
5.51302e-05
9.62336e-05
0.000108377
0.000143488
6.42339e-05
0.000101601
0.00013387
0.000137933
0.00012481
5.30116e-05
4.55863e-05
9.28027e-05
6.03434e-05
4.20308e-05
4.54276e-05
5.67631e-05
8.12127e-05
7.01083e-05
8.31612e-05
0.000111399
0.000175091
0.000126865
8.2503e-05
0.000127695
0.000144238
7.661e-05
0.000103964
6.39389e-05
7.02825e-05
0.000106286
8.8018e-05
8.30121e-05
0.000104543
0.000110559
0.000126173
0.000111765
9.98186e-05
8.47878e-05
7.06469e-05
6.16117e-05
6.84844e-05
5.89807e-05
0.000112499
5.29399e-05
7.19155e-05
3.22166e-05
3.2837e-05
3.19048e-05
2.9282e-05
6.49124e-05
8.58231e-05
7.43128e-05
6.69591e-05
3.81092e-05
3.3607e-05
3.30001e-05
3.49137e-05
8.42457e-05
5.42714e-05
5.82668e-05
6.606e-05
6.65696e-05
7.33349e-05
8.46247e-05
5.89484e-05
8.311e-05
5.06662e-05
5.17401e-05
5.49594e-05
8.0586e-05
8.69568e-05
8.82235e-05
6.49862e-05
4.93985e-05
5.2356e-05
4.61659e-05
3.79173e-05
6.56274e-05
5.44542e-05
4.24682e-05
6.50993e-05
5.10173e-05
3.50317e-05
5.084e-05
4.98379e-05
5.77482e-05
3.70019e-05
4.86028e-05
8.59316e-05
2.87101e-06
3.16674e-06
5.04329e-06
7.19297e-06
3.07051e-06
3.30782e-06
5.33866e-06
5.20948e-06
3.57396e-06
5.02568e-06
9.92034e-06
6.6898e-06
3.84422e-06
4.95808e-06
5.70582e-06
8.42878e-06
7.0077e-06
9.1972e-06
8.84253e-06
1.00741e-05
7.32005e-06
8.5147e-06
9.01936e-06
8.94236e-06
7.75449e-06
1.1633e-05
8.42877e-06
1.15897e-05
7.50918e-06
5.83757e-06
8.71835e-06
5.91292e-06
3.38044e-06
5.36312e-06
7.8476e-06
7.38593e-06
5.38149e-06
5.33908e-06
6.80353e-06
7.32992e-06
3.65357e-06
7.06375e-06
8.79858e-06
5.77673e-06
5.4449e-06
5.65422e-06
5.48597e-06
5.8372e-06
7.89356e-06
4.9426e-06
1.02022e-05
6.2269e-06
1.01326e-05
1.15264e-05
1.09572e-05
1.1545e-05
7.31942e-06
1.16765e-05
1.00338e-05
8.55461e-06
7.3688e-06
9.59545e-06
7.38995e-06
9.12554e-06
8.8822e-06
9.08903e-06
8.77844e-06
1.03862e-05
9.01157e-06
9.08048e-06
9.11631e-06
8.95778e-06
9.31537e-06
6.56683e-06
6.4747e-06
6.55746e-06
7.92306e-06
6.60113e-06
7.09866e-06
5.58899e-06
7.035e-06
6.41104e-06
6.72158e-06
7.33661e-06
6.45368e-06
6.39064e-06
6.28908e-06
5.46789e-06
8.88257e-06
1.49231e-05
7.08006e-06
7.96707e-06
1.99185e-05
1.49961e-05
1.79337e-05
1.69971e-05
8.86999e-06
8.48122e-06
1.07612e-05
8.63012e-06
8.72658e-06
8.77085e-06
9.03056e-06
9.04704e-06
9.31921e-06
6.57129e-06
6.4686e-06
7.904e-06
8.41568e-06
7.07053e-06
7.89181e-06
6.90096e-06
8.16391e-06
1.08281e-05
8.48287e-06
8.4388e-06
8.73748e-06
9.07215e-06
8.12503e-06
8.99165e-06
7.3372e-06
7.13452e-06
6.85514e-06
5.42512e-06
6.48213e-06
6.51766e-06
6.45321e-06
6.50834e-06
2.75382e-06
3.34884e-06
5.34799e-06
7.15131e-06
3.67291e-06
3.58184e-06
5.10926e-06
5.99925e-06
3.91979e-06
5.13631e-06
9.47899e-06
2.65924e-05
4.45597e-06
5.34139e-06
7.17378e-06
8.45356e-06
8.31722e-06
1.58186e-05
9.48042e-06
0.000219813
1.52833e-05
1.71021e-05
2.22618e-05
2.53312e-05
1.93324e-06
4.18066e-05
5.43037e-05
1.62201e-06
3.43319e-06
2.33179e-05
1.74266e-06
4.41874e-05
3.71498e-06
5.73526e-06
1.17356e-05
2.1154e-05
6.15711e-06
5.99778e-06
8.69335e-06
7.65226e-06
4.02964e-06
3.06597e-05
9.74642e-06
6.1685e-06
6.11164e-06
6.98956e-06
5.95003e-06
7.74473e-06
8.59998e-06
2.48808e-06
3.62754e-05
6.20998e-05
1.13908e-05
7.81442e-06
4.98336e-05
2.63381e-05
8.45259e-06
0.000183037
7.01627e-05
1.56471e-05
1.32813e-05
3.98428e-05
1.55866e-05
8.21923e-05
4.07266e-06
1.73407e-05
7.01582e-05
0.000124762
1.98228e-05
2.1721e-05
0.000123568
9.53925e-05
1.20131e-05
6.84379e-06
7.461e-05
0.000125457
1.14543e-05
1.14183e-05
6.85708e-05
5.03865e-05
8.00443e-05
0.000121484
5.10412e-05
0.000143641
0.000117788
0.000116501
9.94399e-05
0.00010656
7.50578e-05
5.59646e-05
5.60826e-05
2.70211e-06
5.81748e-05
6.20536e-05
5.23365e-05
5.72373e-05
2.02997e-05
0.000115842
0.000252924
0.000185071
0.000122038
0.000143666
0.00016956
0.000253239
1.97868e-05
0.000182786
0.00010631
0.000113276
9.29865e-05
0.000109742
0.000100874
0.000107257
0.000121724
0.000244429
0.000200154
0.000163756
0.000213792
0.000245537
0.000218465
0.00023103
0.000116366
0.000181597
0.000194457
0.000125241
0.000139378
0.000214387
0.000137104
0.000201799
3.60431e-06
3.33477e-06
4.94281e-06
7.39242e-06
3.84954e-06
3.55646e-06
6.05696e-06
5.31463e-06
4.89679e-06
8.99925e-06
2.41336e-05
6.93517e-06
5.19892e-06
9.94151e-06
6.29882e-06
2.12422e-05
6.75078e-06
2.13452e-05
1.27477e-05
9.92139e-06
7.3753e-06
1.43904e-05
8.77138e-06
1.18743e-05
1.01234e-05
1.34139e-05
1.54012e-05
1.32134e-05
9.7653e-06
1.18545e-05
8.61547e-06
1.51024e-05
3.60959e-06
5.48924e-06
8.16511e-06
7.5235e-06
5.49538e-06
5.44122e-06
6.76358e-06
7.34184e-06
4.82496e-06
7.21761e-06
2.39954e-05
5.69529e-06
5.99927e-06
6.21266e-06
6.20581e-06
6.5881e-06
8.29195e-06
8.32119e-06
1.12847e-05
1.30052e-05
9.56217e-06
1.05036e-05
1.03899e-05
1.07644e-05
7.31841e-06
1.07396e-05
9.5161e-06
1.7606e-05
7.42747e-06
9.22525e-06
7.69764e-06
8.85641e-06
1.48036e-05
2.32813e-05
2.4389e-05
1.0202e-05
1.72393e-05
2.36241e-05
1.94902e-05
2.33707e-05
2.65627e-05
1.08327e-05
1.31342e-05
6.9012e-06
1.98731e-05
9.78452e-06
1.73742e-05
1.25671e-05
1.95795e-05
1.22811e-05
1.08664e-05
7.39688e-06
1.35693e-05
1.23094e-05
1.23513e-05
1.11683e-05
1.56494e-05
1.29045e-05
1.34765e-05
7.43143e-06
1.6007e-05
1.29707e-05
1.6435e-05
1.41829e-05
2.27154e-05
2.37542e-05
1.00519e-05
8.44204e-06
2.35558e-05
2.3046e-05
8.88272e-06
9.00771e-06
3.13461e-05
6.93899e-06
1.01935e-05
2.60244e-05
2.67359e-05
1.68556e-05
2.49725e-05
1.61339e-05
2.24397e-05
1.00098e-05
8.23968e-06
8.10826e-06
8.7378e-06
8.82335e-06
8.09947e-06
8.61086e-06
2.17902e-05
7.18906e-06
7.01516e-06
1.24365e-05
1.39659e-05
7.12361e-06
1.44159e-05
7.10109e-06
3.51641e-06
5.45825e-06
3.7082e-06
6.71734e-06
4.33924e-06
4.07637e-06
4.36169e-06
4.16802e-06
7.23635e-06
1.17615e-05
1.66425e-05
8.86023e-06
7.97857e-06
1.30867e-05
7.99711e-06
1.21304e-05
4.83582e-06
1.7234e-05
8.05442e-06
6.51783e-06
5.29393e-06
1.04563e-05
5.28508e-06
9.25534e-06
1.38649e-05
1.42799e-05
1.07991e-05
1.6287e-05
1.93367e-05
1.26001e-05
1.72924e-05
1.37082e-05
6.50601e-06
4.26162e-06
8.73516e-06
1.04881e-05
6.68013e-06
4.84915e-06
8.52018e-06
6.86759e-06
6.51792e-06
8.65023e-06
1.73746e-05
5.10965e-06
6.59966e-06
7.1343e-06
6.27548e-06
6.84392e-06
4.29667e-06
8.81597e-06
1.07061e-05
7.28505e-06
6.01845e-06
7.24949e-06
7.13051e-06
8.36189e-06
5.00559e-06
7.12213e-06
9.07712e-06
1.525e-05
5.62149e-06
6.96158e-06
6.84956e-06
8.18393e-06
9.28172e-06
9.31278e-06
9.76336e-06
7.66316e-06
8.34434e-06
9.28983e-06
8.52363e-06
8.82454e-06
9.84604e-06
1.01619e-05
1.44707e-05
6.77326e-06
8.92061e-06
1.02945e-05
9.05218e-06
9.54577e-06
1.43729e-05
1.61113e-05
1.25015e-05
8.86407e-06
1.51014e-05
1.61492e-05
1.37574e-05
1.3491e-05
1.3604e-05
1.10085e-05
1.3785e-05
1.42437e-05
1.28266e-05
1.10417e-05
1.38322e-05
1.27753e-05
8.93238e-06
1.02533e-05
7.82851e-06
7.33001e-06
8.82442e-06
8.66767e-06
7.17013e-06
7.20399e-06
9.88205e-06
6.84037e-06
1.46416e-05
1.12901e-05
9.11488e-06
8.86154e-06
1.12377e-05
1.23267e-05
1.16096e-05
7.99754e-06
7.3878e-06
8.59597e-06
7.67743e-06
7.5147e-06
7.72541e-06
7.63256e-06
1.29432e-05
8.6301e-06
7.024e-06
1.5019e-05
1.36425e-05
7.82252e-06
1.38774e-05
7.7783e-06
9.5975e-06
1.52686e-05
8.22225e-06
1.95542e-05
9.58281e-06
9.43482e-06
9.7267e-06
8.91748e-06
1.83812e-05
3.16372e-05
1.24212e-05
1.78282e-05
3.54943e-05
1.89274e-05
1.77105e-05
2.30501e-05
6.97207e-06
1.19741e-05
6.3875e-06
1.45953e-05
6.8193e-06
6.7057e-06
6.87305e-06
6.33713e-06
2.68319e-05
1.7042e-05
1.51661e-05
3.09072e-05
9.68242e-05
2.57424e-05
3.01449e-05
3.32414e-05
1.5255e-05
8.12424e-06
1.97043e-05
4.058e-05
1.53251e-05
9.46765e-06
2.2308e-05
1.91441e-05
1.5158e-05
1.87333e-05
1.27972e-05
7.94926e-06
1.41684e-05
1.5134e-05
1.29734e-05
1.29195e-05
8.23962e-06
2.01632e-05
2.19938e-05
1.65207e-05
1.62433e-05
1.81042e-05
1.63152e-05
1.96045e-05
7.52196e-06
1.52163e-05
1.81485e-05
1.21373e-05
7.90322e-06
1.59559e-05
1.2923e-05
1.36904e-05
0.000291096
0.000119621
0.00011558
0.00020711
0.000120417
0.000130865
0.000135429
0.00012029
6.96981e-05
3.49808e-05
4.58484e-05
2.13811e-05
2.52565e-05
2.43477e-05
2.86924e-05
2.6022e-05
0.000106223
5.99744e-05
9.55431e-05
2.95132e-05
6.92169e-05
6.64018e-05
8.53747e-05
6.72486e-05
0.000131941
4.64637e-05
1.80473e-05
2.36328e-05
4.65469e-05
4.5553e-05
6.15147e-05
5.34288e-05
6.50186e-05
0.000103002
8.1655e-05
3.90439e-05
6.46904e-05
0.000127984
8.39405e-05
7.60951e-05
6.45324e-05
3.97795e-05
3.68846e-05
0.000102053
7.68343e-05
0.000113344
9.66698e-05
4.16596e-05
0.000126036
9.44429e-05
3.67773e-05
6.77853e-05
5.23548e-05
6.78416e-05
5.85229e-05
5.82969e-05
0.000108142
5.2507e-05
3.51691e-05
4.09597e-05
8.74076e-05
6.31849e-05
4.1359e-05
2.39242e-05
2.4508e-06
1.84282e-06
3.7403e-06
1.23219e-05
9.57412e-06
5.94043e-06
9.59377e-06
9.57957e-06
1.60216e-06
1.75574e-06
2.00168e-06
1.1448e-05
7.9261e-06
3.89316e-06
7.75939e-06
7.74072e-06
3.26199e-06
2.1289e-06
1.89601e-06
7.89299e-06
6.80998e-06
4.47266e-06
7.16846e-06
3.7543e-06
1.40465e-05
7.35052e-06
2.95898e-05
1.94334e-05
7.84612e-06
7.70544e-06
2.22504e-05
6.92452e-06
8.68685e-06
9.33785e-06
1.2413e-05
1.19679e-05
8.60798e-06
9.51312e-06
1.20766e-05
1.22787e-05
4.18902e-06
1.1666e-05
3.83063e-06
4.80606e-06
8.54811e-06
8.26134e-06
2.67593e-06
6.45058e-06
8.96e-06
1.24681e-05
1.19357e-05
1.25717e-05
1.20684e-05
1.23011e-05
1.23867e-05
1.25002e-05
7.45575e-06
1.15293e-05
1.16377e-05
5.13001e-06
8.68259e-06
1.13614e-05
7.98721e-06
9.88636e-06
2.63263e-05
4.24236e-05
3.50589e-05
2.20879e-05
4.88848e-05
0.000101526
0.000125118
4.81933e-05
4.99613e-05
3.96693e-05
4.77807e-05
4.19896e-05
5.7499e-05
3.98986e-05
4.55558e-05
3.85934e-05
4.61758e-05
7.84739e-05
0.000106122
8.04284e-05
6.0347e-05
9.38469e-05
8.5325e-05
7.57208e-05
2.07544e-05
4.22242e-05
5.62042e-05
3.3095e-05
4.21249e-05
5.52984e-05
5.52836e-05
4.40163e-05
8.18699e-05
4.72965e-05
4.32497e-05
6.9721e-05
6.68529e-05
4.02592e-05
3.73077e-05
8.38682e-05
5.36987e-05
4.67368e-05
6.96041e-05
0.000109797
4.09503e-05
3.45556e-05
3.29137e-05
4.21696e-05
0.000106464
9.90026e-05
5.00146e-05
6.61745e-05
4.17502e-05
4.68779e-05
4.80664e-05
4.13435e-05
5.80285e-05
6.72505e-05
4.31025e-05
5.87531e-05
5.05628e-05
7.46201e-05
7.62091e-05
5.81689e-05
3.76921e-05
1.62661e-05
3.6906e-05
2.63492e-05
3.12879e-05
2.13961e-05
2.83944e-05
4.27343e-05
1.19505e-05
4.86637e-06
8.92294e-06
1.18893e-05
4.26654e-06
7.24202e-06
5.28627e-06
8.21822e-06
2.73075e-05
1.59087e-05
2.25826e-05
1.64639e-05
2.33278e-05
1.04251e-05
2.35901e-05
2.24319e-05
2.05804e-05
1.35573e-05
2.16441e-05
1.98384e-05
1.72517e-05
1.73743e-05
2.01169e-05
3.04574e-05
8.19449e-06
3.46206e-05
2.44163e-05
1.38181e-05
7.38471e-06
1.90259e-05
1.0938e-05
1.40806e-05
5.92353e-06
1.8228e-05
5.30962e-06
9.88359e-06
1.03199e-05
1.08375e-05
1.02989e-05
1.91789e-05
2.54082e-05
2.45748e-05
1.46883e-05
1.94421e-05
2.33495e-05
3.14555e-05
2.13435e-05
1.58872e-05
2.93835e-05
2.02081e-05
2.14977e-05
2.22869e-05
1.21945e-05
1.27199e-05
1.08983e-05
1.2681e-05
1.97216e-06
1.64157e-06
3.22414e-06
8.81072e-06
7.61057e-06
4.58151e-06
7.68285e-06
7.66607e-06
1.63972e-06
1.72834e-06
1.62482e-06
9.26047e-06
7.04449e-06
4.0558e-06
6.92939e-06
6.94185e-06
3.2401e-06
1.59556e-06
1.77964e-06
7.70392e-06
7.49386e-06
4.89626e-06
7.1769e-06
5.06479e-06
7.21909e-06
6.05388e-06
6.43015e-06
1.8522e-05
7.36642e-06
5.87338e-06
9.17768e-06
4.58208e-06
7.25307e-06
7.74791e-06
8.60046e-06
9.24721e-06
7.24974e-06
7.6768e-06
9.23751e-06
8.5326e-06
3.96588e-06
9.14413e-06
4.82472e-06
4.28432e-06
7.25907e-06
7.19488e-06
2.54284e-06
7.22845e-06
7.70601e-06
8.62558e-06
9.29879e-06
8.34792e-06
8.30158e-06
8.44981e-06
8.32243e-06
8.52822e-06
7.67903e-06
8.18031e-06
9.14422e-06
7.01137e-06
7.53394e-06
8.28438e-06
7.06268e-06
8.87572e-06
2.81009e-06
3.31047e-06
1.95809e-06
8.25862e-06
6.20457e-06
2.32504e-06
6.1976e-06
7.2387e-06
3.55128e-06
1.72077e-06
2.68906e-06
7.91642e-06
4.96424e-06
2.0949e-06
6.68626e-06
7.901e-06