/*--------------------------------*- C++ -*----------------------------------*\
| =========                 |                                                 |
| \\      /  F ield         | OpenFOAM: The Open Source CFD Toolbox           |
|  \\    /   O peration     | Version:  2412                                  |
|   \\  /    A nd           | Website:  www.openfoam.com                      |
|    \\/     M anipulation  |                                                 |
\*---------------------------------------------------------------------------*/
FoamFile
{
    version     2.0;
    format      ascii;
    arch        "LSB;label=32;scalar=64";
    class       volScalarField;
    location    "100";
    object      omega;
}
// * * * * * * * * * * * * * * * * * * * * * * * * * * * * * * * * * * * * * //

dimensions      [0 0 -1 0 0 0 0];

internalField   nonuniform List<scalar> 
43136
(
8.47756
8.05932
9.1938
6.65822
7.77949
8.73705
7.70063
8.27329
7.87421
7.99329
8.32525
6.62826
7.52935
8.10407
7.53494
7.79589
9.85662
9.77576
10.2165
6.64518
9.0063
10.1491
8.65507
9.33578
6.10337
6.10136
6.13262
5.99252
6.05489
6.10323
6.06453
6.09055
7.51832
8.43153
6.43699
6.40548
7.56194
7.96494
6.57886
6.57604
8.64062
6.57091
9.42668
9.61615
8.13935
7.84768
9.23915
8.41798
8.22194
6.41337
6.39069
6.47603
6.62307
6.50971
6.52164
6.44637
8.95029
6.55589
6.49387
8.78254
8.50077
6.64321
8.27965
6.6291
6.04572
6.55686
6.27099
6.17146
6.0886
6.21217
6.13433
6.21853
7.96226
12.5349
9.51734
8.73118
8.37667
9.76547
8.66652
9.91001
7.00711
9.0453
9.0961
7.47521
7.27974
8.63633
7.51482
8.72465
6.30376
7.15926
6.70265
6.44793
6.36851
6.58525
6.42706
6.59865
6.70795
6.36074
6.2255
7.05095
6.85722
6.29523
6.90885
6.40639
7.18394
7.55827
8.71763
6.83462
7.23241
7.39099
7.1731
7.4333
6.45583
6.27796
7.1526
6.70348
6.48088
6.42209
6.56945
6.50533
6.86151
7.09029
7.57169
8.79244
6.97134
7.06199
7.66659
7.67542
6.63991
6.89871
7.11384
6.33034
6.59424
6.83619
6.5378
6.82766
8.06033
11.7893
12.7093
6.77462
8.20438
10.5656
7.69906
10.4849
8.44551
12.9088
12.5655
7.02734
8.55896
10.7776
8.05391
10.6332
6.15476
6.17838
6.24472
6.03191
6.12934
6.18801
6.10769
6.17865
6.91875
7.10967
6.28743
6.39842
6.74313
6.69841
6.40322
6.39981
7.6747
6.71179
10.8898
7.84134
7.63922
7.41638
8.26359
8.39772
6.94344
6.26245
6.32547
6.4331
6.52641
6.38591
6.50318
6.32215
7.80436
6.80328
6.67238
10.7625
7.56004
6.83544
7.85058
6.90227
2064.9
2051.59
2050.84
1272.43
2413.14
2054.53
2328.22
2139.87
2041.4
2031.74
2034.62
1117.51
2004.2
2032.53
1938.44
1959.54
2050.89
2044.47
2045.66
1142.46
1949.68
2048.97
1880.58
1933.97
258.538
284.168
373.584
36.022
187.021
322.456
193.599
284.587
2143.79
2045.21
1106.68
1133.36
2069.23
2064.62
1296
1222.83
2043.48
1158.99
2045.91
2051.9
2032.02
1971.96
2045.81
1982.95
1981.23
1084.26
1103.31
1117.26
1204.56
1152.26
1144.92
1114.96
1994.51
1127.73
1117.88
1938.42
1908.39
1156.72
1904.1
1135.71
2032.85
2030.74
2048.85
962.912
2108.29
2037.41
2093.39
2077.77
2042.32
2051.97
2047.66
792.701
1981.49
2044.8
1906.94
1943.22
2074.63
2050.21
2072.95
898.548
2044.54
2074.43
1962.59
1994.94
168.436
179.155
306.619
23.1789
138.412
226.883
141.379
200.48
2009.05
2155.7
772.474
753.495
1965.28
2089.35
836.078
879.337
2036.38
800.463
2046.24
2066.48
2003.1
1936.32
2047.49
1956.21
2099.09
759.179
750.242
885.842
919.815
823.028
894.516
819.068
2140.8
887.909
775.894
1926.65
2054.86
896.76
1884.81
781.916
12.3838
10.8105
13.3059
6.81051
9.77064
12.3735
9.4858
10.6188
8.79341
8.37822
9.31783
6.74091
7.98416
8.89879
7.97098
8.18152
13.5874
10.8196
13.1026
7.05975
10.0865
12.0693
9.82671
10.7721
6.1724
6.14803
6.2346
6.01833
6.1194
6.20111
6.129
6.18837
9.07883
10.0638
6.60168
6.58422
8.8312
9.07104
6.77535
6.88028
10.3027
6.82079
10.2766
12.7664
8.71253
8.09052
11.0595
8.9822
9.81527
6.57306
6.62166
6.71069
6.93342
6.73223
6.72431
6.63017
11.0108
6.87332
6.74481
9.21273
9.06327
6.98874
8.7996
6.86768
5.8589
5.95911
5.94882
5.88117
5.87006
5.90307
5.87719
5.91083
6.44676
7.65549
7.54582
6.51009
6.57079
7.17765
6.5987
7.14184
6.4332
7.59233
7.95419
6.53773
6.5537
7.20462
6.63832
7.15784
5.92207
6.07061
6.05774
5.97077
5.9478
5.99608
5.96227
5.99927
6.01869
6.00344
5.90267
6.07184
6.04431
5.93549
6.02354
5.95007
6.23557
6.28673
7.14283
6.22748
6.23065
6.29716
6.34475
6.48473
6.02595
5.91515
6.09003
6.06688
6.0025
5.95532
6.04132
5.98209
6.22851
6.22716
6.25054
7.0514
6.29441
6.24992
6.55282
6.46537
6.04485
6.38854
6.35783
6.0534
6.05369
6.1448
6.09745
6.17638
7.57864
10.148
8.75427
7.51177
7.83927
8.2809
7.91159
8.24204
7.03358
8.03479
7.86122
6.56003
7.05367
7.4446
7.19224
7.37183
6.04801
6.32793
6.14432
6.02605
6.04721
6.10294
6.06466
6.09627
6.50352
6.4118
6.04895
6.44171
6.6026
6.24078
6.39896
6.12972
6.7273
6.61672
7.44623
6.63914
6.75638
6.87345
7.07599
7.09209
6.48942
6.07506
6.4484
6.2784
6.21982
6.12658
6.23687
6.17229
6.65778
6.35624
6.5635
7.40302
6.79621
6.39005
7.19524
6.71944
1542.79
1548.28
1552.76
817.201
1482.43
1553.91
1437.8
1505.71
1542.2
1505.79
1529.06
1070.17
1730.5
1518.46
1707.8
1524.81
1552.36
1542.83
1550.1
937.496
1640.78
1550.13
1583.27
1512.86
159.817
182.16
213.428
29.9888
117.457
206.763
118.894
193.087
1541.98
1453.01
771.364
796.038
1532.42
1479.97
845.162
846.458
1546.45
1094.59
1538.8
1552.91
1525.12
1718.53
1550.03
1701.24
1423.43
754.759
784.306
759.959
813.928
823.72
772.231
765.556
1511.63
969.121
1056.39
1514.99
1632.66
1015.88
1650.57
1035.1
5.95733
5.9752
5.87781
6.1063
6.00576
5.95081
6.0169
5.98799
5.98544
5.99759
5.87299
6.09757
6.03944
5.96836
6.04927
5.99962
5.85984
5.85639
5.85261
5.8983
5.86749
5.85593
5.86856
5.86151
6.52744
6.48129
6.20001
7.13051
6.70871
6.5213
6.73364
6.67777
6.02164
5.90022
6.26804
6.28855
6.04622
6.05366
6.12331
6.15925
5.96104
6.15709
5.87158
5.87218
6.00679
6.06615
5.878
5.90683
5.90387
6.30425
6.33785
6.04488
5.96399
6.26158
6.03291
6.40181
5.89002
6.01269
6.25998
5.8893
5.91284
5.96294
5.91258
5.95645
5.96712
5.90889
6.2602
6.00814
5.95388
5.96736
5.98217
5.99541
5.87925
5.89179
6.23388
5.91079
5.88976
5.90885
5.90727
5.93173
7.1745
7.44475
9.71608
7.56995
7.56855
7.88585
7.93236
8.1615
6.01282
5.94677
6.32427
6.00709
5.98207
5.97771
6.00563
6.01905
5.89667
6.3122
5.96484
5.92293
5.91276
5.95843
5.92047
5.95581
5.90871
5.93441
6.38757
6.40696
5.9302
5.94008
6.17506
6.25727
6.43279
5.98939
5.94361
6.41872
6.35918
6.00018
6.32546
5.9836
6.50029
6.5145
5.96494
6.46248
6.45795
6.40626
6.35161
6.30035
6.23528
7.02262
6.1846
7.0382
6.50941
6.66158
6.60352
6.73796
7.9637
9.06733
6.97208
9.0105
8.52662
8.41058
8.36086
8.53935
6.04982
6.24249
5.99995
6.41856
6.1786
6.14324
6.14492
6.17347
8.34188
9.37152
7.71626
12.2315
9.0231
8.97529
9.38365
9.4615
7.42109
6.41997
7.4551
8.51294
7.41488
6.90476
8.00682
7.51767
7.41838
8.44831
6.76733
6.35342
7.5608
7.75102
6.57296
6.8553
6.40391
7.61177
8.5489
7.02493
6.67083
7.68947
6.98026
7.98843
6.41158
7.06656
8.6006
6.79447
6.50766
6.92353
6.77356
7.11824
6.00521
5.94058
5.96093
6.61261
6.07654
5.97699
6.31141
6.13316
5.92855
5.92265
5.89833
6.23107
5.98871
5.94313
6.04978
5.99437
5.89693
5.87436
5.88537
6.23562
5.92444
5.87887
6.013
5.91921
7.81471
7.21524
7.50375
9.88072
8.16686
7.56251
8.75004
8.06486
6.00475
6.03763
6.77902
6.50746
6.09495
6.20281
6.34831
6.54674
5.95122
6.34092
5.8956
5.92385
6.02946
6.07309
5.90609
5.94773
6.13342
7.1101
6.73126
6.97037
6.47303
6.84504
6.60302
6.97219
6.00618
6.50545
6.52414
5.93128
6.02857
6.26858
5.99371
6.17264
14.1231
9.35938
8.6594
12.7183
11.8473
9.37222
11.2952
8.94747
7.36672
6.45676
6.31293
7.01665
6.9126
6.46736
6.84385
6.36828
6.71262
6.18397
6.07856
6.63029
6.42508
6.18092
6.36471
6.1157
10.764
8.25705
7.83795
10.4823
9.68493
8.30783
9.4462
8.02684
8.39408
7.90823
10.3199
7.90015
8.24196
8.16207
8.71517
8.64942
7.34407
7.07419
6.3095
7.00157
7.13099
6.82841
6.98932
6.69851
7.71223
10.0447
7.78523
7.30893
8.1313
8.31435
7.46906
7.7224
6.81136
6.73178
6.91774
6.22703
6.57053
6.87795
6.62147
6.8488
7.06126
8.40173
8.18914
6.58243
7.10264
7.69714
6.87626
7.48311
13.3048
23.7753
19.3575
8.44082
13.808
19.9455
11.6865
19.2349
10.3932
14.1494
11.6489
7.83272
10.422
12.5385
9.33732
12.0019
6.28275
6.47704
6.45517
6.07475
6.2665
6.41281
6.19262
6.37135
8.55392
8.22944
6.57393
7.17754
7.92531
7.31756
7.17402
6.8547
10.3629
7.88604
15.9705
9.45905
9.64762
9.27419
11.6519
11.865
7.7397
6.4534
6.9072
6.85578
7.11656
6.76941
7.09366
6.6546
8.98849
7.52292
7.75377
15.1966
8.59474
7.61546
10.2102
7.87301
8.82328
9.11535
11.7124
6.78962
8.12762
10.4292
8.28242
9.81965
9.90785
11.2473
14.0838
7.74665
9.18421
12.3178
9.43552
11.6393
16.4062
19.6024
24.2506
8.41954
14.4939
21.6754
14.5126
19.2513
6.22267
6.40023
6.44203
6.05351
6.18014
6.36854
6.20716
6.32961
8.30347
10.6309
6.59261
6.80545
8.4766
9.36466
6.94506
7.04482
10.9485
7.57214
16.882
14.4991
10.2633
9.97962
12.1607
11.2104
10.7199
6.64285
6.86837
7.16882
7.34748
6.92732
7.14822
6.91207
13.4085
7.71764
7.38211
15.1963
12.6157
7.98153
11.3322
7.8079
6.89744
6.48542
7.8867
7.32472
6.85649
6.73623
7.30985
7.31417
6.21508
6.03599
6.47261
6.25122
6.17502
6.13483
6.27447
6.24146
9.7043
8.05226
11.5881
11.1689
9.42097
8.86378
10.6344
10.2796
8.3848
7.25241
11.8963
10.7922
8.38791
7.89469
9.77944
9.5415
6.44769
7.80489
7.32877
6.62459
6.69293
7.07515
6.65915
7.07301
6.37685
6.48868
6.76513
7.50224
6.66705
6.51446
6.99571
6.9439
8.74409
8.16888
7.04507
10.1594
8.9949
8.12617
8.9368
7.71154
8.69721
9.65696
6.97656
7.35556
8.17531
8.33683
7.43815
7.58622
2746.48
2453.23
433.874
418.131
2609.86
2550.98
893.461
1068.83
2218.59
2022.4
527.231
569.814
2140.74
2074.26
1132.91
1147.91
62.4904
76.2005
14.0201
13.1627
65.0375
68.0442
20.6574
23.2484
50.4804
76.323
13.3491
14.445
54.8235
58.3236
19.8508
22.8006
2363.15
451.709
446.694
541.111
1098.48
1031.47
530.991
474.281
2285.62
552.756
517.544
463.032
1144.92
1104.9
508.47
504.746
115.689
120.087
189.772
20.2664
48.2537
163.229
56.2063
160.235
138.641
23.4218
215.509
165.843
137.228
59.6572
152.808
68.0384
3124.54
2631.79
1063.41
766.351
2914.9
2739.36
1385.6
1529.28
2291.8
2040.29
1088.13
906.724
2182.49
2099.64
1522.74
1516.24
171.991
222.337
20.3208
22.9502
188.924
190.212
37.0658
51.6737
95.4985
137.668
19.7597
21.6664
102.761
104.521
27.2465
34.9639
2484.55
1089.73
792.379
879.702
1539.07
1489.03
878.775
826.205
2373.26
883.254
1076.12
1071.51
1571.6
1528.27
1095.12
1096.95
329.837
184.882
311.108
31.0696
112.985
260.48
121.123
254.244
443.648
39.9267
357.171
588.644
449.501
133.244
528.39
163.502
2541.63
423.459
1665.76
482.306
1724.08
1753.27
1660.44
1684.26
42.8606
12.2934
43.9507
11.1357
28.5029
31.9337
33.9392
32.2724
1558.29
504.498
1458.37
569.751
1510.31
1497.65
1463.14
1457.25
84.2647
12.3346
78.0471
15.0199
54.1865
62.9589
60.0022
60.9795
248.026
1619.51
333.309
40.7224
331.374
1626.11
65.5657
457.44
303.213
50.6897
427.398
1610.64
318.562
310.615
442.445
380.76
1563.93
366.714
50.5844
499.248
535.538
433.171
492.371
424.518
1561.59
526.791
49.7612
424.498
1510.09
548.399
428.127
74.774
6.14165
6.7223
6.06041
6.59391
6.33107
6.36115
6.30479
6.4325
7.44125
8.14359
6.48342
7.74479
7.94609
7.53812
7.46951
7.38549
5.89754
5.96065
5.85911
5.9686
5.93257
5.90062
5.90777
5.89611
7.19353
7.59803
6.50303
7.90268
7.62516
7.29759
7.45704
7.28356
7.02679
6.19849
6.90427
7.6812
6.8283
6.54974
7.30205
6.79283
6.81168
7.3557
6.31471
6.05014
6.88056
6.9825
6.21736
6.42838
6.04761
6.72327
7.30162
6.32402
6.19483
6.77329
6.37461
6.86231
6.03479
6.24574
7.27076
6.24715
6.06625
6.23905
6.25357
6.38137
67.2332
54.1553
298.502
50.7288
61.5289
65.9637
63.5118
67.9194
41.9584
21.1907
231.066
24.1505
40.5172
58.6731
35.6072
61.5993
997.819
1054.51
1929.28
884.089
1037.58
1330.01
1000.24
1455.01
34.8491
20.6553
146.261
23.1019
32.2279
38.4369
31.2599
42.6013
53.8897
295.259
46.0507
31.4495
46.3071
57.6044
32.319
48.2845
79.9281
42.6607
566.351
381.43
84.4572
64.6851
344.876
345.266
281.473
47.0013
27.9221
204.896
241.161
52.7358
226.516
46.378
379.754
368.72
46.4953
613.108
356.707
326.822
291.061
167.376
10.9071
8.02571
7.90894
10.3118
9.27008
8.3012
9.14093
8.02618
6.4286
6.00787
5.96729
6.21939
6.12502
6.01099
6.11263
5.98154
6.36273
5.93433
5.91788
6.22157
6.0564
5.94715
6.04819
5.92276
9.95134
7.24634
7.25784
10.2521
8.61876
7.47968
8.60767
7.38879
6.99583
7.0408
8.71528
6.69468
7.02007
7.19126
7.55147
7.79977
6.51629
6.28138
5.97539
6.55429
6.44099
6.14145
6.43426
6.09438
7.01439
8.69193
6.72996
6.72866
7.60485
7.69256
6.75039
6.87228
6.41366
6.25662
6.24862
5.94689
6.10812
6.31317
6.08669
6.22825
6.13903
6.27002
6.64711
6.58152
6.19783
6.25573
6.43348
6.4323
6.4025
6.54896
7.1052
7.17496
6.47791
6.5734
6.80873
6.85412
8.04597
8.45976
11.6388
9.90241
8.32901
8.68625
10.3002
10.3439
7.512
8.1557
9.236
9.83577
7.85426
8.18169
8.95924
9.09141
6.344
6.79532
6.73924
7.04576
6.61794
6.55586
6.90205
6.89009
6.40966
7.21963
7.18374
6.95749
6.6385
6.73669
6.91301
7.00954
7.5111
7.25614
7.59939
9.02228
7.60268
7.32607
7.82398
7.49046
7.55375
9.13963
7.69008
7.8063
7.74998
8.14762
7.74937
8.08819
4539.45
4872.94
2187.78
1038.22
3924.97
4050
1690.13
1949.07
5206.03
5674.84
3926.2
1689.46
4388.63
4766.78
2362.18
3130.81
1940.73
2326.07
2489.02
1002.64
1782.96
2078.57
1251.46
1879.81
233.66
402.606
263.742
59.6044
209.639
332.65
103.2
191.687
4126.47
1939.83
918.375
1206.18
1931.73
1926.57
1380.49
1181.05
4457.18
1489.91
3172.43
2273.03
2335.09
2369.72
2759.41
2490.03
1064
411.251
628.233
392.817
726.301
583.951
657.123
609.803
1526.51
714.273
897.808
1975.83
1617.7
979.813
1610.24
1153.44
2286.22
2325.76
2239.03
940.926
1966.45
2298.11
1832.11
2203.49
3677.45
4393.1
3371.59
1721.97
3359.97
4323.73
3150.69
3969.63
2591.34
2804.93
2551.56
1374.1
2468.15
2758.99
2246.38
2634.07
266.852
442.016
407.313
67.5183
258.663
443.521
247.932
361.556
2368.51
2342.61
819.331
1103.94
2348.48
2151.75
1140.49
1134.1
3603.6
1703.68
3314.33
3022.96
3219.21
2889.07
3076.41
2936.61
2181.51
779.512
1075.5
1019.47
1078.95
1056.93
1103.96
976.765
2709.9
1286.25
1474.02
3062.93
2432.09
1498.58
2644.8
1513.5
3937.83
4691.43
2415.8
636.871
3300.98
3888.97
1268.88
1901.68
5070.53
5050.81
3432.85
2175.77
4243.75
4527.48
2575.4
2962.91
2454.16
2937.7
2731.57
9861.9
2549.11
2822.78
3081.87
2898.33
141.327
862.835
2028.48
75.8347
215.64
712.404
238.018
1155.8
3886.23
2083.44
538.243
1223.01
1989.28
1961.7
1192.91
922.407
4364.85
1980.96
3157.34
2581.11
2502.51
2584.03
3020.93
2758.47
982.533
236.683
1284.18
3886.35
709.334
581.845
1827.57
1158.21
1786.53
9319.8
3268.57
2531.46
2098.98
4315.31
2147.09
4665.02
2585.83
2883.1
3119.68
10837.9
2742.17
2786.19
4268.82
3711.87
3168.66
4256.33
3366.96
3599.2
3053.34
3049.53
3390.95
3239.01
3102.28
3627.71
2680.24
3891.27
3400.07
3399.33
2943.91
3056.69
2446.09
1563.83
1502.84
121.208
1761.33
2064.85
1179.66
1486.44
2743.74
3723.59
10390.3
5967.98
4134.6
4654.96
7807.2
9937.82
2796.57
5766.54
3654.13
3698.87
3621.71
3868.17
3625.19
3700.14
3632.7
8750.31
5855.7
4581.83
7124.72
8911.96
7057.99
7565.91
3591.91
5125.12
5761.04
3840.75
3994.8
6793.75
4048.56
5945.71
4829.25
5614.43
2552.46
1176.93
4078.47
4728.02
1768.34
2244
6110.09
5412.88
5378.16
2355.75
5073.98
5125.08
3169.72
4356.01
2645.22
4276.44
2952.21
1706.73
2498.26
3618.03
1964.14
2530.81
348.928
660.238
534.507
103.766
311.444
553.805
165.211
382.329
4563.55
2287.88
1026.01
1482.76
2233.19
2231.24
1664.25
1439.46
5348.11
2078.24
4890.52
3208.91
3152.42
3220.03
3877.81
3449.65
1463.54
553.141
978.026
733.541
1097.95
874.985
1024.27
942.035
2195.79
1316.5
1479.73
3411.54
2320.34
1623.03
2330.61
1841.37
2981.74
4176.35
3702.09
1621.67
3035.41
4106.4
3144.5
3815.9
4980.3
4913.04
3733.93
2403.53
4467.4
5397.77
4126.45
4479.51
3363.5
2873.15
2380.62
1758.39
2970.83
2849.89
2627
2525.5
523.427
713.483
668.337
116.566
481.003
715.214
475.474
622.642
3851.47
3628.62
1450.85
1726.06
3784.31
3548.11
1791.9
1787.03
5176.28
2372.05
3840.96
4150.38
4525.4
3835.57
4202.57
3736.11
3350.52
1433.73
1729.46
1619.82
1712.35
1704.42
1732.45
1626.15
3636.82
1868.53
2163.33
3262.75
3114.56
2059.11
3318.82
2085.7
4610.9
2546.43
4673.02
1570.95
3053.22
3906.29
3010.13
3610.15
2673.61
2781.52
3445.15
1574.67
2226.55
3070
2210.9
2838.1
5290.33
4218.75
5348.16
2593.01
4175.18
5009.34
4094.47
4660.54
485.089
527.766
771.878
131.536
306.745
619.017
304.693
534.508
1962.46
3655.44
1034.64
908.739
1986.48
2930.38
1199.52
1582.41
2965.61
1633.9
4041.48
4560.22
2726.04
2487.25
3300.74
2826.78
3602.13
1028.24
920.266
1591.79
1948.04
1441.54
1587.25
1231.96
4273.84
2093.33
1474.67
3666.05
3576.22
2228.37
2806.05
1810.86
2219.63
2546.84
2914.64
1739.95
2278.24
2509.65
2340.53
2665.47
3204.4
4216.37
4214.44
2615.01
3788.03
4184.72
3836.51
4395.4
3285.21
3511.36
2847.99
1581.52
3336.19
3462.46
2873.59
2978.54
716.846
837.2
571.417
145.55
642.848
834.472
540.823
612.121
2841.92
3139.4
1832.16
2306.82
2967.45
2799.34
2154.42
2130.25
3158.06
2592.17
4136.85
3529.99
3396.54
3592.66
3599.95
3819.49
2971.71
1708.5
2034.44
1530.16
1898.54
1935.15
1894.06
1884.99
3300.54
1596.46
2207.81
3723.2
3292.35
1949.38
3494.19
1967.73
866.115
488.709
1142.11
346.969
887.589
917.184
885.183
1005.51
105.704
17.0943
137.691
19.3282
98.778
98.3441
100.404
109.917
1487.17
817.634
1704.41
609.06
1514.06
1571.12
1514.01
1721.54
46.2689
14.6975
60.0632
13.3291
40.0148
44.3137
37.749
42.3489
490.618
1166.05
344.142
108.483
490.621
920.642
115.347
360.964
501.271
112.894
701.94
1205.12
571.71
504.431
675.655
680.843
1164.07
334.859
106.733
470.398
480.137
398.979
479.293
347.932
1319.42
552.429
120.738
785.952
1212.52
497.99
675.512
152.875
6.94606
7.95818
7.77129
7.38446
7.29222
7.73507
7.3514
7.68904
9.8689
14.0335
19.755
19.6906
11.0241
13.2091
13.5522
16.5418
9.89098
23.602
26.4573
32.0453
15.2832
19.4009
19.236
23.9151
8.53346
28.2293
37.1544
20.6519
10.3066
18.8914
13.2042
27.1803
8.72813
8.57862
8.11473
10.527
8.94155
8.67106
9.13693
8.81153
9.56961
15.3061
16.6114
9.33585
9.60056
13.1328
9.7541
12.8483
8.83195
8.29726
15.2367
19.623
9.38453
8.98724
14.4684
14.8718
9.56662
27.4434
21.847
20.5022
16.1584
21.6644
16.7185
29.2168
2383.45
2368.71
2394.09
1113.78
2249.77
2388.91
2180.13
2286.89
2349
2349.69
2351.56
1110.95
2229.08
2345.26
2179.55
2267.7
2369.64
2357.66
2357.38
1267.63
2540.14
2359.73
2681.39
2746.22
242.145
203.294
172.024
26.5575
180.49
218.891
132.432
134.913
2242.38
2389.11
1109.24
1024.58
2199.74
2290.98
1045.19
1154.11
2366.33
1061.19
2352.96
2392.93
2288.54
2305.37
2370.35
2405.6
2400.94
1098.14
989.067
1020.37
1210.34
1133.92
1121.92
1083.2
2501.69
1020.43
1004.17
2433.54
2583.61
1161.63
2423.95
1132.38
10.3067
10.3055
8.55239
10.3991
9.76241
9.54537
9.6529
9.22802
11.0283
12.0605
8.71109
10.2516
10.7966
10.9575
10.4183
10.0934
7.36771
7.20341
6.60562
7.26849
7.14533
6.99173
7.06707
6.8445
10.4919
9.55969
8.35418
10.2958
9.79698
9.38266
9.72221
9.07998
9.99091
8.21602
9.75776
9.6463
9.79419
9.27344
10.0005
9.41735
10.0625
9.61899
8.07247
8.01615
9.49491
9.56499
8.60912
8.24927
8.04926
9.67042
9.48572
8.03385
8.43119
9.13745
8.15085
9.16992
7.77552
7.65284
9.0851
7.73154
7.78671
7.89566
8.01655
8.27227
6.87638
15.4474
8.10114
8.54242
7.2149
7.83651
7.58015
7.91281
173.127
3417.61
1024.21
632.451
346.196
1443.21
401.752
1157.31
12.2818
145.873
18.1493
20.3912
15.4466
20.9503
16.3182
19.9615
11.9303
73.1036
17.6176
18.9157
13.916
18.5496
14.9349
17.6029
23.2772
8.85428
9.46444
68.5993
28.1416
9.2068
47.7592
12.6461
59.774
117.189
247.608
13.3848
53.1148
92.2341
51.5452
71.5025
9.41661
10.0529
70.9658
15.2654
11.5939
12.044
14.1965
16.4254
12.3586
20.807
101.387
190.854
18.653
22.5508
77.4269
93.8381
2346.26
2339.07
2349.44
1185.91
2169
2346.28
2066.92
2176.07
2335.9
2334.99
2340.63
1221.77
2192.99
2335.18
2136.65
2237.51
2352.19
2342.09
2351.81
1373.7
2327
2349.36
2348.16
2399.39
382.136
271.193
297.491
27.18
306.714
341.84
245.23
242.626
2168.25
2230.99
1192.94
1206.87
2074.51
2113.09
1186.63
1214.11
2338.04
1235.89
2340.32
2352.44
2178.74
2129.35
2340.79
2232.74
2177.24
1205.29
1206.77
1226.75
1264.91
1230.85
1251.78
1225.13
2264.56
1252.93
1230.38
2270.72
2237.59
1306.73
2189.15
1324.02
2339.17
2349.11
2358.07
1164.29
2163.22
2359.27
2058.69
2245.3
2356.88
2371.72
2381.43
1156.22
2477.53
2379.96
2398.95
2316.57
2358.95
2385.28
2384.95
1146.21
2187.28
2391.07
2079.08
2260.11
234.767
211.31
295.993
23.9062
131.443
273.236
134.439
259.97
2245.7
2053.52
1091.45
1079.89
2198.19
2095.59
1193.06
1200.8
2362.63
1210.49
2389.66
2366.84
2298.6
2389.7
2365.79
2356.25
1984.77
1067.29
1067.56
1019.96
1160.71
1163.78
1044.33
1050.21
2239.12
1159.18
1178.92
2288.28
2167.71
1195.7
2246.77
1195.17
2360.11
2385.1
2366.87
1031.39
2170.29
2374.28
2211.98
2420.17
2429.3
2460.33
2440.23
1510.76
2723.02
2452.51
2724.11
2391.84
2378.45
2420.41
2397.98
1360.72
2699.78
2408.64
2793.32
2444.2
161.091
204.544
99.8235
21.2877
99.0221
159.029
63.2263
95.9922
2559.2
2429.68
961.798
1232.42
2583.6
2624.2
1429.09
1374.52
2420.94
1524.39
2430.57
2386.98
2461.98
2847.38
2395.69
2747.14
2403.82
828.013
1189.19
698.261
1268.4
1281.33
905.642
1152.75
2397.31
1324.45
1478.22
2384.63
2862.81
1492.18
2747.83
1538.2
809.449
421.448
455.15
326.659
711.783
473.229
729.804
450.137
131.504
29.1498
31.3157
31.0324
52.8533
33.4507
49.9276
29.3199
99.8609
29.9916
15.836
19.7417
77.2327
33.1335
77.6605
25.0711
48.4622
19.6443
16.0228
13.0199
32.8567
20.9676
32.6613
17.3389
256.468
379.509
255.814
57.4003
256.355
309.136
122.73
138.633
152.518
35.8883
35.412
162.186
137.747
57.5726
141.399
62.157
385.792
259.715
55.1392
84.6033
113.796
121.63
84.4561
67.9062
132.858
28.9154
31.9801
30.3068
68.4209
37.8028
59.4567
33.4137
1580.53
1598.8
1589.74
758.849
1584.39
1591.86
1628.35
1597.28
1623.68
1648.24
1639.09
939.618
1956.36
1642.1
2015.05
1656.36
1602.43
1633.33
1627.69
792.187
2237.21
1628.07
2442.91
1732.74
67.168
69.4701
45.3392
16.2143
46.163
57.7394
33.7565
45.5486
1786.91
1809.42
631.41
591.797
1827.07
1848.01
847.267
815.887
1616.96
927.292
1634.38
1602.2
1633.01
2054.92
1608.68
2062.06
1880.96
534.353
560.653
405.082
757.495
751.499
462.034
533.263
1627.86
768.455
896.336
1677.52
2195.6
868.6
2179.43
928.326
6.05762
6.56727
6.1621
6.48731
6.42437
6.40401
6.33992
6.39662
8.03032
11.5598
9.47024
9.9243
10.4522
10.7134
9.81381
10.053
6.25603
7.8272
6.50392
7.30308
7.15903
7.271
6.93927
6.86991
7.42997
9.17361
8.34552
9.82017
8.81761
8.66272
8.80463
8.84729
7.51289
6.719
7.18696
9.00556
7.31703
6.78676
7.51243
7.12395
7.57322
9.06347
8.68501
6.72692
7.48019
8.6865
7.06515
8.53785
6.61831
7.15465
8.80866
7.74507
6.84673
7.21169
7.86184
8.01484
6.62291
7.7581
8.84027
8.30729
7.24439
7.78213
8.16825
8.38572
67.2666
41.0678
234.313
51.0279
67.3701
62.4022
75.9234
89.526
24.8307
14.7616
79.0831
13.8235
24.1437
22.8018
26.094
31.1171
821.786
521.339
1908.96
561.588
851.039
807.1
988.868
1219.61
26.5445
14.0731
78.4866
14.9726
25.5802
23.7113
26.5962
31.9638
40.5367
235.894
50.3731
24.5154
45.12
70.968
25.2991
46.6696
38.2868
22.7571
134.464
219.167
54.4088
41.9996
145.485
143.19
266.436
56.2605
26.8052
206.488
185.002
71.2972
182.848
52.8665
313.053
263.474
31.3488
199.017
251.065
165.83
156.671
70.7157
7.0536
9.22967
9.09378
8.04045
7.23807
8.26124
7.66587
8.28547
11.4136
14.3377
15.7611
11.9574
11.6434
12.7256
12.0853
13.3777
12.9209
17.7685
20.3126
17.8117
13.7121
17.3701
16.3918
18.5771
9.58181
10.605
14.4176
12.2609
9.91243
10.3604
11.035
11.4043
9.42999
9.47893
8.3355
9.69026
9.49496
8.54577
9.42376
8.78991
11.177
11.183
15.0929
11.3092
11.0929
11.6163
13.0526
13.4185
10.3715
8.9056
10.2097
12.9178
11.001
9.43394
11.3089
9.9315
11.426
13.3875
11.3246
15.6152
11.8101
12.1801
13.4591
13.3361
1761.64
825.166
1957
603.606
1805.07
1842.51
1834.86
1907
127.583
15.1757
143.383
17.0758
93.4039
85.9849
102.011
82.4698
2177.01
1084.2
3312.8
532.572
2270.05
2343.14
2292.32
2440.49
51.871
12.1778
44.7108
12.1655
32.4698
35.7447
29.5131
28.6092
788.504
2008.53
528.899
100.51
810.236
1928.73
144.298
569.437
783.65
115.617
708.657
2052.96
768.246
723.074
809.907
738.224
2042.5
483.597
85.4978
337.454
529.087
475.498
410.488
401.564
2134.01
321.023
71.3946
668.857
2173.29
478.01
766.272
116.946
10.6937
12.148
10.7007
10.9493
10.5819
11.1419
10.5415
11.0318
16.1392
21.0757
18.0109
16.7429
16.649
19.471
16.1557
18.7426
11.461
15.5177
13.6421
11.449
11.6348
13.7942
11.3862
13.5456
11.2878
13.8519
10.3838
11.8945
11.3364
11.4887
11.2229
11.0894
12.4555
10.8432
10.8574
13.1868
12.3463
11.2733
12.6294
11.2555
14.0133
13.8946
16.471
12.0504
13.7352
13.9706
13.0736
13.3307
10.5479
10.8213
13.0939
10.3198
10.5429
11.0234
10.6108
11.4077
11.902
11.645
13.3654
15.9281
11.8707
11.901
12.8392
12.8663
790.588
505.309
413.334
318.757
545.72
523.408
541.233
504.792
157.234
42.0912
45.019
36.8639
45.4716
42.4027
39.977
39.3764
131.21
41.6762
28.6586
31.0583
48.2984
43.5623
42.8438
38.734
50.163
28.9511
20.0455
15.1078
28.1166
27.9702
25.7689
26.3031
170.927
202.251
166.305
38.1188
160.606
174.183
148.605
157.636
163.853
36.4007
47.2793
189.496
155.931
43.663
183.49
51.3195
195.035
162.837
32.9293
40.8431
122.352
148.856
45.5349
36.7403
177.143
38.9029
34.0162
42.9258
49.5374
42.6855
44.9514
41.0021
1725.98
1073.84
1710.83
957.481
1426.52
1336.05
1460.23
1355.39
582.225
209.373
538.414
184.018
345.186
320.73
344.152
318.194
1718.27
1197.65
1950.04
1022.72
1413.32
1412.74
1446.82
1440.19
251.84
111.116
291.751
35.6069
160.385
165.048
162.206
159.576
770.926
1392.06
718.667
285.279
779.246
1011.18
536.024
707.17
763.714
279.758
730.73
1314.82
772.06
490.361
1044.18
738.041
1427.36
728.945
283.18
743.457
959.159
708.095
728.472
435.783
1334.94
653.073
275.96
738.979
993.984
658.604
744.418
490.823
6.36998
7.3522
6.31209
7.11307
6.71613
6.82227
6.68551
6.84731
9.39407
13.7372
8.62425
12.6013
11.0308
11.0283
10.167
10.7878
6.15101
6.68841
6.05288
6.56788
6.30035
6.31079
6.20047
6.2706
8.37686
10.5366
7.72549
10.386
9.14959
9.20902
8.66868
9.05107
8.06618
6.5645
7.63779
9.9309
7.88635
7.09738
8.86756
7.79412
8.12297
9.97122
7.57329
6.59492
8.14259
8.42324
7.13934
7.56284
6.43147
7.47191
9.25731
6.90675
6.83442
7.70982
7.19465
7.9558
6.53614
7.08819
9.70313
7.46922
6.65882
7.23945
7.26643
8.05581
7.07036
8.36259
7.98961
8.20726
7.55956
7.62124
8.01009
8.03093
12.9715
24.3876
18.3215
19.7149
18.1234
18.3831
18.421
19.238
9.79114
13.3829
17.4261
16.0433
11.0102
11.1835
15.7893
15.6189
10.456
14.3358
14.3437
12.5303
12.165
12.3097
12.6873
13.0755
9.83491
8.72938
9.17918
14.7856
10.71
8.97891
11.4312
9.30906
9.97876
14.9827
13.148
8.8172
10.7899
13.8242
10.5034
12.9159
9.72929
10.1011
13.9877
14.2904
10.1217
10.1221
11.4779
11.7547
9.71634
14.2997
14.5928
13.7761
11.1786
11.7155
13.4738
14.2738
100.412
84.7816
287.282
131.207
98.2104
93.2586
116.891
112.838
66.8816
38.6145
105.999
55.5668
60.7687
54.4412
77.5639
78.435
816.691
572.625
1543.52
1047.77
861.194
778.294
1206.54
1334.08
165.78
83.1994
544.886
110.575
171.26
147.684
247.77
305.876
80.7989
291.497
132.113
104.38
96.3552
108.438
105.411
124.263
76.036
90.2316
178.394
263.397
91.7841
87.8457
220.127
219.882
441.897
173.767
157.13
741.318
510.045
177.789
530.15
169.058
430.48
828.378
180.847
409.955
423.974
470.447
392.998
305.234
3625.54
955.368
326.924
347.943
1332.18
887.819
330.398
345.424
122.808
13.794
10.2829
11.7171
17.5486
14.0098
12.384
10.6077
19.7171
7.78813
6.53651
7.28238
7.96566
7.48046
6.97969
6.70053
29.7452
9.97952
8.72105
11.204
10.9625
9.89617
9.86966
8.97586
126.713
49.0146
55.2526
14.1638
70.4787
71.4162
66.6245
52.7238
116.799
11.5652
9.85728
51.3073
56.4638
13.2312
53.9182
11.0724
22.0389
29.6037
10.1036
8.05256
21.5491
23.1611
9.2277
10.1441
20.4226
7.57166
9.27347
8.0679
8.86516
8.53433
8.86125
8.98947
1826.89
1812.29
1085.11
1016.79
1797.94
1720.33
1176.05
1148.4
1787.13
1839.87
1074.76
1248.02
1768.09
1697.8
1119.81
1148.26
598.575
609.122
264.012
209.788
539.727
544.639
279.714
305.53
254.004
458.629
128.517
58.1024
233.876
244.739
110.989
131.999
1757.08
1007.25
958.343
1030.16
983.923
999.66
995.683
932.734
1681.41
1009.88
946.049
977.199
968.893
973.283
948.862
943.216
626.062
485.182
461.284
206.782
513.715
508.001
417.362
359.113
626.525
225.336
506.857
611.45
503.759
419.836
545.854
512.003
20.5697
18.956
7.16564
23.5235
18.8614
13.919
17.2429
12.0698
15.1053
9.4163
6.68867
15.7962
12.9116
8.25423
11.2516
7.52474
6.21364
6.14637
5.98795
6.18124
6.17098
6.10714
6.14697
6.05337
24.496
18.7508
7.08119
17.7837
18.6086
11.2493
12.3091
8.39969
16.8413
7.01814
20.164
17.9603
15.3432
12.7678
22.6037
13.8823
11.1633
10.2114
6.54381
6.69094
9.69822
9.90403
6.89731
6.76233
6.85088
16.9448
12.5473
6.88484
7.1139
10.5571
6.97901
10.7889
6.5838
6.57361
7.86032
6.39724
6.61077
6.71471
6.67725
6.86299
8.56884
7.35396
6.93178
9.03879
8.01832
7.44476
7.92785
7.53862
6.62362
6.20493
6.22303
6.8012
6.46673
6.27233
6.5062
6.34602
6.40397
6.25445
6.29847
6.68719
6.38279
6.28086
6.40546
6.34192
9.78332
8.02935
7.75196
10.3937
9.05036
8.05938
8.88262
8.43607
7.0889
6.8001
8.46037
7.30558
7.0995
7.26997
7.62808
7.72883
6.74658
6.87249
6.24803
6.54164
6.82102
6.60896
6.5312
6.40586
6.74945
8.35037
7.35745
7.08265
7.20955
7.84516
7.06388
7.49563
6.59531
6.9332
7.08739
6.3151
6.52185
6.80699
6.44014
6.81124
17.3277
15.3098
7.83971
6.93521
13.7319
14.8573
7.79547
8.2712
12.1388
8.62905
7.03825
6.60432
8.88015
8.96266
7.00134
7.22897
6.46411
6.41126
6.1934
6.11538
6.3506
6.39224
6.17191
6.20219
6.18768
6.11802
6.05018
5.99247
6.12278
6.13193
6.03771
6.04316
11.3623
7.21424
6.67652
6.55141
7.41545
7.13918
6.76586
6.75138
11.9749
6.61358
7.03432
7.30378
7.65937
6.88212
7.35178
6.94833
6.44538
6.28845
6.21941
6.09908
6.29116
6.32111
6.22038
6.20009
6.51179
6.11701
6.26374
6.46652
6.33225
6.24392
6.3785
6.24234
5.89873
5.93023
6.15491
6.24849
5.9449
5.99707
6.05699
6.06942
5.94289
5.96749
6.10934
6.13867
5.9657
5.98795
6.04326
6.03512
6.80245
6.60481
8.15977
8.72578
6.83606
6.93047
7.44187
7.30929
7.23396
6.97739
9.34193
10.6066
7.4526
7.62439
8.36906
8.25543
5.96374
6.2333
6.36878
6.27636
6.07194
6.1356
6.21788
6.50074
6.00091
6.33205
6.21142