/*--------------------------------*- C++ -*----------------------------------*\
| =========                 |                                                 |
| \\      /  F ield         | OpenFOAM: The Open Source CFD Toolbox           |
|  \\    /   O peration     | Version:  2506                                  |
|   \\  /    A nd           | Website:  www.openfoam.com                      |
|    \\/     M anipulation  |                                                 |
\*---------------------------------------------------------------------------*/
FoamFile
{
    version     2.0;
    format      ascii;
    arch        "LSB;label=32;scalar=64";
    class       volVectorField;
    location    "100";
    object      U;
}
// * * * * * * * * * * * * * * * * * * * * * * * * * * * * * * * * * * * * * //

dimensions      [0 1 -1 0 0 0 0];

internalField   nonuniform List<vector> 
43136
(
(0.0122349 0.00408194 1.0686)
(0.000671514 -0.0361554 1.0604)
(0.0161559 -0.0415399 1.10499)
(0.00541348 -0.0307457 1.05234)
(-0.0104233 -0.0159032 1.04514)
(-0.01248 -0.0347108 1.0603)
(0.0136465 -0.0107701 1.06103)
(-0.00688038 -0.0309116 1.05397)
(0.00770235 -0.0316264 1.07475)
(-0.030632 -0.0337495 1.07231)
(0.00562083 -0.0596998 1.0785)
(-0.00355166 -0.0127408 1.0479)
(-0.0149943 -0.0316908 1.07728)
(0.00341272 -0.0530419 1.08177)
(-0.00849785 -0.0203847 1.06584)
(-0.0140384 -0.0467027 1.099)
(0.0679912 -0.135521 1.15846)
(0.031267 -0.0810435 1.03746)
(0.0780496 -0.163001 1.09734)
(0.0174781 -0.00515155 1.02636)
(0.0355022 -0.099928 1.10797)
(-0.00785447 -0.121976 1.06288)
(0.0682249 -0.136999 1.16957)
(0.0693255 -0.15597 1.14645)
(-0.00569063 -0.0162314 1.032)
(-0.00642712 -0.0199697 1.04031)
(0.0127016 -0.00429287 1.01754)
(0.00166158 -0.000590839 1.02272)
(-0.00455069 -0.0131528 1.02497)
(-0.00326651 -0.0174173 1.03332)
(0.0104616 0.00334961 1.03703)
(0.0029503 -0.0131665 1.03825)
(-0.00225157 -0.0388579 1.05524)
(-0.00561599 -0.0452195 1.03843)
(-0.00054246 -0.023782 1.04505)
(-0.00199552 -0.0283756 1.05254)
(0.00655735 -0.0407452 1.05618)
(-0.00805306 -0.0274592 1.04295)
(0.000681144 -0.0365813 1.05469)
(0.00297804 -0.0360666 1.05386)
(-0.00627414 -0.0435596 1.07377)
(0.00181927 -0.0236686 1.05065)
(0.0257197 -0.109308 1.07872)
(0.00777311 -0.0749824 1.14158)
(-0.00168017 -0.0422581 1.058)
(-0.0057284 -0.0358592 1.04944)
(0.0131356 -0.0878795 1.09347)
(-0.00279194 -0.0524474 1.0771)
(0.0205416 -0.0232279 1.0326)
(0.00902119 -0.0142379 1.05362)
(0.00824438 -0.0239718 1.05453)
(0.0296905 -0.0465432 1.04587)
(0.00436837 -0.0419612 1.06431)
(0.00530022 -0.0258875 1.05265)
(0.00545618 -0.0281061 1.05187)
(0.00589267 -0.0253552 1.05458)
(0.011327 -0.0688488 1.06178)
(0.024492 -0.0227783 1.0731)
(-0.00050607 -0.0232849 1.05548)
(-0.00424187 -0.0759299 1.11962)
(-0.0102892 -0.0463839 1.05869)
(-0.00966736 -0.0279671 1.08748)
(0.000646862 -0.0567178 1.07562)
(0.00506294 -0.00605097 1.05721)
(0.0124295 0.0174998 1.00385)
(0.0244342 0.0406675 1.01889)
(0.0167933 0.0414283 1.01701)
(0.0215263 0.0293166 1.01392)
(0.0151503 0.0219927 1.00721)
(0.0173274 0.0304155 1.0144)
(0.0180233 0.0267227 1.00727)
(0.0193725 0.0305031 1.01455)
(0.0529068 0.076647 1.06823)
(0.101635 0.122323 1.15808)
(0.0554737 0.103377 1.11055)
(0.0525776 0.0794565 1.09245)
(0.056879 0.0812583 1.07806)
(0.0617957 0.0967263 1.12575)
(0.0513656 0.0787169 1.09286)
(0.0662149 0.0922757 1.13223)
(0.0201337 0.0676139 1.04059)
(0.0308236 0.0895435 1.08518)
(0.0322899 0.0564293 1.08695)
(0.0197154 0.0566516 1.05469)
(0.0242311 0.0649767 1.04299)
(0.0139051 0.0877221 1.08657)
(0.0255358 0.0660552 1.04916)
(0.0217746 0.0689882 1.09119)
(0.0227081 0.0355621 1.02629)
(0.0385941 0.055614 1.0656)
(0.0225841 0.0496858 1.04643)
(0.0217618 0.0382038 1.04029)
(0.0228201 0.0371441 1.03164)
(0.0228135 0.0446136 1.04133)
(0.0211025 0.0380827 1.03832)
(0.021312 0.0449262 1.0514)
(0.0336669 0.0467169 1.02883)
(0.0209331 0.043386 1.02034)
(0.0221833 0.0325128 1.01766)
(0.0428915 0.0528193 1.04933)
(0.0338091 0.0478846 1.02934)
(0.0198712 0.0371496 1.02214)
(0.0351454 0.047179 1.04415)
(0.0226105 0.041447 1.02667)
(0.034905 0.0566096 1.05073)
(0.0396167 0.0624573 1.06625)
(0.0370961 0.0935586 1.09379)
(0.0192194 0.0574766 1.04083)
(0.0376216 0.0546985 1.05089)
(0.035568 0.0647639 1.06249)
(0.0331385 0.0733392 1.05301)
(0.0342886 0.0693331 1.05652)
(0.0218758 0.0445279 1.02525)
(0.022537 0.0335378 1.02269)
(0.0374254 0.0455698 1.0614)
(0.0231219 0.0478615 1.03986)
(0.0226467 0.0485711 1.02885)
(0.0228452 0.0410503 1.03282)
(0.0237448 0.0483935 1.03639)
(0.0240992 0.0439436 1.03864)
(0.0206873 0.0535493 1.04601)
(0.0211225 0.0585234 1.06745)
(0.0403945 0.0679121 1.0788)
(0.0377858 0.0857003 1.11085)
(0.0237929 0.0573276 1.0543)
(0.0189915 0.0607197 1.05745)
(0.0315941 0.0694456 1.06866)
(0.0345716 0.0712994 1.06804)
(-0.118557 -0.210576 1.23885)
(-0.174135 -0.263542 1.27199)
(-0.225915 -0.247341 1.26396)
(-0.0129488 -0.0539329 1.12864)
(-0.129832 -0.222091 1.2114)
(-0.222016 -0.278207 1.31667)
(-0.0889871 -0.120874 1.15341)
(-0.18969 -0.262717 1.24852)
(-0.0973991 -0.265858 1.2614)
(0.00347948 -0.253156 1.2459)
(-0.125266 -0.297615 1.29902)
(0.0359102 -0.138929 1.07675)
(-0.00983501 -0.251889 1.16281)
(-0.084614 -0.329739 1.3273)
(5.26887e-05 -0.144097 1.14059)
(-0.0677833 -0.278423 1.24378)
(-0.253357 -0.297969 1.31502)
(-0.191243 -0.343346 1.3736)
(-0.249004 -0.330348 1.40627)
(-0.0624784 -0.220227 1.17613)
(-0.218925 -0.308076 1.2464)
(-0.240976 -0.389317 1.40571)
(-0.156113 -0.215932 1.20532)
(-0.252322 -0.344138 1.32932)
(-0.0139405 -0.0242158 1.06861)
(0.00865965 -0.0136787 1.03782)
(-0.00662992 -0.0254613 1.10371)
(-0.0112539 -0.00861035 1.03246)
(-0.0156646 -0.0273072 1.05533)
(-0.00930881 -0.0440856 1.07644)
(0.00406227 0.00664109 1.05028)
(-0.00536442 -0.0473871 1.06755)
(-0.124589 -0.270044 1.21074)
(-0.195463 -0.259257 1.23306)
(-0.0530404 -0.104451 1.10546)
(-0.0294364 -0.11913 1.10012)
(-0.0833525 -0.190561 1.17439)
(-0.137791 -0.21491 1.24378)
(-0.0259848 -0.165208 1.11682)
(-0.0547354 -0.153298 1.16007)
(-0.183654 -0.324883 1.30602)
(-0.0101246 -0.182644 1.13752)
(-0.176251 -0.385611 1.37069)
(-0.257081 -0.320508 1.29148)
(-0.15597 -0.295158 1.23718)
(-0.0519079 -0.266761 1.20386)
(-0.220913 -0.303796 1.29396)
(-0.137535 -0.272267 1.21382)
(-0.148212 -0.178969 1.20726)
(-0.0193127 -0.00133842 1.07145)
(-0.0208108 -0.0445079 1.05622)
(-0.0213889 -0.0231047 1.11475)
(-0.0451341 -0.108217 1.16868)
(-0.0624735 -0.109862 1.14406)
(-0.0744785 -0.135343 1.14032)
(-0.0407934 -0.110852 1.08618)
(-0.220444 -0.306023 1.24174)
(-0.0393797 -0.180576 1.14505)
(-0.00100729 -0.156944 1.13035)
(-0.188315 -0.325066 1.29478)
(-0.144947 -0.292218 1.18507)
(-0.0838218 -0.213152 1.15439)
(-0.108089 -0.191931 1.19015)
(-0.0359108 -0.179273 1.17335)
(0.0724238 0.504762 1.82725)
(0.103883 0.350598 1.28371)
(-0.190656 0.0495299 1.33565)
(0.0333873 0.678236 1.89732)
(0.160864 0.56256 2.01778)
(-0.0594152 0.209144 1.26786)
(0.255465 0.555774 2.16059)
(-0.0075342 0.219976 1.64909)
(0.0841881 0.417512 1.50777)
(0.0122265 0.175001 1.6603)
(0.0473708 0.00100726 1.5635)
(0.0535801 0.330054 1.73086)
(0.0269674 0.207416 1.77064)
(0.0697853 0.175547 1.48321)
(0.134432 0.148331 1.80972)
(-0.00250739 0.0315604 1.68664)
(0.116027 -0.0532598 1.27975)
(0.114392 0.0471484 1.35894)
(0.214358 0.0389625 1.16328)
(0.238875 0.120175 1.72328)
(0.0917909 0.0619739 1.44159)
(0.0957755 0.00477449 1.34246)
(0.103197 0.0561832 1.41699)
(0.157506 0.0922537 1.34583)
(0.0822058 0.229049 1.27975)
(0.146398 0.255725 1.4072)
(0.143536 0.256584 1.60282)
(0.15106 0.120632 1.25174)
(0.0983924 0.174223 1.27783)
(0.111544 0.278661 1.5462)
(0.12025 0.0957355 1.21155)
(0.141269 0.248647 1.43576)
(0.0155822 0.410176 1.75292)
(0.0968575 0.149309 1.72689)
(-0.0237227 0.419077 1.8111)
(0.0407462 0.301255 1.69385)
(0.19917 0.212483 1.83935)
(0.149514 0.207392 1.79157)
(0.0683365 0.347208 1.58925)
(0.0325048 0.394231 1.61864)
(-0.264327 0.375241 1.26268)
(0.0694588 0.282792 1.62025)
(0.187108 0.0190929 1.40916)
(0.0732094 0.0168874 1.51115)
(-0.0397361 0.2216 1.57725)
(0.0105214 0.0680764 1.57067)
(-0.10792 0.167833 1.41522)
(0.0400586 0.112393 1.56618)
(0.092069 0.244882 1.66868)
(0.00391334 0.337646 1.82191)
(0.0661578 0.281628 1.72641)
(0.0251523 0.299034 1.84652)
(0.0498682 0.247492 1.76278)
(0.021793 0.31576 1.80456)
(0.0758483 0.292018 1.80368)
(0.0194128 0.307504 1.78255)
(0.0594113 0.0864793 1.46554)
(0.149238 0.209652 1.73529)
(0.0577624 0.248223 1.70271)
(0.0569897 0.00202328 1.47359)
(0.00280429 0.0929405 1.55164)
(0.193526 0.148101 1.64462)
(0.0309505 0.162434 1.56869)
(0.0743879 0.26218 1.74295)
(0.78602 0.0100538 2.3845)
(0.159425 -0.102771 1.75271)
(0.0304586 0.0504527 1.78035)
(0.442579 -0.016887 1.61611)
(0.583892 -0.034123 2.23222)
(0.115472 -0.255415 1.63824)
(0.537335 0.0505644 2.35793)
(0.0678482 0.072966 1.97797)
(0.0101222 0.0338932 1.82894)
(0.0803765 0.085896 1.88394)
(0.0176703 0.0299767 1.83696)
(0.330826 -0.0382342 1.66725)
(0.0432721 0.0352282 1.8634)
(0.0293262 0.0385508 1.74477)
(0.025224 -0.0265612 1.90162)
(-0.0011203 0.0049833 1.81331)
(-0.0908066 -0.127083 1.6494)
(0.022829 -0.050716 1.78582)
(0.0210678 -0.0640883 1.74641)
(-0.259081 -0.133852 1.52769)
(-0.0312024 -0.0634864 1.76758)
(0.100056 0.10114 1.69324)
(-0.1869 -0.235865 1.7185)
(-0.0138007 -0.12294 1.74542)
(0.131956 -0.0430424 1.29155)
(0.230364 -0.0138642 1.4273)
(0.29176 0.0620406 1.45253)
(0.0951018 -0.128795 1.18504)
(0.125169 -0.0587137 1.30038)
(0.230851 0.0433031 1.50638)
(0.0424433 -0.0839099 1.24232)
(0.223216 -0.0590716 1.38348)
(0.0775519 -0.0854406 1.79407)
(-0.0412128 -0.0725152 1.96021)
(0.361389 0.0671154 1.64003)
(0.338324 -0.0270365 1.65698)
(-0.077218 -0.290759 1.78754)
(-0.119753 0.0495896 1.94524)
(0.379847 -0.0845079 1.49377)
(0.256521 0.0291634 1.64922)
(0.151051 0.027671 1.60475)
(0.173919 -0.106328 1.54898)
(-0.101478 -0.06517 1.68169)
(-0.133129 -0.198748 1.71823)
(-0.18603 0.0149857 1.70972)
(-0.158588 -0.00868318 1.7068)
(-0.188397 0.00443412 1.67931)
(-0.130318 -0.0764744 1.69562)
(0.10284 -0.034347 1.92212)
(0.246342 0.02692 1.70107)
(0.339919 -0.0681055 1.60427)
(0.334044 0.0163794 1.82161)
(0.0608526 -0.00531511 1.78957)
(0.254294 -0.0168854 1.7122)
(0.150568 -0.0370285 1.83946)
(0.259035 -0.0422692 1.66299)
(-0.0496108 -0.0777493 1.7694)
(0.0223811 -0.00594826 1.55698)
(0.176529 0.0409126 1.59389)
(-0.0242528 -0.0924136 1.72461)
(-0.00618135 -0.031649 1.80215)
(-0.157442 -0.311724 1.5409)
(-0.133125 -0.053876 1.73202)
(-0.136545 -0.0574562 1.36587)
(0.0278663 -0.228598 1.1817)
(0.006287 -0.185381 1.13491)
(-0.0921737 -0.278047 1.25007)
(0.0420806 -0.0885052 1.07081)
(-0.0287279 -0.22744 1.16707)
(-0.046301 -0.221073 1.18729)
(0.0817681 -0.209452 1.16947)
(-0.0599632 -0.256177 1.15794)
(0.0277354 -0.0576906 1.11009)
(0.012651 0.00278626 1.10652)
(0.00108537 -0.076214 1.11759)
(-0.053649 -0.0561252 1.09085)
(-0.020519 -0.0397553 1.11041)
(-0.00600098 -0.0544652 1.10501)
(-0.0221262 -0.053145 1.11708)
(0.0196051 -0.00720859 1.10505)
(-0.158279 -0.327768 1.33468)
(-0.138468 -0.280851 1.26792)
(-0.228596 -0.337751 1.3963)
(-0.104409 -0.17502 1.17829)
(-0.165426 -0.284743 1.2735)
(-0.21232 -0.306028 1.35118)
(-0.154219 -0.312524 1.2362)
(-0.211884 -0.329692 1.33335)
(0.0136511 -0.00676079 1.02993)
(0.0103406 -0.00199446 1.04743)
(-0.0180686 -0.0258894 1.07287)
(-0.0188145 -0.00791981 1.02696)
(0.000614849 -0.018946 1.07354)
(-0.0198653 -0.0256261 1.06248)
(0.00532501 -0.0258239 1.04276)
(0.00569196 0.0012942 1.07229)
(-0.0294178 -0.156367 1.13019)
(-0.0982499 -0.280084 1.21064)
(-0.0280087 -0.0794248 1.13658)
(0.00617976 -0.0215408 1.05173)
(-0.0348641 -0.138795 1.14643)
(-0.0252771 -0.233532 1.14447)
(-0.00247383 -0.0109019 1.07705)
(-0.014728 -0.0601017 1.11188)
(-0.00372604 -0.150342 1.15299)
(-0.0525067 -0.0309501 1.07102)
(-0.0696433 -0.193636 1.20241)
(-0.0962782 -0.29515 1.29358)
(0.0286743 -0.1204 1.11579)
(-0.0459402 0.00351381 1.07677)
(-0.0346033 -0.269032 1.23916)
(-0.0575503 -0.166553 1.14362)
(-0.0899059 -0.265916 1.17992)
(0.0329166 -0.0760138 1.06846)
(-0.0107483 -0.0242839 1.0827)
(0.0216316 -0.0738167 1.10366)
(-0.024766 -0.118797 1.11004)
(0.00270361 -0.0879028 1.11806)
(-0.0274792 -0.114475 1.12506)
(0.0281627 -0.0264266 1.09094)
(-0.115353 -0.310073 1.25714)
(-0.0215515 -0.0989511 1.0962)
(-0.0531799 -0.0630608 1.11071)
(-0.0531428 -0.162665 1.19592)
(-0.103619 -0.26084 1.19287)
(-0.0620753 -0.112031 1.12869)
(-0.072864 -0.0908576 1.17642)
(-0.0141895 0.00868734 1.05205)
(-0.00234675 -0.00712309 1.00469)
(-0.00770984 -0.017793 1.01396)
(-0.00197373 -0.017945 1.01427)
(-0.00443413 -0.00995129 1.00805)
(-0.0039316 -0.00831451 1.0046)
(-0.00345658 -0.0122423 1.00907)
(-0.00391028 -0.00918643 1.00613)
(-0.00385239 -0.0109729 1.011)
(-0.015569 -0.025858 1.03977)
(-0.0167353 -0.0253303 1.071)
(-0.00595585 -0.0458478 1.07423)
(-0.010642 -0.0250648 1.06286)
(-0.0146708 -0.0258732 1.04781)
(-0.0169385 -0.0335361 1.06902)
(-0.0128527 -0.0284989 1.04581)
(-0.0139222 -0.0323289 1.05872)
(0.00481089 -0.0270844 1.03386)
(-0.00732513 -0.0384615 1.05951)
(0.003618 -0.0329917 1.06079)
(0.00507283 -0.0304246 1.045)
(0.00221753 -0.0288436 1.03474)
(-0.000901342 -0.027968 1.04846)
(0.00744641 -0.0322834 1.04064)
(-0.0034747 -0.0338716 1.04054)
(-0.00293158 -0.00840346 1.01556)
(0.00153683 -0.00780177 1.03833)
(0.00530157 -0.0124545 1.02738)
(-0.00290514 -0.00470505 1.02725)
(-0.00353831 -0.00657938 1.01958)
(0.00432683 -0.0116078 1.02414)
(-0.0024804 -0.00745001 1.02162)
(0.00286453 -0.00767414 1.02323)
(-0.00936754 -0.0165948 1.01713)
(-0.00204787 -0.0186838 1.01501)
(-0.00414421 -0.00876686 1.01132)
(-0.0063052 -0.0140442 1.02897)
(-0.00807643 -0.0153835 1.02018)
(-0.00433451 -0.0135095 1.0142)
(-0.00788626 -0.0169455 1.02337)
(-0.00119753 -0.0129126 1.01939)
(-0.00838398 -0.0262389 1.03143)
(-0.0094045 -0.0226705 1.04178)
(-0.00140376 -0.0432508 1.05898)
(-0.0019766 -0.0240682 1.03062)
(-0.00921565 -0.0250404 1.03097)
(-0.00507343 -0.0266279 1.04154)
(-0.006 -0.0333862 1.03338)
(-0.0036136 -0.0308949 1.03747)
(-0.000825495 -0.0177456 1.01837)
(-0.00256749 -0.00836643 1.01369)
(-0.00604794 -0.0138809 1.03046)
(0.00179193 -0.0161654 1.02611)
(-0.000667314 -0.0183481 1.02117)
(-0.00296492 -0.0121738 1.01898)
(0.000146571 -0.0159972 1.0239)
(0.000897891 -0.0124297 1.02433)
(-0.000273737 -0.023995 1.02988)
(0.00284126 -0.0184415 1.04166)
(-0.00877288 -0.0165795 1.0439)
(-0.000454103 -0.0410627 1.05956)
(-0.00263789 -0.0235885 1.0363)
(0.00208226 -0.0248004 1.03991)
(-0.00410701 -0.0303427 1.0391)
(-0.00245627 -0.0258781 1.04016)
(0.0217785 -0.00409184 1.00865)
(0.0425596 -0.0145683 1.02287)
(0.0387034 -0.00346645 1.02806)
(0.0216217 -0.00983772 1.01889)
(0.0217661 -0.00775412 1.0067)
(0.0312818 -0.00861132 1.01288)
(0.0204218 -0.00770509 1.01867)
(0.0270908 -0.00816764 1.01672)
(0.0540484 -0.0374566 1.05327)
(0.0699234 -0.080822 1.12953)
(0.0653039 -0.0526238 1.06902)
(0.0362942 -0.0467413 1.0715)
(0.0494994 -0.0446112 1.06134)
(0.0609415 -0.050152 1.07556)
(0.0479193 -0.039847 1.06182)
(0.0465661 -0.0436013 1.08143)
(0.0474793 0.00307862 1.0546)
(0.0429004 -0.0196936 1.06549)
(0.0420229 0.00299288 1.07728)
(0.0249601 -0.00604097 1.0497)
(0.0402262 -6.74805e-05 1.0544)
(0.0426241 -0.00471851 1.07318)
(0.0358492 0.00577953 1.06372)
(0.0350993 -0.00198961 1.06922)
(0.0194741 -0.0103327 1.02886)
(0.0238616 -0.0287238 1.04473)
(0.0203427 -0.00887114 1.03751)
(0.0153462 -0.00707964 1.03184)
(0.0214623 -0.0126407 1.02804)
(0.0215045 -0.0191079 1.03246)
(0.0155161 -0.00666646 1.03003)
(0.0201765 -0.0112064 1.03739)
(0.0445412 -0.023106 1.02372)
(0.0341009 -0.00533582 1.02722)
(0.0242046 -0.0135336 1.01754)
(0.0294532 -0.0350116 1.03719)
(0.0287416 -0.0215823 1.03741)
(0.0235758 -0.0142127 1.02442)
(0.0331326 -0.031834 1.03937)
(0.0285114 -0.0161646 1.02471)
(0.0539957 -0.0247755 1.04041)
(0.0368959 -0.0393433 1.04622)
(0.0590808 -0.0292029 1.0719)
(0.04335 -0.00981369 1.04723)
(0.0456931 -0.024183 1.04114)
(0.043624 -0.0271765 1.0463)
(0.0432696 -0.0199284 1.05554)
(0.045047 -0.0228107 1.05454)
(0.0305547 -0.00280189 1.03346)
(0.0197206 -0.00677621 1.02468)
(0.0249212 -0.0212285 1.04796)
(0.019994 -0.00515995 1.04116)
(0.028073 -0.00698877 1.03612)
(0.0243837 -0.0114574 1.02663)
(0.0275695 -0.00790641 1.03404)
(0.022059 -0.0157431 1.03193)
(0.0389083 -0.00740533 1.04115)
(0.0265943 -0.0105028 1.04602)
(0.0287753 -0.033752 1.0534)
(0.0432526 -0.0273621 1.0749)
(0.0285844 -0.0120741 1.05221)
(0.0307835 -0.0124689 1.04654)
(0.0303252 -0.0180263 1.05762)
(0.0335822 -0.029699 1.05167)
(-0.0111855 -0.0528278 1.75156)
(-0.122241 -0.0381693 1.78309)
(-0.0292397 -0.222232 1.62982)
(0.0358013 0.0497119 1.54981)
(-0.0613886 -0.0317577 1.83795)
(-0.08756 -0.0822696 1.7349)
(0.0818313 -0.0357094 1.7764)
(-0.0651797 -0.0423632 1.72465)
(-0.115744 -0.0497449 1.62297)
(-0.748041 0.0925052 2.04809)
(-0.398217 -0.0539754 1.72968)
(-0.116395 0.0859871 1.36909)
(-0.422346 -0.272538 1.87099)
(-0.667883 -0.0551964 1.78138)
(-0.033893 -0.11924 1.81701)
(-0.508491 -0.0897937 1.76455)
(0.110766 -0.173323 1.28842)
(-0.157105 -0.0300171 1.54704)
(0.0139636 -0.0519636 1.57048)
(0.045148 -0.00573978 1.51321)
(0.0979432 -0.0916293 1.76841)
(-0.0532125 -0.074413 1.56295)
(0.0673879 -0.123147 1.83185)
(-0.0188319 -0.0817205 1.55855)
(0.116566 -0.0776338 1.16275)
(-0.0662617 -0.0736902 1.20245)
(-0.0157814 -0.0557316 1.25932)
(-0.0923173 -0.0764034 1.03341)
(-0.0581363 -0.0598637 1.30679)
(-0.0630231 -0.0262788 1.35025)
(0.0643187 -0.0433233 1.23871)
(-0.00476922 -0.0733035 1.2782)
(-0.123579 -0.0569605 1.86059)
(-0.03375 -0.0751292 1.78065)
(-0.167646 0.000564354 1.51085)
(-0.190733 0.00510598 1.40556)
(-0.0918351 -0.0256346 1.81325)
(-0.0980221 -0.0126109 1.79179)
(-0.0570157 0.0664418 1.47722)
(-0.111991 0.0127651 1.41931)
(-0.211533 -0.107965 1.34331)
(-0.122759 0.0614371 1.34716)
(-0.259042 -0.123411 1.6703)
(-0.059674 -0.224902 1.38737)
(-0.137436 -0.0912925 1.38717)
(-0.0733094 -0.0337281 1.95566)
(-0.174843 -0.0288384 1.40533)
(-0.0297357 -0.109611 1.88036)
(-0.0481107 0.0118452 1.72777)
(-0.0617745 0.000468194 1.45656)
(-0.119232 -0.0149839 1.39416)
(-0.0134332 0.0122099 1.50113)
(-0.0804079 -0.0485756 1.45155)
(-0.10461 -0.041835 1.4652)
(-0.0567944 0.0115497 1.46363)
(-0.0969768 0.0478079 1.45664)
(0.0121371 -0.0715634 1.47874)
(0.0633838 -0.0355638 1.45518)
(-0.0806953 0.0168415 1.41464)
(-0.155417 -0.135979 1.5667)
(0.045229 -0.0912937 1.80284)
(0.000454882 0.0181179 1.55889)
(0.00289941 -0.0736737 1.83012)
(-0.0191211 0.0443039 1.36692)
(-0.00963285 0.000688504 1.00022)
(-0.0107119 -0.000388081 1.00083)
(-0.00358973 -0.000921077 1.00052)
(-0.0245367 -0.00384351 1.01096)
(-0.0157702 -0.00240129 1.00376)
(-0.00535452 -0.000870794 0.999679)
(-0.0129726 -0.00182351 1.00374)
(-0.00635337 -0.00255766 1.00216)
(-0.0121595 -0.00296902 1.00138)
(-0.0114731 -0.00777099 1.00064)
(-0.00123916 -0.00390619 1.00111)
(-0.0224763 -0.0169227 1.00897)
(-0.0173356 -0.00929494 1.00526)
(-0.00646903 -0.00827201 0.998938)
(-0.0144363 -0.0100765 1.00413)
(-0.00556353 -0.00911489 1.00357)
(-0.000925195 -0.0012993 1.00018)
(-0.000294328 -0.00299832 1.00037)
(0.000254758 -0.00187449 0.999944)
(-0.00412211 -0.00849426 1.00574)
(-0.00459972 -0.00168034 1.00059)
(-0.000813535 -0.00127039 0.999523)
(-0.0047508 -0.00378124 1.00266)
(-0.00158354 -0.00483474 1.00299)
(-0.0314105 -0.0160943 1.0302)
(-0.0296492 -0.0254762 1.02556)
(-0.0186395 -0.0158709 1.02313)
(-0.0297461 -0.027358 1.04885)
(-0.031893 -0.0221638 1.03064)
(-0.0292119 -0.02417 1.02463)
(-0.0271447 -0.0246124 1.03396)
(-0.0250814 -0.0228517 1.03375)
(-0.0167442 -0.00466971 1.0038)
(-0.00981613 -0.0025328 1.0032)
(-0.0283775 -0.0113848 1.01691)
(-0.0287221 -0.0149094 1.01646)
(-0.0139724 -0.00738611 1.00433)
(-0.0129182 -0.002274 1.0069)
(-0.0267332 -0.0119974 1.01527)
(-0.0208928 -0.00988941 1.00809)
(-0.00648587 -0.00413595 0.999506)
(-0.0202473 -0.0170612 1.00589)
(-0.00168031 -0.00249174 0.999344)
(-0.00220809 -0.00152995 0.999767)
(-0.00620656 -0.00607768 1.00501)
(-0.0145214 -0.00745418 1.01054)
(-0.00422095 -0.00229247 1.00112)
(-0.00962662 -0.00325867 1.00328)
(-0.00904065 -0.0023066 1.00327)
(-0.0232025 -0.0122435 1.01999)
(-0.0227673 -0.018233 1.01889)
(-0.0152779 -0.0131426 1.0168)
(-0.0129265 -0.00464107 1.00753)
(-0.0187376 -0.0123643 1.01778)
(-0.0194721 -0.00921085 1.01344)
(-0.0217779 -0.0142286 1.02656)
(-0.00308151 -0.00313353 1.00236)
(-0.0101144 -0.0162217 1.01542)
(-0.014862 -0.0180512 1.01861)
(-0.00156803 -0.00563547 1.00404)
(-0.00855036 -0.00264822 1.00498)
(-0.0109107 -0.0100939 1.00654)
(-0.00904285 -0.00519639 1.0042)
(-0.0111762 -0.0125588 1.01333)
(0.00718221 -0.00271128 1.00018)
(0.00666371 -0.00359201 1.00431)
(0.030016 -0.0207602 1.01096)
(0.0197242 -0.0134543 1.00824)
(0.0149868 -0.00334525 1.00039)
(0.0159728 -0.0094447 1.00169)
(0.0191387 -0.0134095 1.00693)
(0.0190397 -0.0142216 1.01111)
(0.00607234 -0.00451013 1.00325)
(0.00856788 -0.00737245 1.00559)
(0.0268139 -0.0298989 1.02206)
(0.0143866 -0.0106905 1.00948)
(0.00838815 -0.00708319 1.00434)
(0.0106955 -0.00818637 1.00199)
(0.0140733 -0.0130671 1.00475)
(0.0191874 -0.0151537 1.00405)
(0.0519226 -0.0448577 1.04092)
(0.0420188 -0.0408665 1.0416)
(0.0718008 -0.0650198 1.12865)
(0.0416442 -0.0531151 1.06097)
(0.0435154 -0.0368086 1.04424)
(0.0518985 -0.0482727 1.05619)
(0.0492964 -0.0481757 1.06677)
(0.0622077 -0.0623948 1.07325)
(0.0201465 -0.0138767 1.01879)
(0.0149652 -0.0136764 1.01463)
(0.0229116 -0.0297075 1.03434)
(0.0148885 -0.0124101 1.02638)
(0.0139509 -0.00841153 1.02024)
(0.0184075 -0.0149428 1.01873)
(0.019275 -0.0140761 1.02601)
(0.0236257 -0.0193744 1.02463)
(0.0120432 -0.00569804 1.007)
(0.0354488 -0.0205699 1.01515)
(0.0196044 -0.00869794 1.0102)
(0.0150331 -0.00903553 1.0131)
(0.0149866 -0.0112251 1.00553)
(0.0194556 -0.0136814 1.01216)
(0.0133953 -0.0101716 1.00698)
(0.0194945 -0.0137931 1.01116)
(0.0117115 -0.00821309 1.00356)
(0.0156203 -0.0151657 1.00682)
(0.0303162 -0.0281975 1.02134)
(0.035574 -0.0274847 1.01651)
(0.0147455 -0.0138446 1.00611)
(0.0188465 -0.0154464 1.00526)
(0.0224493 -0.0219039 1.01821)
(0.0309753 -0.0229074 1.01819)
(0.0359523 -0.0319663 1.02782)
(0.0222929 -0.0145099 1.01809)
(0.0170283 -0.0169993 1.0134)
(0.0250995 -0.0295975 1.03809)
(0.031351 -0.0318415 1.02734)
(0.0213306 -0.017722 1.01771)
(0.0246246 -0.0223533 1.02743)
(0.0226876 -0.0168509 1.0194)
(0.0377955 -0.0317752 1.02682)
(0.0282202 -0.0378644 1.0394)
(0.0248932 -0.0200125 1.01164)
(0.0309734 -0.0399859 1.0317)
(0.0295625 -0.0326026 1.03716)
(0.0267633 -0.0323076 1.03096)
(0.0297592 -0.031626 1.02496)
(0.0275027 -0.0339503 1.01773)
(0.0100509 0.0275121 0.997929)
(0.0234907 0.0689533 1.00989)
(0.00749203 0.0144711 0.998518)
(0.0328786 0.0614096 1.01802)
(0.0157998 0.0531356 1.00211)
(0.0162755 0.0465075 1.00347)
(0.0142572 0.0404618 1.0084)
(0.0163438 0.0509164 1.01525)
(0.0335521 0.083979 1.04504)
(0.0329859 0.06989 1.07221)
(0.021111 0.0536857 1.03014)
(0.0328669 0.0942609 1.08585)
(0.0318028 0.0983323 1.05844)
(0.0332344 0.0822825 1.06135)
(0.0160945 0.0925815 1.0803)
(0.0194365 0.0793483 1.073)
(0.00544199 0.0100727 0.998211)
(0.0151322 0.0311956 1.0108)
(0.00365575 0.010676 0.999789)
(0.0190878 0.0330648 1.01182)
(0.0105436 0.0261458 1.00605)
(0.011928 0.0270061 1.00601)
(0.0126113 0.0205904 1.00814)
(0.0132719 0.0247642 1.00786)
(0.0632769 0.0845921 1.06824)
(0.0560188 0.0992038 1.10564)
(0.0448693 0.0700773 1.04969)
(0.101468 0.117043 1.16039)
(0.0653423 0.10134 1.09127)
(0.0653089 0.0987279 1.09273)
(0.0658657 0.0938975 1.10966)
(0.0619044 0.0923145 1.10668)
(0.0283347 0.0868544 1.03271)
(0.011905 0.0371671 1.0093)
(0.0353317 0.0796086 1.03993)
(0.0388441 0.0986895 1.06518)
(0.0219124 0.0781146 1.03059)
(0.019847 0.059441 1.01652)
(0.0355233 0.0894435 1.05133)
(0.0376235 0.0713039 1.0365)
(0.0223117 0.0703718 1.0273)
(0.0442472 0.0971007 1.07461)
(0.0223456 0.0537299 1.02476)
(0.0162328 0.0394892 1.00912)
(0.0178501 0.0741696 1.04845)
(0.0230227 0.0847222 1.04704)
(0.0185955 0.0411493 1.00632)
(0.0215331 0.0567375 1.02344)
(0.0140682 0.0271837 1.00861)
(0.0380901 0.0738869 1.04939)
(0.0348552 0.0867695 1.07748)
(0.0331911 0.0479252 1.03615)
(0.0250279 0.0409234 1.0098)
(0.040418 0.071967 1.0604)
(0.0284588 0.0566689 1.02818)
(0.0412161 0.0790711 1.05943)
(0.0137919 0.0359918 1.01812)
(0.0321326 0.0515232 1.03645)
(0.0423499 0.0882729 1.08391)
(0.0185503 0.0520373 1.03142)
(0.0203001 0.043275 1.01786)
(0.0298509 0.0568884 1.03212)
(0.0179428 0.0511574 1.03085)
(0.0271352 0.0599766 1.03675)
(0.00497843 -0.0015187 1.00559)
(0.00819774 -0.00717218 1.00118)
(0.0072208 -0.00522508 1.00369)
(0.034257 -0.0278894 1.02445)
(0.0201302 -0.00725995 0.999999)
(0.00886767 -0.0041316 0.999895)
(0.0220868 -0.0173061 1.00185)
(0.0162211 -0.0150564 0.998597)
(0.00722171 -0.0068453 0.999746)
(0.00876183 -0.00311147 0.999178)
(0.00700676 -0.00184044 1.00027)
(0.0315593 -0.0156811 1.0081)
(0.0187698 -0.00383099 0.99697)
(0.00717861 -0.00132209 0.998035)
(0.020928 -0.0106821 0.999539)
(0.014882 -0.00849156 1.00121)
(0.00559903 -0.00216218 0.998126)
(0.00510557 -0.00223522 1.0009)
(0.00424532 -0.00521619 0.999356)
(0.0204797 -0.0171147 1.01057)
(0.00657701 -0.00816166 1.00492)
(0.00350834 -0.00213434 1.00123)
(0.0151853 -0.00728226 0.996199)
(0.0110079 -0.0086326 1.0007)
(0.0593522 -0.0444413 1.05175)
(0.0505691 -0.0413326 1.03961)
(0.0460754 -0.0455084 1.0411)
(0.0766006 -0.0629744 1.11915)
(0.0672327 -0.0543976 1.0758)
(0.0488814 -0.0477061 1.04004)
(0.0675052 -0.0520975 1.07251)
(0.0583125 -0.0561269 1.06143)
(0.0198282 -0.00615532 0.994543)
(0.0103132 -0.00935618 0.996841)
(0.0464594 -0.0286323 1.023)
(0.0422478 -0.0228591 1.01175)
(0.0243529 -0.0137538 0.999488)
(0.019906 -0.0205796 1.00169)
(0.0294268 -0.0222461 1.0069)
(0.0292866 -0.0219886 1.00721)
(0.00766274 -0.0030173 0.999306)
(0.0229232 -0.0152192 1.00356)
(0.00658302 -0.00106412 0.998313)
(0.00428309 -0.00196586 0.997046)
(0.0141182 -0.0108849 0.996768)
(0.0200743 -0.0166869 1.00366)
(0.00299943 -0.00185532 1.00013)
(0.0108498 -0.00325758 1.00131)
(0.0214439 -0.0178203 1.01153)
(0.0513085 -0.0481364 1.0429)
(0.0505551 -0.0324774 1.01981)
(0.032375 -0.0289786 1.01826)
(0.0195999 -0.0275886 1.0069)
(0.0351268 -0.0388371 1.02164)
(0.0328994 -0.0335669 1.02095)
(0.04459 -0.0467125 1.03113)
(0.0157752 -0.0116572 1.00178)
(0.0308525 -0.0284535 1.0227)
(0.0371531 -0.0261049 1.01276)
(0.0112177 -0.00873767 1.00352)
(0.0126659 -0.0160449 1.00437)
(0.0301419 -0.0229566 1.00828)
(0.0118375 -0.0113817 1.00748)
(0.0287254 -0.0179471 1.01059)
(0.10597 0.130481 1.1356)
(0.0675536 0.0753769 1.08623)
(0.0703254 0.073333 1.07696)
(0.0747494 0.0747047 1.11091)
(0.0729143 0.0899891 1.11595)
(0.067473 0.0741133 1.099)
(0.0830035 0.094328 1.09961)
(0.0672486 0.0707182 1.07615)
(0.0451006 0.0468194 1.0491)
(0.0230647 0.0333164 1.04034)
(0.02079 0.0318861 1.0295)
(0.035628 0.0403578 1.0489)
(0.0328656 0.0361208 1.04937)
(0.0239451 0.0339108 1.04065)
(0.0349026 0.0438145 1.04709)
(0.0215946 0.0326786 1.03056)
(0.0407076 0.0381076 1.02495)
(0.0190371 0.0277004 1.01443)
(0.0138017 0.0171561 1.00332)
(0.0318868 0.0297884 1.02191)
(0.0252977 0.0300823 1.01618)
(0.021117 0.0246266 1.01168)
(0.0252881 0.0241584 1.01235)
(0.0150637 0.0205149 1.00674)
(0.0805901 0.0684771 1.0941)
(0.045624 0.0403952 1.07005)
(0.0526939 0.0413551 1.05414)
(0.071132 0.0523392 1.10608)
(0.0572714 0.0480834 1.09752)
(0.0475793 0.0374982 1.06888)
(0.067089 0.0534003 1.08646)
(0.0519432 0.0399124 1.05373)
(0.0497815 0.0587884 1.07825)
(0.0529683 0.0583957 1.05257)
(0.0731214 0.0580954 1.10134)
(0.0450026 0.0375609 1.0589)
(0.0620161 0.058945 1.06921)
(0.0589019 0.0563592 1.07002)
(0.0421041 0.057226 1.07098)
(0.0569067 0.0515833 1.08417)
(0.045534 0.0510377 1.06409)
(0.0408669 0.0394636 1.04748)
(0.0240354 0.03145 1.02324)
(0.0437309 0.0433527 1.03704)
(0.040971 0.0453868 1.04637)
(0.0341941 0.0406162 1.04233)
(0.0469886 0.0468797 1.04835)
(0.0326175 0.0356775 1.03514)
(0.0580256 0.0536025 1.04853)
(0.0795533 0.0682945 1.09069)
(0.0449197 0.0473148 1.06274)
(0.0456987 0.0428265 1.04409)
(0.0603245 0.0529415 1.06828)
(0.050094 0.0510279 1.06298)
(0.0461683 0.0412345 1.0476)
(0.0443904 0.0445023 1.05499)
(0.0416713 0.0415084 1.03011)
(0.0324699 0.0312054 1.02424)
(0.0362118 0.0356944 1.03928)
(0.0201897 0.0288277 1.01949)
(0.0297146 0.0358691 1.02396)
(0.0356485 0.0342465 1.03143)
(0.0313318 0.0352 1.02909)
(0.035707 0.0342122 1.03716)
(0.0920592 -0.123343 1.16679)
(0.153502 -0.13515 1.22586)
(0.067242 -0.102615 1.13695)
(0.00766279 -0.0479018 1.09115)
(0.0552884 -0.0995144 1.13238)
(0.111008 -0.126097 1.17232)
(0.00800998 -0.0581725 1.10497)
(0.049779 -0.0906479 1.10188)
(0.225926 -0.158681 1.30294)
(0.23863 -0.100477 1.35927)
(0.122056 -0.107432 1.23639)
(0.0259364 -0.0720626 1.1078)
(0.210648 -0.123033 1.26174)
(0.266993 -0.160653 1.38419)
(0.0908436 -0.0711159 1.15775)
(0.159193 -0.146428 1.26809)
(0.054588 -0.0977081 1.14783)
(0.0616993 -0.0842142 1.1433)
(0.0734605 -0.071627 1.15175)
(0.0210916 -0.0558685 1.08039)
(0.0440722 -0.0710097 1.13464)
(0.0797066 -0.0824094 1.19164)
(0.0276681 -0.0751745 1.10081)
(0.0512608 -0.0952186 1.14923)
(0.0150036 -0.0174058 1.0682)
(0.0139552 -0.0205424 1.05164)
(0.0177696 -0.0285768 1.04956)
(0.014246 -0.00612068 1.03738)
(0.0147823 -0.0232788 1.05638)
(0.0221591 -0.0318388 1.06276)
(0.0137739 -0.0140765 1.05271)
(0.0180066 -0.0256892 1.06889)
(0.109474 -0.0927893 1.16752)
(0.054466 -0.0825777 1.10367)
(0.00747147 -0.0436187 1.08309)
(0.00816738 -0.0611753 1.0966)
(0.0275895 -0.0755802 1.12042)
(0.0332318 -0.0824989 1.12695)
(0.0238072 -0.0723287 1.10488)
(0.0109507 -0.069201 1.1121)
(0.197755 -0.117706 1.2364)
(0.0131153 -0.071759 1.12907)
(0.144839 -0.102534 1.26875)
(0.0768613 -0.122108 1.17876)
(0.0782679 -0.0730647 1.15504)
(0.0682411 -0.0833218 1.14559)
(0.102891 -0.107992 1.20442)
(0.0791926 -0.0774165 1.15418)
(0.0309775 -0.0710884 1.09418)
(0.0154137 -0.0333738 1.06708)