/*--------------------------------*- C++ -*----------------------------------*\
| =========                 |                                                 |
| \\      /  F ield         | OpenFOAM: The Open Source CFD Toolbox           |
|  \\    /   O peration     | Version:  2412                                  |
|   \\  /    A nd           | Website:  www.openfoam.com                      |
|    \\/     M anipulation  |                                                 |
\*---------------------------------------------------------------------------*/
FoamFile
{
    version     2.0;
    format      ascii;
    arch        "LSB;label=32;scalar=64";
    class       volVectorField;
    location    "100";
    object      U;
}
// * * * * * * * * * * * * * * * * * * * * * * * * * * * * * * * * * * * * * //

dimensions      [0 1 -1 0 0 0 0];

internalField   nonuniform List<vector> 
43136
(
(0.00948697 0.00209258 1.07226)
(0.000728882 -0.00713129 1.06756)
(0.00561289 0.0155083 1.06084)
(0.00693369 0.00408959 1.04335)
(0.0030613 0.000114666 1.05939)
(-0.000896098 0.00905711 1.06486)
(0.00922387 0.00236434 1.05695)
(0.0058458 0.00793572 1.06338)
(0.00255626 0.00438378 1.07308)
(-0.0106744 0.0153819 1.06645)
(-0.00571487 0.0179512 1.06253)
(-0.00646471 0.0149407 1.04261)
(-0.00478989 0.00811176 1.06152)
(-0.00881875 0.0222707 1.06902)
(0.00206173 0.00812157 1.0587)
(-0.000627387 0.0197691 1.06538)
(0.00626027 0.0256563 1.05745)
(-1.27278e-05 0.0199558 1.05683)
(0.00467789 0.026272 1.05123)
(0.00247033 0.0186592 1.04026)
(0.00555969 0.0219237 1.05795)
(0.0048854 0.0261984 1.05659)
(0.00464118 0.0210005 1.05115)
(0.00561239 0.0246259 1.05296)
(8.66636e-05 0.0104436 1.02769)
(-0.00643454 0.0161809 1.02838)
(-0.00216404 0.0173571 1.0291)
(-0.00626866 0.0187791 1.02178)
(-0.00305508 0.0131348 1.02483)
(-0.00331469 0.014706 1.0292)
(-0.00181744 0.0156941 1.02587)
(-0.00288582 0.0163868 1.02855)
(0.00285068 -0.00349925 1.05938)
(0.00429887 0.0127446 1.06204)
(0.00165541 0.00589392 1.0345)
(-0.00281433 0.00993193 1.03518)
(0.00394365 0.000196133 1.05555)
(0.00386015 0.00617418 1.06055)
(0.000457739 0.00968663 1.03925)
(0.000671321 0.0112518 1.0405)
(0.00264994 0.0100966 1.06644)
(-0.00301838 0.013638 1.04114)
(-0.0010421 0.0252527 1.06403)
(0.0061386 0.0208518 1.05999)
(0.00609923 0.0107101 1.06272)
(0.00403992 0.0122049 1.05878)
(0.0027023 0.0139039 1.06217)
(0.00374515 0.0132948 1.0632)
(0.00502374 0.0142792 1.0599)
(0.00316532 0.00739417 1.03463)
(-0.00134373 0.0128754 1.03446)
(0.00243573 0.015712 1.03821)
(0.0042093 0.0133518 1.04279)
(0.00279984 0.0103876 1.03815)
(0.00109257 0.0149401 1.03997)
(-0.000776217 0.0133863 1.03491)
(0.00738761 0.0196181 1.05997)
(0.00196881 0.0174208 1.04019)
(-0.00128109 0.0156654 1.03822)
(0.00395197 0.0217527 1.06014)
(0.005305 0.0173082 1.05502)
(0.00140782 0.0166909 1.04168)
(0.00399149 0.0121888 1.05552)
(-0.00222722 0.0138855 1.03733)
(0.00896115 0.0179497 1.00454)
(0.0239317 0.0441192 1.01963)
(0.0133274 0.0381704 1.01614)
(0.0147713 0.0321574 1.01395)
(0.012857 0.0241913 1.00723)
(0.0148392 0.033122 1.01314)
(0.012499 0.028745 1.0087)
(0.0153894 0.0343615 1.01557)
(0.0567737 0.083511 1.06384)
(0.0999146 0.128282 1.16014)
(0.0613538 0.101833 1.10878)
(0.0529883 0.0896338 1.08834)
(0.0573091 0.087425 1.07814)
(0.0680707 0.106806 1.11597)
(0.0547165 0.0863005 1.08377)
(0.0679284 0.102077 1.12257)
(0.0154513 0.0602802 1.0428)
(0.0362774 0.0898398 1.09097)
(0.0191503 0.0638112 1.09137)
(0.0144294 0.0578691 1.0613)
(0.0172137 0.057865 1.05081)
(0.0203205 0.0794271 1.08259)
(0.0147102 0.0559495 1.0581)
(0.0256517 0.0688978 1.08977)
(0.01648 0.041895 1.02724)
(0.031319 0.0635357 1.05672)
(0.01406 0.0517206 1.04758)
(0.0155158 0.0468997 1.04054)
(0.0186766 0.0450144 1.0319)
(0.0230119 0.0515543 1.04057)
(0.0150819 0.0474169 1.03629)
(0.0222816 0.0513962 1.04521)
(0.0307274 0.0517471 1.02754)
(0.0154885 0.0436945 1.02235)
(0.0176632 0.0371364 1.01824)
(0.0345694 0.0611289 1.04769)
(0.0281032 0.0536469 1.03109)
(0.0169408 0.0412634 1.02085)
(0.0314583 0.0563389 1.04074)
(0.020671 0.0450712 1.0266)
(0.0361609 0.0643433 1.04547)
(0.0411973 0.0708018 1.0628)
(0.0390569 0.0899805 1.08764)
(0.0192261 0.0565202 1.03833)
(0.0364055 0.0637505 1.04651)
(0.040744 0.0693997 1.05923)
(0.0313472 0.0710268 1.04911)
(0.0344655 0.0710962 1.05751)
(0.0141256 0.0455539 1.02683)
(0.0157863 0.0398315 1.02172)
(0.0323162 0.0623831 1.05399)
(0.014355 0.0522747 1.04395)
(0.0145893 0.0485083 1.03113)
(0.0197375 0.0452719 1.02907)
(0.0171412 0.0516359 1.03711)
(0.0221323 0.0499307 1.03791)
(0.018811 0.0545091 1.03966)
(0.0231323 0.0582013 1.0603)
(0.0411198 0.0707087 1.06882)
(0.0401936 0.0851702 1.09645)
(0.0221142 0.0587627 1.05152)
(0.022884 0.0601281 1.05233)
(0.0328853 0.0718811 1.06558)
(0.0330111 0.0726943 1.06696)
(-0.00286367 0.027624 1.05007)
(0.000356602 0.0254913 1.04636)
(-0.00101207 0.0301197 1.0537)
(-0.00317096 0.026341 1.0419)
(-0.00208972 0.0267838 1.04659)
(-0.000252535 0.0275078 1.04828)
(-0.00325163 0.0272402 1.04648)
(-0.000747252 0.0284373 1.04783)
(0.00274752 0.024277 1.04703)
(0.00486605 0.0266197 1.05179)
(0.00426936 0.0296192 1.05658)
(0.0022538 0.022419 1.04299)
(0.0033366 0.0241512 1.04627)
(0.00489651 0.0256223 1.0527)
(0.00289461 0.0242342 1.04523)
(0.00477314 0.0258809 1.05261)
(0.00198291 0.0330361 1.0582)
(0.00574684 0.0342929 1.06092)
(0.0056363 0.0390977 1.06568)
(0.00189523 0.0319483 1.0517)
(0.00322301 0.0323539 1.05558)
(0.00508761 0.034608 1.05982)
(0.00274577 0.0317914 1.05592)
(0.00487532 0.0347455 1.06036)
(-0.005796 0.0239965 1.03511)
(-0.00282349 0.020574 1.03464)
(-0.00361339 0.0245583 1.03987)
(-0.00746944 0.0207527 1.02738)
(-0.00518563 0.0230671 1.03441)
(-0.00269756 0.0219034 1.0374)
(-0.0073187 0.0234304 1.03166)
(-0.00319343 0.0218814 1.03695)
(0.00101231 0.0247876 1.04461)
(0.000228085 0.0287276 1.04962)
(-0.0031854 0.0260397 1.04139)
(-0.000112139 0.0225508 1.04046)
(0.000367099 0.0253719 1.04399)
(-0.000280986 0.0274243 1.0453)
(-0.000682087 0.0235761 1.04177)
(-0.00141014 0.0260153 1.04282)
(0.00233707 0.025487 1.04779)
(0.00220746 0.022137 1.04444)
(0.00457111 0.0293978 1.05681)
(0.00230775 0.0303618 1.05203)
(0.00199831 0.026457 1.04748)
(0.00232517 0.0247779 1.04651)
(0.00266991 0.0289482 1.05103)
(0.00298545 0.0278981 1.04973)
(-0.000555875 0.0285293 1.05001)
(-0.00492877 0.0261811 1.04016)
(-0.0017181 0.0226294 1.0382)
(-0.00256676 0.0268301 1.04414)
(-0.000774349 0.0277775 1.04576)
(-0.00181558 0.0264651 1.04317)
(-0.000965071 0.0269338 1.04538)
(-0.00196204 0.0245417 1.0411)
(0.00190332 0.0309295 1.05221)
(0.00105291 0.0276134 1.04854)
(0.00208077 0.0223329 1.04459)
(0.00420521 0.0296785 1.0567)
(0.0025058 0.0298693 1.05029)
(0.00133715 0.0272862 1.04811)
(0.00259566 0.0280665 1.04908)
(0.00137703 0.0257812 1.04641)
(0.0598596 0.594056 1.73411)
(0.099366 0.552004 1.62498)
(-0.154969 0.147667 1.46483)
(0.0409327 0.558327 1.91818)
(0.0537781 0.57793 2.04044)
(-0.150004 0.431239 1.45837)
(0.188412 0.397283 2.06809)
(-0.0610006 0.326007 1.79622)
(0.15369 0.312096 1.69153)
(0.0915522 0.1587 1.77737)
(0.0805761 0.00982133 1.72657)
(0.097806 0.290423 1.76623)
(0.0943256 0.187994 1.84972)
(0.0938572 0.231885 1.5941)
(0.219731 0.0665863 1.93218)
(0.0586806 0.024232 1.78834)
(0.0215274 0.0714346 1.46381)
(0.132961 -0.0221523 1.61821)
(0.15017 0.0536861 1.41885)
(0.069241 0.179419 1.80913)
(0.0817877 0.0620521 1.71301)
(0.175979 -0.00547697 1.44891)
(0.00504034 0.156191 1.75438)
(0.118618 0.0459663 1.64571)
(0.0606289 0.247573 1.34057)
(0.151589 0.230916 1.39002)
(0.12672 0.238573 1.52382)
(0.133226 0.170488 1.27479)
(0.130935 0.151562 1.22845)
(0.119711 0.226202 1.55466)
(0.0998777 0.132356 1.16802)
(0.152465 0.218791 1.36483)
(0.0420697 0.397231 1.95013)
(0.0589264 0.20859 1.89315)
(0.0113336 0.41097 1.78174)
(0.074905 0.289571 1.70309)
(0.207616 0.221537 2.04843)
(0.0755955 0.237608 1.95246)
(0.107133 0.310123 1.76264)
(0.0976825 0.329745 1.79959)
(-0.0149557 0.340379 1.50614)
(0.0723316 0.224965 1.73397)
(0.196159 0.00455683 1.56317)
(0.142126 0.0318901 1.53387)
(0.0215069 0.157664 1.79175)
(0.0808706 0.0384887 1.77709)
(0.0201049 0.136577 1.67954)
(0.0962056 0.0732284 1.77476)
(0.0104457 0.285872 1.91565)
(-0.00722332 0.366649 1.76995)
(0.0865707 0.252656 1.66693)
(0.0364723 0.272422 1.80604)
(0.065416 0.284255 1.8694)
(0.0398542 0.333271 1.80236)
(0.0547803 0.285708 1.81971)
(0.0556938 0.28472 1.74199)
(0.0597104 0.0987226 1.72384)
(0.0728454 0.196489 1.76242)
(0.0714868 0.236746 1.71483)
(0.106854 0.00433443 1.71174)
(0.0543788 0.0653414 1.75889)
(0.094694 0.17349 1.75787)
(0.0937698 0.11094 1.85273)
(0.0817006 0.202444 1.77187)
(0.861445 0.0887156 2.42332)
(0.209834 -0.0746264 1.81954)
(0.055886 0.137669 1.91687)
(0.400794 0.0279569 1.72186)
(0.654197 0.0530344 2.28947)
(0.24261 -0.247545 1.65498)
(0.560996 0.148155 2.45454)
(0.0968704 0.168515 2.04906)
(0.103962 0.0619234 1.86425)
(0.0750605 0.0910882 1.95446)
(-0.0474461 0.0536119 1.91155)
(0.249301 -0.0729703 1.71537)
(0.0476185 0.00598819 1.95839)
(0.139836 0.13134 1.76296)
(-0.051958 -0.0605134 2.00592)
(-0.0509152 0.018046 1.87786)
(-0.0259156 0.0516527 1.866)
(-0.0321037 0.0186129 1.83402)
(0.093128 0.125877 1.83776)
(0.0694357 0.0320225 1.6839)
(0.000531765 0.0549412 1.94306)
(0.0182803 0.129445 1.6628)
(-0.0187365 0.0588569 1.98983)
(0.0622071 0.0877553 1.9294)
(0.126954 0.00800883 1.28906)
(0.18174 0.0386238 1.43644)
(0.226016 0.0508842 1.44098)
(0.0492401 -0.0680427 1.19686)
(0.0732523 -0.0361858 1.257)
(0.223351 0.0748469 1.53138)
(0.0379675 -0.0446986 1.19162)
(0.111016 -0.0323493 1.34028)
(0.151875 -0.0383994 1.91794)
(0.00426947 0.0593698 2.0341)
(0.351435 0.0645798 1.68001)
(0.297925 0.00512488 1.65305)
(-0.105675 -0.253183 1.99199)
(-0.0461242 0.106618 2.00176)
(0.338745 -0.034035 1.59756)
(0.237513 0.0820817 1.72264)
(0.219202 0.0513076 1.47579)
(0.116881 -0.0915229 1.68956)
(-0.114218 -0.00844613 1.77992)
(-0.25012 -0.346872 1.75951)
(-0.122315 0.0317852 1.83621)
(-0.109286 0.0318277 1.86094)
(-0.306261 0.00242985 1.68393)
(-0.125219 -0.0587867 1.79181)
(0.269908 0.276088 2.15013)
(0.283586 0.0448956 1.66937)
(0.305769 0.0300995 1.58889)
(0.294541 0.140556 1.74748)
(0.195085 0.10243 1.88816)
(0.278295 0.0475452 1.73628)
(0.21719 0.0549849 1.80596)
(0.218335 -0.00752061 1.55813)
(-0.0266635 0.0330957 1.94529)
(0.108807 0.0651834 1.73453)
(0.16759 0.00208526 1.6393)
(-0.0633231 -0.0419868 1.81841)
(-0.0377636 0.110478 1.83372)
(-0.00479588 -0.0876525 1.67387)
(-0.131383 -0.0296991 1.81939)
(0.0808763 -0.0355017 1.58132)
(0.00493689 0.026805 1.05268)
(0.00146639 0.0270567 1.05867)
(0.00386186 0.029019 1.05751)
(0.00211521 0.0220697 1.04347)
(0.00476318 0.0258266 1.05388)
(0.00295952 0.0278158 1.0586)
(0.00490777 0.0245578 1.05067)
(0.00331964 0.0270127 1.05492)
(-0.00186073 0.028904 1.06438)
(-0.00447887 0.0290596 1.07084)
(5.67322e-06 0.033377 1.07518)
(-0.00497515 0.0182493 1.04664)
(-0.00116297 0.0260222 1.0695)
(-0.00289405 0.0302413 1.07566)
(-7.83449e-05 0.028691 1.06853)
(-0.00184173 0.0278999 1.07306)
(0.00558379 0.0334545 1.06265)
(0.00365908 0.0386781 1.07201)
(0.00508858 0.0399108 1.06785)
(0.00220891 0.0310352 1.05386)
(0.00431263 0.0347319 1.06328)
(0.0048986 0.0415164 1.07233)
(0.00467373 0.0335411 1.05933)
(0.00481093 0.0398455 1.06569)
(-0.00301465 0.0195801 1.03373)
(-0.00654778 0.0183989 1.03037)
(-0.00331108 0.0233239 1.03912)
(-0.00776757 0.0198406 1.02612)
(-0.00390892 0.0194027 1.03256)
(-0.00458011 0.0210117 1.03539)
(-0.00446976 0.0196577 1.03203)
(-0.00515287 0.0222795 1.03516)
(0.00297634 0.0262595 1.06241)
(0.00361015 0.0287079 1.05921)
(0.0014803 0.0206533 1.04304)
(-0.00140539 0.0199443 1.04385)
(0.00391214 0.0266371 1.06101)
(0.00306828 0.0263148 1.05766)
(-0.000744298 0.0199901 1.04423)
(0.000232496 0.0222156 1.04552)
(0.000398025 0.0301018 1.06523)
(-0.00261155 0.0235588 1.05026)
(0.00233291 0.0378484 1.0756)
(0.00505449 0.0341696 1.06528)
(0.00136819 0.0292699 1.0625)
(-0.00020867 0.0294811 1.06489)
(0.00469209 0.0325003 1.06556)
(0.00189738 0.0330298 1.06812)
(0.00240921 0.0275392 1.0552)
(0.00117346 0.0206453 1.0416)
(-0.00203631 0.0227697 1.04454)
(-0.000810541 0.0244429 1.04537)
(0.00143162 0.0246591 1.0469)
(0.000439702 0.0226717 1.04402)
(0.000107811 0.0247048 1.04742)
(-0.00165034 0.0217644 1.0441)
(0.0039458 0.0336271 1.05999)
(-0.000405453 0.0297857 1.0512)
(-0.00306369 0.0242725 1.04887)
(0.00229953 0.0364564 1.07055)
(0.00273939 0.0339457 1.06186)
(0.000815068 0.0303605 1.05351)
(0.00259657 0.0342049 1.065)
(-0.000433995 0.0272458 1.0524)
(-0.00271669 -0.000158214 1.00216)
(-0.00661569 -0.0014404 1.01131)
(-0.00290175 -0.00459075 1.01035)
(-0.00467147 0.00378821 1.00698)
(-0.00478519 0.00212041 1.00396)
(-0.0042902 -0.000673987 1.00773)
(-0.00418779 0.00232316 1.00517)
(-0.00444671 2.16013e-05 1.00878)
(-0.00993806 0.000500796 1.03415)
(-0.00954312 0.0169504 1.06641)
(-0.00268273 -0.00634682 1.06073)
(-0.00698135 0.0141914 1.03905)
(-0.0107808 0.00709457 1.0384)
(-0.00694726 0.00331474 1.05768)
(-0.00690641 0.00829858 1.03834)
(-0.00830197 0.00795283 1.05204)
(0.00200745 -0.0107557 1.0317)
(0.00171562 -0.00655219 1.05664)
(0.00521304 -0.0110753 1.06214)
(0.00435927 0.0017036 1.03241)
(0.00188273 -0.00641596 1.03311)
(0.000686536 -0.00928988 1.05406)
(0.00778764 -0.00151642 1.03894)
(0.000943376 -0.00527817 1.04975)
(-0.00543864 0.00985682 1.01332)
(-0.00700441 0.015196 1.02491)
(-0.00183982 0.0100472 1.02073)
(-0.00618577 0.0171955 1.02005)
(-0.00695976 0.0135299 1.01692)
(-0.00530758 0.0116436 1.02058)
(-0.00514114 0.0139688 1.01857)
(-0.00559192 0.0137098 1.02147)
(-0.00847531 0.00293987 1.01497)
(-0.00317016 -0.00146776 1.01291)
(-0.00652974 0.00708564 1.01)
(-0.00810744 0.0102781 1.0226)
(-0.00719457 0.00397239 1.01604)
(-0.00397565 0.000599717 1.01264)
(-0.00711215 0.00566291 1.01878)
(-0.00515717 0.00474404 1.01422)
(-0.00682644 -0.00249633 1.02699)
(-0.00628994 0.00731468 1.0317)
(0.000423603 -0.00837518 1.05613)
(-0.00215381 -0.00793991 1.02563)
(-0.00713702 -0.00075478 1.02611)
(-0.00544562 0.000600073 1.03274)
(-0.00294808 -0.00658564 1.03233)
(-0.00303951 -0.00311229 1.03374)
(-0.00165037 -7.89255e-05 1.01495)
(-0.00513768 0.0075826 1.01169)
(-0.00611463 0.0113105 1.0234)
(0.000378825 0.00612853 1.02218)
(-0.00208318 0.00181908 1.01658)
(-0.00521477 0.0059033 1.01541)
(-0.00232301 0.00495974 1.01938)
(-0.00424514 0.0073183 1.01911)
(-0.00208391 -0.00597142 1.02437)
(-0.00228616 0.00512745 1.02852)
(-0.0067229 0.00939437 1.03123)
(-3.00957e-05 -0.0024095 1.05255)
(-0.00104817 -0.0032203 1.03117)
(-0.00190363 0.00260978 1.02949)
(-0.00123266 0.00364195 1.03591)
(-0.00223265 0.00671045 1.03146)
(0.0173929 0.00112953 1.00731)
(0.0332565 -0.00404746 1.02275)
(0.0319735 0.00536279 1.02582)
(0.0163819 0.00161764 1.0151)
(0.0172839 -0.000805452 1.0072)
(0.0272617 -0.00017229 1.01438)
(0.015978 0.00187124 1.0131)
(0.0230462 0.000571777 1.01614)
(0.0377984 -0.0136399 1.05453)
(0.0401916 -0.0350388 1.11645)
(0.0379681 -0.0166281 1.0647)
(0.0231364 -0.0194075 1.06136)
(0.0360674 -0.0188067 1.06256)
(0.0405279 -0.0146708 1.08402)
(0.0273995 -0.0166861 1.05219)
(0.0326489 -0.0153353 1.07678)
(0.0376779 0.013833 1.05109)
(0.0328332 -0.00206415 1.0569)
(0.0323987 0.0154162 1.06839)
(0.0185872 0.0104473 1.03826)
(0.0318988 0.0101929 1.04881)
(0.0330797 0.0070074 1.06647)
(0.0277331 0.0137992 1.0538)
(0.0273722 0.0091575 1.06086)
(0.012465 0.00523218 1.01955)
(0.0159823 -0.00429714 1.0353)
(0.0136341 0.00813895 1.02635)
(0.00935271 0.00776456 1.02294)
(0.0124925 0.00334774 1.01991)
(0.0150049 0.00246206 1.02497)
(0.0107384 0.00887747 1.0228)
(0.012549 0.00507856 1.02547)
(0.0324239 -0.00762633 1.02381)
(0.028241 0.00411565 1.02453)
(0.0161949 0.000384265 1.01506)
(0.0219635 -0.00867326 1.0334)
(0.0220924 -0.00462918 1.03051)
(0.0212475 -8.25502e-05 1.02138)
(0.0227366 -0.00672212 1.03337)
(0.0209465 -0.000124038 1.0209)
(0.0416303 -0.0077796 1.03951)
(0.026143 -0.0103977 1.0412)
(0.0366656 -0.00770093 1.06534)
(0.0377234 0.0037866 1.0409)
(0.0342068 -0.00768267 1.03832)
(0.0304992 -0.00782491 1.0419)
(0.0345135 -0.00096931 1.05269)
(0.0351602 -0.0031404 1.05045)
(0.0229081 0.00682675 1.02999)
(0.013818 0.00503626 1.01932)
(0.0169673 -0.00258398 1.03642)
(0.0162097 0.0105601 1.03172)
(0.0198145 0.00732268 1.02878)
(0.0174804 0.00239346 1.022)
(0.0193539 0.00543059 1.02782)
(0.0157213 0.00153109 1.02572)
(0.0310908 0.00500012 1.03691)
(0.0186596 0.00579162 1.03599)
(0.0212705 -0.00688131 1.04203)
(0.0310553 -0.00422862 1.06318)
(0.0242977 0.00122269 1.0443)
(0.0202561 0.00277104 1.03675)
(0.0268854 0.00348008 1.05037)
(0.0211722 -0.00510023 1.04114)
(-0.0301467 -0.0152085 1.80121)
(-0.126356 0.0204764 1.78519)
(-0.0419522 -0.0797006 1.66593)
(-0.050853 0.0631121 1.47676)
(-0.049693 -0.0122076 1.878)
(-0.136456 -0.0333716 1.70936)
(0.0408003 0.0127844 1.83286)
(-0.0452915 0.0126119 1.75486)
(-0.199474 -0.0225447 1.70259)
(-0.81232 0.0817562 2.18612)
(-0.46721 0.0373115 1.8795)
(-0.203795 0.0231582 1.39673)
(-0.44673 -0.22887 1.9699)
(-0.704061 -0.0315595 1.94159)
(-0.132152 -0.048374 1.87841)
(-0.540642 -0.020516 1.87692)
(0.0757061 -0.0334622 1.34706)
(-0.228084 0.0581521 1.7663)
(-0.0902245 0.0609785 1.78267)
(-0.0125338 0.0464668 1.4794)
(0.0596489 -0.031646 1.88234)
(-0.164023 0.0220891 1.77299)
(0.130596 -0.00996546 1.87856)
(-0.108115 0.0262429 1.76582)
(-0.0361817 -0.0124495 1.22333)
(-0.0710797 -0.0199299 1.25302)
(-0.0620269 0.0140328 1.28262)
(-0.0765161 0.0403228 1.15864)
(-0.0613637 -0.0208905 1.24644)
(-0.0749422 -0.00881429 1.26336)
(-0.0741747 -0.00932414 1.22859)
(-0.0720684 -0.0263073 1.26057)
(-0.128062 -0.0486438 1.8743)
(-0.0121321 -0.040614 1.79023)
(-0.144071 0.0393709 1.45839)
(-0.17483 0.0418139 1.4345)
(-0.0775601 -0.000595709 1.82503)
(-0.0668912 0.0147163 1.80807)
(-0.10763 0.0782836 1.46374)
(-0.0822417 0.0309099 1.43993)
(-0.207578 -0.0806282 1.45122)
(-0.134145 0.085828 1.52814)
(-0.351126 -0.0181986 1.86099)
(-0.081571 -0.0845759 1.41355)
(-0.131329 -0.0395814 1.45802)
(-0.100826 0.0178447 1.95728)
(-0.103051 -0.0510891 1.46285)
(-0.0814973 -0.0692969 1.91919)
(0.0588416 0.0166388 1.74638)
(-0.0913782 0.031732 1.43342)
(-0.100674 0.0477594 1.43364)
(-0.0448398 0.0561222 1.46974)
(0.0110244 -0.00924747 1.45931)
(-0.0909153 0.0335723 1.44432)
(-0.0448791 0.0570208 1.46845)
(-0.111862 0.0552194 1.4414)
(0.0337071 -0.0540746 1.53359)
(-0.018806 0.0268025 1.45967)
(-0.107527 0.023284 1.42863)
(-0.25427 -0.0187082 1.77443)
(0.0522487 -0.00718517 1.88605)
(-0.0564859 0.0569634 1.51177)
(0.00600137 -0.0325121 1.8845)
(-0.0686552 0.0414166 1.48222)
(-0.00917785 0.00254023 0.999703)
(-0.00965028 0.00220912 1.00046)
(-0.0030686 0.001328 1.00018)
(-0.0235976 0.00634261 1.0087)
(-0.0149021 0.00308499 1.00236)
(-0.00501218 0.00148854 0.99995)
(-0.0133363 0.00419368 1.0034)
(-0.00784759 0.00301184 1.00259)
(-0.0102179 0.000259626 1.0009)
(-0.0111474 -0.00442544 1.00053)
(-0.00301158 -0.000725597 1.00097)
(-0.0225367 -0.00667583 1.01307)
(-0.0160823 -0.00323888 1.00441)
(-0.00576614 -0.00415784 0.99981)
(-0.0142622 -0.00263539 1.00495)
(-0.0073395 -0.00285548 1.00317)
(-0.00181026 0.00104526 1.00022)
(-0.0018549 2.01466e-05 1.00057)
(-0.00108321 0.00062305 1.00033)
(-0.00677784 0.00183277 1.00511)
(-0.00456763 0.0018648 1.00157)
(-0.00161137 -4.60131e-05 1.00023)
(-0.00463158 0.001754 1.00267)
(-0.00271194 0.00054755 1.00132)
(-0.027219 0.00622247 1.03076)
(-0.0276122 -0.00362756 1.03239)
(-0.0155364 0.00316317 1.02145)
(-0.021943 0.00428281 1.05226)
(-0.0259865 0.00381825 1.03985)
(-0.0260145 -0.00243807 1.02814)
(-0.0233579 0.00193866 1.03986)
(-0.0219874 -0.00133972 1.03426)
(-0.0157712 0.000953119 1.0032)
(-0.008099 0.00290536 1.00219)
(-0.0277286 0.00421019 1.01586)
(-0.0270405 -0.00179705 1.01942)
(-0.0142397 0.00150225 1.00411)
(-0.0125636 0.00488902 1.00606)
(-0.0251179 0.00186164 1.01276)
(-0.0199286 0.00183316 1.00764)
(-0.00554232 -0.000292983 1.00017)
(-0.0193393 -0.00501421 1.00906)
(-0.0024293 -0.000701088 1.00018)
(-0.0027559 0.000540036 1.00022)
(-0.00739159 0.000600429 1.0034)
(-0.0130612 0.00195126 1.00751)
(-0.00388093 0.000725973 1.00088)
(-0.00850686 0.00117061 1.00307)
(-0.00839441 0.00359189 1.00287)
(-0.0242677 0.00447759 1.01835)
(-0.0243222 -0.00241838 1.02093)
(-0.0143407 0.00223942 1.01435)
(-0.0123122 0.00422702 1.00773)
(-0.018239 0.00329982 1.01657)
(-0.0158555 0.00298199 1.01396)
(-0.0208011 0.00508364 1.02423)
(-0.00501752 0.00203082 1.00187)
(-0.0103538 -0.000391224 1.01049)
(-0.0166347 -0.00348078 1.01647)
(-0.00387013 -0.000422556 1.00225)
(-0.00761976 0.00336939 1.0038)
(-0.0103483 -0.000136903 1.00756)
(-0.0081236 0.00129224 1.00424)
(-0.011552 -0.00120278 1.01174)
(0.0076705 0.000211767 1.00152)
(0.00583711 -0.0012239 1.0036)
(0.0247765 -0.00720091 1.01161)
(0.0137663 -0.00120892 1.0084)
(0.0113143 0.000194325 1.00286)
(0.011825 -0.0027317 1.00396)
(0.0149153 -0.00189326 1.00724)
(0.0148123 -0.00331566 1.00879)
(0.00448358 -0.00181922 1.00239)
(0.00409522 -0.0030345 1.00342)
(0.0128999 -0.012334 1.01482)
(0.00704712 -0.00228017 1.0061)
(0.00547736 -0.00162054 1.00272)
(0.00627962 -0.003129 1.0031)
(0.0077662 -0.00313226 1.0042)
(0.0094013 -0.00518441 1.0056)
(0.0382777 -0.02361 1.04018)
(0.0235781 -0.0244751 1.0444)
(0.0451601 -0.0344783 1.11659)
(0.0255206 -0.0201008 1.06358)
(0.037436 -0.0200521 1.04238)
(0.0372315 -0.0304383 1.06152)
(0.0318371 -0.0237941 1.06581)
(0.0305646 -0.0283417 1.07487)
(0.0118786 0.00141406 1.01441)
(0.00876896 0.00116811 1.01239)
(0.0156098 -0.00557105 1.03271)
(0.00922975 0.00525687 1.02028)
(0.010719 0.00398583 1.01468)
(0.011518 0.000159738 1.01528)
(0.0114281 0.00284475 1.01956)
(0.0119541 0.000555433 1.02012)
(0.00770056 -0.000858272 1.00369)
(0.0261216 -0.00585696 1.01364)
(0.0132265 0.00127956 1.00912)
(0.00938639 -0.000189243 1.00835)
(0.0103686 -0.00216393 1.00501)
(0.0149276 -0.00183017 1.00885)
(0.00920013 -0.00121964 1.00674)
(0.0134252 -0.00202898 1.00975)
(0.00809218 -0.00250681 1.00396)
(0.0103568 -0.00318783 1.00804)
(0.0203399 -0.0148082 1.0194)
(0.0262351 -0.0119472 1.01811)
(0.0120262 -0.00335596 1.00628)
(0.0116583 -0.00395744 1.00706)
(0.0159539 -0.00916785 1.0156)
(0.0176489 -0.00864657 1.0173)
(0.0257996 -0.0105374 1.0257)
(0.0142863 -2.30714e-06 1.01433)
(0.0107151 -0.00125391 1.01105)
(0.019718 -0.00832021 1.03314)
(0.0215612 -0.0102063 1.02623)
(0.0141033 -0.00178286 1.01526)
(0.0194907 -0.00638967 1.02404)
(0.0133286 -0.00113322 1.01508)
(0.0249643 -0.0126556 1.02918)
(0.0195477 -0.0114288 1.03635)
(0.0114635 -0.0034836 1.0125)
(0.0206164 -0.0156996 1.02639)
(0.0233332 -0.0115926 1.0303)
(0.0204712 -0.0117115 1.02914)
(0.0203861 -0.0117231 1.02253)
(0.0152446 -0.00970243 1.02179)
(0.00897169 0.0242717 0.998144)
(0.0197138 0.0625474 1.015)
(0.00591897 0.0146019 0.99964)
(0.0320167 0.0626717 1.01981)
(0.016341 0.0513064 1.00401)
(0.0175656 0.0493949 1.00628)
(0.0158574 0.0413476 1.01002)
(0.0170734 0.0501177 1.015)
(0.025538 0.0709387 1.05312)
(0.0217838 0.0641737 1.09073)
(0.015441 0.0535959 1.03801)
(0.0374502 0.0853249 1.09129)
(0.028845 0.0751627 1.06893)
(0.023879 0.0730887 1.06862)
(0.0203261 0.083676 1.07027)
(0.0222967 0.0717893 1.07209)
(0.00420242 0.0112982 0.99964)
(0.011335 0.034336 1.01296)
(0.00452342 0.0124383 1.00081)
(0.0188918 0.0381887 1.012)
(0.01008 0.0269031 1.00821)
(0.0108386 0.0270475 1.00641)
(0.0111344 0.0235257 1.00703)
(0.0108989 0.0270421 1.0075)
(0.0681275 0.0955297 1.06477)
(0.0624874 0.0989409 1.109)
(0.0488793 0.0770142 1.05213)
(0.102306 0.127413 1.15908)
(0.074018 0.103477 1.09152)
(0.0667403 0.102169 1.08558)
(0.0748995 0.102535 1.10557)
(0.0705996 0.0996106 1.09958)
(0.0253561 0.0782568 1.03659)
(0.011507 0.0360896 1.01009)
(0.037394 0.0802186 1.04293)
(0.0397952 0.0901248 1.0739)
(0.0200976 0.0725126 1.03503)
(0.0194927 0.059615 1.01795)
(0.0363791 0.0856837 1.05328)
(0.0398252 0.0773771 1.03824)
(0.0236241 0.0717249 1.03852)
(0.0394782 0.0890859 1.06932)
(0.018164 0.0502208 1.02832)
(0.0148053 0.0374131 1.01254)
(0.0207887 0.0700394 1.04388)
(0.0250471 0.0820823 1.05033)
(0.0141485 0.0373351 1.01046)
(0.0191019 0.0520543 1.02958)
(0.0129098 0.0301744 1.00968)
(0.0415917 0.0732051 1.0527)
(0.0392613 0.0847808 1.07772)
(0.0350175 0.0547374 1.03474)
(0.0238096 0.0430477 1.01179)
(0.0407114 0.0740044 1.05458)
(0.0305558 0.0598593 1.03107)
(0.0434669 0.0868534 1.05807)
(0.0139043 0.0363517 1.01419)
(0.033227 0.0569447 1.03335)
(0.0405807 0.0839313 1.07806)
(0.0163058 0.0501398 1.02961)
(0.0165035 0.0434487 1.01657)
(0.0309978 0.0597771 1.02987)
(0.0157811 0.0509875 1.02964)
(0.0303117 0.0639947 1.04225)
(0.00658255 -0.00194545 1.00065)
(0.00693243 -0.00403318 0.999223)
(0.00302265 -0.00245291 1.00032)
(0.0259597 -0.0151458 1.01759)
(0.0177975 -0.00469896 0.998998)
(0.00739696 -0.00265542 0.999634)
(0.0177366 -0.00895584 1.00129)
(0.012478 -0.00811584 0.999446)
(0.00627839 -0.00325372 0.998882)
(0.00704186 -0.000662493 0.999245)
(0.00459092 -0.000316717 1.00054)
(0.0254517 -0.00609754 1.00966)
(0.0165362 -0.00178734 0.998992)
(0.00639988 7.82466e-05 0.9989)
(0.0164875 -0.0043276 1.00158)
(0.0122981 -0.00276989 1.00189)
(0.00242318 -0.00142736 0.999691)
(0.00337385 -0.00105135 1.00067)
(0.00282442 -0.00239247 1.00032)
(0.0152969 -0.0124052 1.01016)
(0.00602498 -0.00403726 1.00225)
(0.00352152 -0.00111672 1.00053)
(0.00805077 -0.00289569 1.00005)
(0.00656643 -0.00304635 1.00134)
(0.0412557 -0.0285337 1.04889)
(0.0405487 -0.0184508 1.03989)
(0.0306483 -0.0274683 1.04505)
(0.0496861 -0.0374448 1.10922)
(0.0442952 -0.0327804 1.07188)
(0.0367553 -0.0257659 1.0414)
(0.0449069 -0.0349538 1.06822)
(0.0390658 -0.0312884 1.06134)
(0.0173885 -0.00402723 0.998068)
(0.00921075 -0.00502614 1.00204)
(0.0390414 -0.0167155 1.02138)
(0.0361097 -0.0103316 1.01445)
(0.0180275 -0.00665228 1.00228)
(0.015245 -0.0102187 1.0052)
(0.023369 -0.0109451 1.00669)
(0.0225293 -0.0090742 1.00486)
(0.00624285 -0.00170879 0.998978)
(0.0201918 -0.00488781 1.00543)
(0.00442958 3.50425e-05 0.999752)
(0.00384405 -0.000941529 0.999556)
(0.0115421 -0.00497021 1.00043)
(0.0138602 -0.00720339 1.00419)
(0.00276532 -0.00113011 1.00009)
(0.00840822 -0.00246014 1.00233)
(0.0114437 -0.0114785 1.00815)
(0.0391787 -0.0286896 1.03659)
(0.0387153 -0.0166657 1.01983)
(0.0222269 -0.0164458 1.01693)
(0.0155755 -0.0125779 1.00997)
(0.0309431 -0.0207955 1.02116)
(0.0220348 -0.0158475 1.01856)
(0.0313835 -0.0240315 1.02571)
(0.00816341 -0.00684717 1.00377)
(0.0216572 -0.0152294 1.018)
(0.0290945 -0.0106882 1.01514)
(0.00819351 -0.00269072 1.00293)
(0.00942586 -0.00787228 1.00582)
(0.0187216 -0.0100338 1.01093)
(0.0100616 -0.00438419 1.00453)
(0.0200938 -0.00831944 1.01015)
(0.108497 0.130499 1.14905)
(0.0594336 0.0833137 1.09122)
(0.0690351 0.0828469 1.07838)
(0.0825978 0.101937 1.12295)
(0.0746191 0.103025 1.12088)
(0.0633075 0.0870756 1.09888)
(0.0888721 0.105303 1.11549)
(0.0660853 0.0833427 1.07774)
(0.0344821 0.0600583 1.05383)
(0.0178311 0.0437287 1.03927)
(0.0187239 0.0406793 1.02721)
(0.0266836 0.0499838 1.0489)
(0.0255674 0.0512428 1.04816)
(0.0202327 0.0457258 1.03838)
(0.0283231 0.0515375 1.04434)
(0.0186421 0.0415571 1.0313)
(0.0350905 0.0438128 1.02409)
(0.0160956 0.0313973 1.01382)
(0.0109046 0.0181231 1.00302)
(0.0281695 0.0376789 1.01854)
(0.0210431 0.0354806 1.01576)
(0.0167089 0.028771 1.01127)
(0.0219994 0.0305103 1.01233)
(0.0129478 0.0232528 1.00713)
(0.0691626 0.0816296 1.11055)
(0.0390091 0.0569458 1.07095)
(0.046818 0.0557292 1.05665)
(0.0493006 0.0701172 1.11604)
(0.0541683 0.0684464 1.0966)
(0.0437916 0.0594129 1.07153)
(0.0573064 0.0711207 1.09705)
(0.0435264 0.0546864 1.05809)
(0.0468342 0.0726218 1.07739)
(0.0487456 0.0680959 1.05348)
(0.0689815 0.083801 1.10866)
(0.037966 0.0576088 1.0658)
(0.0530012 0.0709679 1.07108)
(0.0526758 0.0722502 1.06861)
(0.0449494 0.071599 1.07384)
(0.055803 0.0755037 1.08348)
(0.0390495 0.0638385 1.05846)
(0.031397 0.0522973 1.04829)
(0.019486 0.0388627 1.02376)
(0.0377786 0.0542154 1.03673)
(0.0367516 0.0577495 1.04618)
(0.0286839 0.0524134 1.04097)
(0.0403998 0.0556631 1.0437)
(0.0278098 0.0454573 1.03227)
(0.051909 0.0628682 1.04887)
(0.0735172 0.0875069 1.10176)
(0.0407693 0.060591 1.06282)
(0.042096 0.0513131 1.04303)
(0.0584943 0.0678928 1.06776)
(0.0525424 0.0685063 1.06696)
(0.0413901 0.0543301 1.0467)
(0.0413461 0.0609368 1.05854)
(0.0356162 0.0472686 1.02887)
(0.0280676 0.0400566 1.02319)
(0.0284941 0.0471862 1.03979)
(0.0174413 0.0345593 1.01818)
(0.0256677 0.044198 1.02401)
(0.0312456 0.0446385 1.03189)
(0.0268489 0.0441571 1.02789)
(0.0315188 0.0464305 1.0346)
(0.00771213 0.00371585 1.05939)
(0.0053709 0.00292681 1.06852)
(0.0121641 -0.00241826 1.07399)
(0.00994356 0.00673211 1.04988)
(0.00759661 0.00318775 1.05933)
(0.0067172 0.000771068 1.06835)
(0.0074511 0.00366404 1.05489)
(0.00861887 -0.00175352 1.06516)
(0.00235972 0.0028379 1.08036)
(-0.00540204 -0.00192359 1.11152)
(0.0116475 -0.00372506 1.11966)
(0.00626766 0.00391244 1.06366)
(0.00389203 0.00107763 1.0802)
(-0.000177269 -0.000685473 1.11197)
(0.00456979 0.00235462 1.07339)
(0.0051459 -0.000860484 1.10202)
(0.0205436 -0.00882219 1.10238)
(0.0199783 -0.00527565 1.12964)
(0.0310028 -0.0183405 1.14261)
(0.0186912 -0.0151589 1.07012)
(0.0184643 -0.0116024 1.09816)
(0.0250625 -0.00772967 1.13457)
(0.0200553 -0.0147191 1.08356)
(0.0330471 -0.0157448 1.11391)
(0.011169 0.00856505 1.03946)
(0.0112445 0.00729429 1.04287)
(0.0137898 -0.000609912 1.04031)
(0.00823293 0.0100494 1.02617)
(0.0110985 0.00631055 1.03904)
(0.0131789 0.00331057 1.04472)
(0.0104507 0.00744247 1.03285)
(0.0139937 0.00173873 1.04254)
(0.00573171 0.00225255 1.06764)
(0.0112973 -0.00319413 1.07266)
(0.00966388 0.00492777 1.05026)
(0.0086261 0.00328383 1.05755)
(0.00552005 0.00243366 1.06368)
(0.00775984 0.00145862 1.0619)
(0.00894428 0.00474429 1.05748)
(0.0105817 0.00166428 1.05709)
(0.00466418 0.00106196 1.07896)
(0.00887342 0.000677361 1.06771)
(0.0143142 -0.00221956 1.12279)
(0.0126622 -0.00353345 1.08883)
(0.00754052 -0.00116466 1.07522)
(0.00611721 0.00104034 1.07215)