/*--------------------------------*- C++ -*----------------------------------*\
| =========                 |                                                 |
| \\      /  F ield         | OpenFOAM: The Open Source CFD Toolbox           |
|  \\    /   O peration     | Version:  2506                                  |
|   \\  /    A nd           | Website:  www.openfoam.com                      |
|    \\/     M anipulation  |                                                 |
\*---------------------------------------------------------------------------*/
FoamFile
{
    version     2.0;
    format      ascii;
    arch        "LSB;label=32;scalar=64";
    class       volVectorField;
    location    "1500";
    object      U;
}
// * * * * * * * * * * * * * * * * * * * * * * * * * * * * * * * * * * * * * //

dimensions      [0 1 -1 0 0 0 0];

internalField   nonuniform List<vector> 
57792
(
(0.00140199 0.00135957 0.999434)
(0.00244669 0.00211142 1.00008)
(0.00429333 0.00311052 0.998107)
(0.00243087 0.00211149 0.998746)
(0.00199395 0.00130004 0.999881)
(0.00324476 0.00107773 0.999298)
(0.00265241 0.00268793 0.998514)
(0.00324417 0.00253187 0.998956)
(0.00471344 0.0027685 1.00111)
(0.00764918 0.00166056 1.00298)
(0.0100169 0.0029082 0.997659)
(0.00825071 0.00187947 0.997218)
(0.00690122 0.00215607 1.00106)
(0.0100771 0.0031731 0.997747)
(0.00806139 0.00119239 0.999394)
(0.0104971 0.00208229 0.997392)
(0.00703026 0.00462262 0.994548)
(0.00855941 0.003607 0.992006)
(0.00636207 0.00491448 0.987074)
(0.00458359 0.0034582 0.99164)
(0.00821129 0.00456154 0.989911)
(0.00782295 0.0029862 0.989753)
(0.00647309 0.00489949 0.989523)
(0.0066406 0.00409269 0.988472)
(0.00305505 0.0024138 0.997618)
(0.00514385 0.00191008 0.996334)
(0.00403579 0.00282428 0.994292)
(0.0030431 0.00225223 0.996748)
(0.00376433 0.00212473 0.997051)
(0.00433424 0.00241984 0.996865)
(0.00310645 0.00282979 0.994996)
(0.00369607 0.00285247 0.994973)
(0.00395202 0.00191058 1.00029)
(0.00590239 0.00338374 0.996986)
(0.00293059 0.00187921 0.998358)
(0.00535121 0.00199836 0.997601)
(0.0049114 0.00206885 0.998772)
(0.00411606 0.00201111 0.997027)
(0.00539887 0.00240681 0.998396)
(0.00472464 0.00257192 0.998014)
(0.00586857 0.00169897 0.998337)
(0.0070521 0.00237976 0.996537)
(0.00889555 0.00158235 0.994224)
(0.00579526 0.00239844 0.996589)
(0.00686129 0.00286113 0.998394)
(0.00770275 0.00150194 0.995149)
(0.00712375 0.00317584 0.998016)
(0.00917474 0.003082 0.994447)
(0.00551332 0.00405581 0.994816)
(0.00339318 0.00287927 0.996654)
(0.00563201 0.00160111 0.995655)
(0.00381426 0.00325447 0.993638)
(0.00470361 0.00376123 0.996026)
(0.0040741 0.0025606 0.997072)
(0.00482304 0.00294028 0.994706)
(0.00517879 0.00267658 0.994698)
(0.00636604 0.00450737 0.995275)
(0.00465582 0.00387842 0.992265)
(0.00625764 0.00245419 0.99509)
(0.0089395 0.00291545 0.991699)
(0.00690304 0.00260707 0.991544)
(0.00637147 0.00354762 0.9928)
(0.00814605 0.00256702 0.993241)
(0.00668589 0.00254931 0.994306)
(0.000596781 0.000350582 1.0004)
(0.000859261 0.000439651 1)
(0.00198711 0.00140349 1.00068)
(0.00174188 0.00144475 0.999632)
(0.0010615 0.000876791 1.0001)
(0.0011024 0.000674592 1.00015)
(0.00194857 0.000927378 0.99982)
(0.0020154 0.0010418 0.999734)
(0.000880344 0.000334333 0.99998)
(0.000764315 0.000372119 0.999947)
(0.00269007 0.000990639 0.999844)
(0.00216588 0.000816242 0.999175)
(0.00122493 0.000480385 0.999855)
(0.0009973 0.000399092 0.999997)
(0.00188848 0.000612528 0.999818)
(0.00200035 0.000778136 1.00002)
(0.00360857 0.00200669 1.00244)
(0.00473609 0.00173892 1.00029)
(0.00698636 0.000468545 1.00419)
(0.00684758 0.00144624 0.999177)
(0.00431828 0.00142021 0.999715)
(0.00405131 0.000535675 1.00175)
(0.00738555 0.00152039 0.999712)
(0.00649334 0.00204707 1.00264)
(0.00272855 0.00176226 0.998616)
(0.00267433 0.00129126 0.998481)
(0.00492393 0.00136313 0.997112)
(0.0026266 0.00197147 0.997355)
(0.00285129 0.00208202 0.998242)
(0.00341917 0.00134068 0.998389)
(0.00351755 0.00195084 0.997351)
(0.00386863 0.00154111 0.99743)
(0.00146554 0.000792738 0.999696)
(0.00228646 0.00152959 1.00002)
(0.00196516 0.00166517 0.999104)
(0.00226364 0.00111374 0.998876)
(0.00181591 0.000703312 0.999829)
(0.00275658 0.00128888 0.999584)
(0.00215594 0.00112729 0.999345)
(0.00273819 0.00133007 0.999658)
(0.00114626 0.000605797 0.999943)
(0.00237376 0.000762022 0.999583)
(0.0024005 0.00096889 1.00032)
(0.00229548 0.00108996 1.00061)
(0.0018614 0.000718961 0.999908)
(0.00255752 0.000870287 1.00019)
(0.00277671 0.00128422 0.999346)
(0.00330279 0.00127434 0.999366)
(0.00410473 0.00108828 0.999774)
(0.00331282 0.00179579 0.998677)
(0.00293229 0.00108263 0.998981)
(0.00537541 0.00140431 0.997624)
(0.00397136 0.00143907 0.999179)
(0.0038045 0.00166381 0.998706)
(0.00390686 0.00177634 0.998331)
(0.00358662 0.0014899 0.998357)
(0.00409687 0.00162364 1.00011)
(0.00601891 0.0014021 0.997848)
(0.00353325 0.0011618 0.999206)
(0.003847 0.00101959 1.00059)
(0.00537249 0.00150283 0.999427)
(0.00486077 0.00113038 0.999315)
(0.0036886 0.000927076 0.999897)
(0.00368091 0.00120899 0.998675)
(0.00915769 0.0137762 0.981399)
(0.00573313 0.0156981 0.98984)
(0.00595721 0.0102415 0.992785)
(0.00710015 0.00762604 0.988484)
(0.00645691 0.0130531 0.990065)
(0.00693209 0.0134984 0.990788)
(0.00625271 0.0100551 0.989525)
(0.00617372 0.0098512 0.992907)
(0.00327808 0.0161433 0.996576)
(0.0023501 0.0134835 1.00423)
(0.00190248 0.00631046 0.99919)
(0.00237295 0.00887627 0.996748)
(0.00169013 0.0107151 0.998877)
(0.0010741 0.0115125 0.999526)
(0.00174765 0.00937779 0.997547)
(0.00167654 0.00751396 0.999105)
(0.00349186 0.00508272 0.997539)
(0.00189097 0.00350018 0.999294)
(0.00102683 0.00128521 0.999617)
(0.00183295 0.00241835 0.998294)
(0.00209741 0.0031725 0.998959)
(0.00195537 0.00341478 0.999085)
(0.00146715 0.00244706 0.998879)
(0.00091124 0.00185067 0.999396)
(0.00521672 0.00436621 0.992105)
(0.0027445 0.00576719 0.99519)
(0.00257837 0.00331133 0.997119)
(0.0030628 0.00310159 0.995231)
(0.00255327 0.00490115 0.995137)
(0.00278224 0.00510036 0.994702)
(0.00277502 0.00379241 0.995958)
(0.00224489 0.00354017 0.996739)
(0.00346629 0.0127959 0.994398)
(0.00431586 0.00720658 0.996027)
(0.00439777 0.00762865 0.992639)
(0.00272226 0.00781167 0.995427)
(0.0039661 0.00999028 0.994714)
(0.00434985 0.0081246 0.99488)
(0.00423538 0.0088699 0.99218)
(0.00456473 0.00767414 0.992605)
(0.00361215 0.0134712 0.994872)
(0.00260236 0.00802131 0.995007)
(0.00175273 0.00611663 0.998123)
(0.00324887 0.00753878 0.996867)
(0.00358278 0.00901968 0.996461)
(0.0022743 0.00692031 0.996779)
(0.00382549 0.00884591 0.997361)
(0.00191887 0.00569123 0.997875)
(0.00491153 0.00536372 0.995701)
(0.00482973 0.00589653 0.992164)
(0.00239104 0.00594087 0.996454)
(0.00220716 0.00333879 0.997603)
(0.00434996 0.00530938 0.994367)
(0.00430961 0.0054891 0.994525)
(0.00255425 0.00413593 0.997126)
(0.00262907 0.00464262 0.995876)
(0.00315892 0.0052131 0.997472)
(0.00170049 0.00287618 0.998305)
(0.0023062 0.00542403 0.99694)
(0.00184895 0.00401572 0.998832)
(0.00253898 0.00378926 0.998077)
(0.00233761 0.004363 0.997189)
(0.00210183 0.00517361 0.998431)
(0.00230494 0.00460417 0.997619)
(0.00413845 0.0144947 0.982523)
(0.00323512 0.0171576 0.988802)
(0.00425367 0.0144324 0.982478)
(0.00364842 0.00893031 0.987877)
(0.0026202 0.0140701 0.983211)
(0.00424204 0.016474 0.985525)
(0.0026515 0.0101864 0.985288)
(0.00196316 0.0138059 0.985727)
(0.00297708 0.0179815 0.996127)
(0.00299427 0.0159925 1.00293)
(0.00325868 0.0178518 0.994215)
(0.00224489 0.0098369 0.996454)
(0.00340925 0.0166871 0.996756)
(0.00236517 0.0158495 0.999978)
(0.00151949 0.0134705 0.993955)
(0.00118651 0.0135247 0.997097)
(0.00692435 0.0139267 0.982189)
(0.00480598 0.0169035 0.988178)
(0.00987977 0.0150998 0.981254)
(0.00726151 0.00860452 0.988013)
(0.00608409 0.0142088 0.984395)
(0.00630106 0.015451 0.985726)
(0.00722706 0.0109919 0.986356)
(0.00631895 0.0139219 0.987955)
(0.00327329 0.0057877 0.991801)
(0.0025452 0.00637218 0.994868)
(0.00500843 0.00559208 0.991501)
(0.00306655 0.00370392 0.994957)
(0.00282328 0.00613071 0.99238)
(0.00308447 0.0063164 0.993552)
(0.00356406 0.00459511 0.993457)
(0.00336404 0.00579591 0.993375)
(0.00360313 0.0166424 0.989554)
(0.00428085 0.0140596 0.983672)
(0.00262461 0.00929197 0.988622)
(0.00287505 0.00962886 0.992336)
(0.00247862 0.0128606 0.988067)
(0.00309738 0.0120355 0.988689)
(0.00291165 0.0101801 0.992121)
(0.00317177 0.0101662 0.99065)
(0.00251301 0.0176906 0.994077)
(0.00261417 0.010273 0.99508)
(0.00407608 0.0173022 0.992788)
(0.00452284 0.0154482 0.985742)
(0.00210038 0.0140976 0.991386)
(0.00229134 0.0127307 0.993876)
(0.00370921 0.0166426 0.988674)
(0.00443792 0.0161476 0.989634)
(0.0044612 0.0115944 0.98512)
(0.00389572 0.00656358 0.989638)
(0.00292443 0.00820831 0.991971)
(0.00448831 0.00742651 0.990708)
(0.00459309 0.00941848 0.987141)
(0.00305133 0.00885549 0.990468)
(0.00450087 0.00914418 0.988057)
(0.0033085 0.0076429 0.992293)
(0.00396118 0.0129864 0.98611)
(0.0047411 0.00870942 0.990209)
(0.00256827 0.00853545 0.993521)
(0.00364555 0.0140652 0.992594)
(0.00438538 0.012219 0.988897)
(0.00510741 0.00986393 0.988517)
(0.00301362 0.0129703 0.990185)
(0.00423838 0.00994326 0.992053)
(0.000834662 -0.00059395 0.999856)
(0.00103715 -0.000589882 0.999978)
(0.00193266 -0.00102661 1.00004)
(0.00162166 -0.000970712 0.999761)
(0.0012987 -0.000516629 1.00003)
(0.00134037 -0.000784063 0.999885)
(0.00175472 -0.000818234 0.999643)
(0.00192072 -0.000894255 0.999956)
(0.00103707 -0.000576853 1.00011)
(0.00087274 -0.000633731 1.00042)
(0.00193195 -0.000927972 1.00063)
(0.00180784 -0.00141223 0.999289)
(0.00108271 -0.000833495 0.999874)
(0.000873817 -0.000994069 1.00021)
(0.00192757 -0.00143431 0.999668)
(0.00216809 -0.00133222 1.00032)
(0.00310507 -0.00143032 1.00122)
(0.00352722 -0.00248109 1.00143)
(0.00527254 -0.00299461 1.00283)
(0.00579655 -0.002763 0.998786)
(0.00610687 -0.00211686 1.00048)
(0.00428425 -0.00288405 1.00224)
(0.00635925 -0.00281955 0.999659)
(0.00686103 -0.0033086 1.00201)
(0.002412 -0.00139936 0.998695)
(0.00259212 -0.0020236 0.998456)
(0.00371817 -0.0025025 0.997783)
(0.00243611 -0.00163348 0.997535)
(0.00299884 -0.00179094 0.997988)
(0.00343816 -0.00241193 0.997907)
(0.00246345 -0.00209293 0.997475)
(0.00413837 -0.00262265 0.997267)
(0.00110102 -0.000795991 0.999958)
(0.00345943 -0.00129379 1.0002)
(0.00251991 -0.00122541 0.999193)
(0.00224357 -0.00160696 0.999074)
(0.00210281 -0.000981811 0.999557)
(0.00316528 -0.0012564 0.999877)
(0.00248331 -0.00128832 0.999279)
(0.00320184 -0.00160407 0.9991)
(0.00124621 -0.00108675 1.00009)
(0.00298257 -0.00190867 0.999499)
(0.00239967 -0.00244909 1.0009)
(0.00280308 -0.0016499 1.00043)
(0.00196919 -0.00106206 1.00031)
(0.00334221 -0.00166776 0.99947)
(0.00242489 -0.00131021 1.00061)
(0.00290449 -0.00179124 0.999741)
(0.00361143 -0.00178754 0.999798)
(0.00216412 -0.00151949 0.998968)
(0.00307344 -0.00178441 0.998593)
(0.00432313 -0.00239374 0.997925)
(0.00351358 -0.00258107 0.999311)
(0.00384561 -0.00185381 0.99904)
(0.00500661 -0.00218302 0.998244)
(0.00408815 -0.00199495 0.998233)
(0.00382088 -0.001768 1.00075)
(0.00644947 -0.00300573 0.998514)
(0.00372996 -0.00188918 0.998764)
(0.00389706 -0.00201425 1.00125)
(0.00587861 -0.00276148 0.999664)
(0.00536382 -0.00328092 0.999029)
(0.00452702 -0.00236083 0.999384)
(0.00423638 -0.00196299 0.999189)
(0.00279423 0.0131543 0.980541)
(0.00404623 0.0137382 0.981247)
(0.0039479 0.0101297 0.982449)
(0.00296179 0.00808608 0.986454)
(0.00290949 0.0113916 0.98418)
(0.00367296 0.0129588 0.979529)
(0.00307572 0.00755782 0.986501)
(0.00392649 0.00993258 0.982854)
(0.00682504 0.0134361 0.981502)
(0.00932129 0.0140449 0.977958)
(0.00787788 0.0103078 0.979706)
(0.0071625 0.00825612 0.984979)
(0.00734205 0.0117379 0.984458)
(0.00897251 0.0134658 0.978676)
(0.00817714 0.00891865 0.983434)
(0.00799187 0.0103982 0.981033)
(0.00564027 0.00845789 0.983634)
(0.00739533 0.00772095 0.981401)
(0.00664661 0.00684917 0.984147)
(0.00479383 0.00627186 0.987197)
(0.00587834 0.00713268 0.985174)
(0.00687767 0.00748138 0.980327)
(0.00537156 0.00574411 0.987982)
(0.00656861 0.00588651 0.984785)
(0.00311409 0.00571011 0.991259)
(0.00567349 0.00538737 0.98974)
(0.00372991 0.0051392 0.990915)
(0.00306867 0.00354678 0.99391)
(0.00368825 0.00567987 0.992447)
(0.00387813 0.00566376 0.991211)
(0.00324452 0.0040477 0.992818)
(0.00401035 0.00528244 0.99236)
(0.00427725 0.0115976 0.983722)
(0.00439093 0.00916886 0.985061)
(0.00338132 0.00796433 0.988804)
(0.00528004 0.00762817 0.988468)
(0.00490756 0.00959779 0.985051)
(0.00427912 0.00888979 0.984788)
(0.00478004 0.00877749 0.986109)
(0.00382666 0.00863085 0.986585)
(0.00552136 0.0128902 0.979656)
(0.00592809 0.00758817 0.987042)
(0.00775729 0.00947389 0.979485)
(0.00516856 0.0103691 0.979606)
(0.00591872 0.0106565 0.981653)
(0.00645817 0.00801725 0.984787)
(0.00563551 0.0111947 0.980689)
(0.00671981 0.00879428 0.984)
(0.00451952 0.00649535 0.987949)
(0.00377152 0.00568325 0.990266)
(0.00565843 0.006692 0.987522)
(0.00405814 0.00526928 0.990717)
(0.00411656 0.00693239 0.987333)
(0.00421615 0.00705289 0.988941)
(0.00531501 0.00635214 0.988334)
(0.00461494 0.00610493 0.989261)
(0.00556036 0.0081983 0.984292)
(0.00553023 0.00580689 0.989144)
(0.00604511 0.00707111 0.987713)
(0.00722977 0.00775233 0.982417)
(0.0058321 0.00698947 0.985076)
(0.00563693 0.00695052 0.986193)
(0.00620363 0.00694243 0.985625)
(0.00612275 0.00719374 0.985814)
(0.00135138 0.0151094 0.977911)
(0.000666302 0.012283 0.979803)
(0.000754097 0.0146655 0.978875)
(0.00120979 0.0103521 0.989235)
(0.00192598 0.0130619 0.98524)
(0.00128767 0.0135389 0.982667)
(0.00124156 0.0147349 0.987449)
(0.000747718 0.0136833 0.985827)
(-3.46356e-05 0.00955929 0.981268)
(-4.51897e-05 0.00728527 0.982588)
(-0.000474427 0.00936144 0.981509)
(-0.000577515 0.00694356 0.990864)
(4.74193e-05 0.00821895 0.987677)
(-0.000346341 0.0082534 0.984851)
(-0.000422526 0.00824048 0.988372)
(-0.000963575 0.00823133 0.987068)
(-0.000500959 0.0146385 0.979639)
(-0.00143156 0.0117206 0.980174)
(-0.0015473 0.0147788 0.978245)
(-0.00158198 0.0106856 0.988657)
(-0.000868823 0.0126377 0.986346)
(-0.00205307 0.0129568 0.98307)
(-0.00106477 0.0137386 0.988479)
(-0.00223977 0.0128193 0.986058)
(0.000768386 0.00658162 0.994375)
(-0.000442437 0.00501167 0.994601)
(-0.000921549 0.006898 0.994487)
(7.10342e-05 0.00292505 0.997763)
(0.000477131 0.00498999 0.996986)
(-0.000655281 0.0063663 0.996721)
(6.67245e-05 0.00468657 0.998461)
(-0.000852087 0.00525069 0.997533)
(0.000458988 0.010848 0.986918)
(0.000486346 0.0126223 0.985399)
(0.00145214 0.00876391 0.992731)
(0.000116345 0.00770918 0.992405)
(5.17043e-05 0.0108728 0.988034)
(0.000348354 0.0112674 0.988484)
(-0.00031329 0.00830624 0.989859)
(0.000277638 0.0102999 0.99165)
(-3.90531e-05 0.010713 0.983955)
(-0.000661 0.00862883 0.991564)
(-0.00140502 0.0105218 0.984011)
(-0.000146461 0.0132754 0.98285)
(-0.000628699 0.010333 0.986031)
(-0.000823524 0.00915476 0.988839)
(-0.000528959 0.0119035 0.979895)
(-0.000765263 0.0103443 0.986174)
(-9.45587e-05 0.014346 0.987803)
(0.000758494 0.00929409 0.994814)
(-0.000681569 0.00738667 0.994252)
(-0.00077364 0.00946139 0.995028)
(-5.03401e-05 0.0102904 0.988791)
(-0.000395119 0.00934428 0.992943)
(-7.13322e-05 0.00939302 0.993065)
(-0.000663255 0.00774779 0.994841)
(-0.000709753 0.0134443 0.98628)
(-0.00189534 0.00913664 0.993498)
(-0.00135223 0.00759834 0.99261)
(-0.00188216 0.0103896 0.98695)
(-0.00131029 0.0111147 0.989079)
(-0.00139114 0.010452 0.991923)
(-0.00124219 0.0108788 0.98817)
(-0.00141622 0.00849419 0.989916)
(0.00632761 -0.00551779 0.987041)
(0.00882257 -0.00576676 0.991797)
(0.00705618 -0.00505329 0.992918)
(0.00525535 -0.00467271 0.99048)
(0.00662721 -0.00628292 0.987971)
(0.00907547 -0.00547198 0.989734)
(0.00627784 -0.00411238 0.989413)
(0.00719654 -0.00516218 0.991391)
(0.00973872 -0.00511329 0.996256)
(0.00705852 -0.00491961 1.00259)
(0.00622034 -0.00336192 1.0011)
(0.00701719 -0.00354317 0.997127)
(0.00887183 -0.00498745 0.99769)
(0.0103272 -0.00489298 1.00083)
(0.00750821 -0.00318678 0.998529)
(0.00664789 -0.00323228 1.00138)
(0.00477949 -0.00337724 0.998363)
(0.0030873 -0.00268532 0.999927)
(0.00125048 -0.00118612 0.999358)
(0.00318519 -0.00228655 0.999229)
(0.00431724 -0.00297939 0.99915)
(0.00378531 -0.0022708 1.00005)
(0.00383428 -0.0026124 0.998285)
(0.00245039 -0.00179809 0.999694)
(0.00367106 -0.00322326 0.993769)
(0.00474063 -0.00327042 0.99666)
(0.00335104 -0.00287321 0.997553)
(0.00253273 -0.0021212 0.996836)
(0.00368173 -0.00294432 0.995057)
(0.0047512 -0.0034842 0.995603)
(0.00335993 -0.00283339 0.995735)
(0.00391486 -0.00279589 0.996771)
(0.0085879 -0.00558809 0.992114)
(0.00710279 -0.00484551 0.99475)
(0.00553742 -0.00412885 0.992148)
(0.00659977 -0.00454671 0.995984)
(0.00734528 -0.00365812 0.993776)
(0.00795207 -0.00458749 0.99204)
(0.00700359 -0.00425205 0.993838)
(0.00666154 -0.00438728 0.993301)
(0.0110299 -0.00580323 0.994355)
(0.00785294 -0.00395629 0.996444)
(0.00672351 -0.00263659 1.0001)
(0.00767673 -0.00447069 0.996608)
(0.0082888 -0.00462351 0.995885)
(0.00889665 -0.00445565 0.995858)
(0.00740451 -0.00439054 0.99769)
(0.00662646 -0.00366225 0.998946)
(0.00651386 -0.00453199 0.994134)
(0.00516877 -0.00387298 0.993137)
(0.0059277 -0.00283421 0.996249)
(0.00404056 -0.00334125 0.996853)
(0.00514371 -0.00384108 0.99616)
(0.00587153 -0.00385361 0.994532)
(0.00450237 -0.00318231 0.99706)
(0.0060833 -0.00359919 0.994591)
(0.00613158 -0.00365997 0.996859)
(0.00396878 -0.00233841 0.998574)
(0.0064035 -0.00322982 0.99811)
(0.00457438 -0.00316412 1.00024)
(0.00623744 -0.00335788 0.997075)
(0.00520273 -0.00267501 0.997726)
(0.00579282 -0.00366893 0.997595)
(0.00522182 -0.00320487 0.997948)
(-0.00047738 0.00552041 0.98774)
(-0.00114364 0.00743325 0.986394)
(0.000130837 0.00615535 0.992701)
(-0.000791093 0.0052675 0.990062)
(-0.000714538 0.00592372 0.987581)
(-0.001137 0.00684444 0.989006)
(-0.00156854 0.0058103 0.989013)
(-0.00145006 0.00649222 0.990681)
(-0.00213855 0.00981066 0.985213)
(-0.0026661 0.0129991 0.98333)
(-0.001507 0.00951895 0.992223)
(-0.00245787 0.00948078 0.9872)
(-0.00206425 0.0108256 0.985297)
(-0.00306513 0.011019 0.987558)
(-0.00295499 0.00898815 0.986741)
(-0.00306226 0.0106677 0.989624)
(0.000253075 0.00474986 0.996906)
(-0.000662803 0.0054175 0.996834)
(3.70372e-05 0.00204177 0.999196)
(-3.37382e-05 0.0035957 0.997753)
(-0.000439393 0.00472059 0.997857)
(-0.00100838 0.00409946 0.998712)
(-0.000223009 0.0031479 0.99747)
(-0.00102328 0.00293873 0.999167)
(-0.00136938 0.00447228 0.992628)
(-0.00201503 0.00583854 0.992034)
(-0.000500059 0.00397339 0.996456)
(-0.00177929 0.0038634 0.993871)
(-0.00179358 0.00409965 0.992946)
(-0.00211517 0.00452604 0.994762)
(-0.00191628 0.00368449 0.993522)
(-0.00203003 0.00417255 0.995797)
(-0.00113486 0.00811706 0.987194)
(-0.000778681 0.00592744 0.993363)
(-0.00168335 0.00525912 0.990722)
(-0.0022621 0.00692455 0.990491)
(-0.00191125 0.00728647 0.987717)
(-0.00144904 0.00675522 0.990759)
(-0.00172222 0.00689526 0.98973)
(-0.00167946 0.00567422 0.992014)
(-0.00215726 0.00865644 0.989056)
(-0.00261469 0.00717905 0.991689)
(-0.0020868 0.00743935 0.994834)
(-0.00114184 0.00600711 0.99499)
(-0.00221438 0.00836332 0.990542)
(-0.00235546 0.00832525 0.990904)
(-0.000746002 0.00791762 0.992566)
(-0.00158965 0.00772427 0.993491)
(-0.000757643 0.00512507 0.993313)
(-0.0013955 0.00468607 0.991092)
(-0.00222984 0.00583523 0.990594)
(-0.000764923 0.00374768 0.995824)
(-0.000258145 0.00522316 0.994396)
(-0.00179979 0.00544562 0.993446)
(-0.000959726 0.0047529 0.995711)
(-0.00183863 0.00511715 0.994524)
(-0.00125862 0.00566954 0.99577)
(-0.00129281 0.00414966 0.997657)
(-0.00278005 0.00689185 0.993257)
(-0.00210919 0.00667303 0.995991)
(-0.00120903 0.00544969 0.996362)
(-0.00131111 0.00461563 0.996752)
(-0.00170506 0.00610915 0.993623)
(-0.00112793 0.00619991 0.994586)
(0.0097282 0.0150262 0.983491)
(0.0043708 0.0116793 0.998135)
(0.00627565 0.0104087 0.995055)
(0.0047305 0.0157303 0.99096)
(0.00746668 0.0141559 0.991923)
(0.00598903 0.0116844 0.995633)
(0.00585466 0.0128384 0.99302)
(0.00367587 0.0112248 0.995882)
(0.00245077 0.00590865 1.00112)
(0.000519741 0.00159804 1.00026)
(0.000517805 0.00134307 0.999979)
(0.00177083 0.00300044 1.00071)
(0.00190039 0.00290758 1.00011)
(0.0010521 0.00163787 1.00046)
(0.00162665 0.00252184 0.999948)
(0.000317176 0.00192831 1.00025)
(0.00349227 0.00497456 0.998618)
(0.000611445 0.00134859 0.999659)
(0.000802725 0.00131603 0.999803)
(0.00157843 0.00322315 0.999602)
(0.00214794 0.00339903 0.998955)
(0.000938104 0.00186574 1.00025)
(0.00178082 0.00278923 0.999605)
(0.000474362 0.00129204 1.00016)
(0.00298368 0.0161307 0.996969)
(0.00263461 0.00663161 1.0026)
(0.00170743 0.00613365 1.00022)
(0.00287384 0.0137107 1.00451)
(0.00141296 0.0127734 1.00219)
(0.00164096 0.00662313 1.00201)
(0.00139691 0.00935221 1.00151)
(0.00207474 0.00522244 1.00135)
(0.00379616 0.00836729 0.999416)
(0.00366573 0.00802405 0.998552)
(0.0039467 0.0144096 0.997092)
(0.00171245 0.005767 1.00065)
(0.0034788 0.00759931 0.999564)
(0.00212535 0.00897517 0.998311)
(0.00357589 0.00999625 0.999981)
(0.00305099 0.00992191 0.999149)
(0.00329314 0.00635469 1.00059)
(0.00159119 0.00358974 1.00084)
(0.00101189 0.00198929 1.00008)
(0.00346537 0.00592398 0.999536)
(0.00176932 0.00653089 1.00025)
(0.00114726 0.0034651 1.00003)
(0.00320759 0.00604735 0.999863)
(0.00185956 0.00334986 0.998869)
(0.00385657 0.00683428 0.998069)
(0.0026668 0.0120236 0.997296)
(0.00207471 0.00455335 1.00042)
(0.00176134 0.00511904 0.998676)
(0.00369453 0.00868966 0.998676)
(0.00200856 0.0083985 0.998954)
(0.00165267 0.00635048 0.998504)
(0.000528867 0.00599656 0.999687)
(0.00292475 0.00510723 0.998352)
(0.00135264 0.00301064 0.999757)
(0.00103953 0.00373592 1.00054)
(0.000339674 0.00180982 1.0002)
(0.00153453 0.00350813 0.998976)
(0.00159512 0.00379904 0.999489)
(0.00159804 0.00278002 0.999472)
(0.00135592 0.00368853 0.999985)
(0.00170876 0.00121881 1.00018)
(0.00571349 0.00331711 0.998904)
(0.00437516 0.00404913 0.997583)
(0.00328249 0.00229216 1.001)
(0.00391757 0.00133568 1.00006)
(0.00458518 0.00311561 0.999035)
(0.00386638 0.00151046 0.999595)
(0.00499863 0.00376123 0.998736)
(0.0119383 0.00525815 0.99492)
(0.0182128 0.00388736 0.983184)
(0.0142673 0.00419552 0.983123)
(0.0208346 0.00273781 0.988732)
(0.0174848 0.0036574 0.991636)
(0.0166866 0.00316076 0.985264)
(0.0172676 0.00287314 0.988785)
(0.0159448 0.00300296 0.981367)
(0.00750021 0.00684058 0.992426)
(0.010743 0.0044074 0.984151)
(0.00706163 0.00497353 0.985116)
(0.0113798 0.00452356 0.98634)
(0.0108304 0.0038499 0.985975)
(0.00997919 0.00383808 0.985552)
(0.0101925 0.00354296 0.986943)
(0.00942154 0.0045268 0.98579)
(0.00606584 0.00245391 1.00287)
(0.0195386 0.00279505 0.997952)
(0.0139395 0.00388983 0.991252)
(0.0118995 -0.000106478 1.00353)
(0.0133526 0.00147343 1.00211)
(0.0142524 0.00210684 0.998916)
(0.0119125 0.00133738 1.00038)
(0.0154168 0.0027158 0.994061)
(0.00951316 0.00276853 0.99708)
(0.00751298 0.00369508 0.995249)
(0.00611517 0.00249958 1.00076)
(0.016411 0.00175981 0.994433)
(0.00943526 0.00318577 0.997156)
(0.00686358 0.00332252 0.99686)
(0.0102695 0.00324712 0.998494)
(0.00835227 0.00372133 0.99922)
(0.00968752 0.00412536 0.995837)
(0.017169 0.00297569 0.992732)
(0.0130262 0.00361741 0.984685)
(0.00790196 0.00498181 0.994702)
(0.0104653 0.00521976 0.994869)
(0.0127379 0.00412687 0.990079)
(0.00863002 0.00500057 0.992861)
(0.013748 0.00312238 0.989006)
(0.00734955 0.00356823 0.995396)
(0.00684602 0.00191959 1.00042)
(0.0163014 0.00172837 0.994316)
(0.0124687 0.00252225 0.991691)
(0.00798148 0.00472849 0.995687)
(0.00912304 0.00339917 0.997398)
(0.0134998 0.00273657 0.991099)
(0.0115041 0.00170463 0.992807)
(0.00808468 0.00541518 0.993351)
(0.0130217 0.00450962 0.988912)
(0.0173702 0.00376648 0.98908)
(0.0127324 0.00396083 0.982323)
(0.00896971 0.00257879 0.987903)
(0.0134898 0.00279303 0.991169)
(0.0138566 0.00328334 0.98689)
(0.0166556 0.00581774 0.988015)
(-0.144617 -0.096645 1.39341)
(-0.117931 -0.0724106 1.34543)
(-0.0493908 -0.160994 1.33188)
(-0.0223572 -0.0797041 1.61121)
(-0.110113 -0.196377 1.38623)
(-0.182997 -0.287372 1.19381)
(0.0564491 -0.0088733 1.46008)
(-0.0133895 -0.159715 1.32094)
(-0.070081 -0.0492602 1.15086)
(-0.0568692 -0.0604415 1.03239)
(-0.0555019 -0.073896 1.1039)
(-0.0465595 -0.0624783 1.08284)
(-0.0738541 -0.0489082 1.1351)
(-0.0787267 -0.0538372 1.12999)
(-0.0563857 -0.0712493 1.10279)
(-0.0600827 -0.067102 1.10107)
(-0.107898 -0.168431 1.24283)
(-0.044984 -0.107006 1.23563)
(-0.0839133 -0.163935 1.20521)
(-0.102542 -0.132285 1.22599)
(-0.0792193 -0.170828 1.31092)
(-0.07779 -0.179296 1.35641)
(-0.0952975 -0.157952 1.18201)
(-0.0992378 -0.182005 1.24637)
(-0.05904 -0.0656477 1.52845)
(-0.0391865 -0.055855 1.15771)
(-0.0871674 -0.108143 1.19095)
(-0.0435661 -0.0528419 1.29688)
(-0.131406 -0.144059 1.37016)
(-0.160039 -0.180228 1.29514)
(-0.0726694 -0.041548 1.19151)
(-0.0561154 -0.140436 1.19789)
(-0.092916 -0.0763525 1.33252)
(-0.0713257 -0.166332 1.36034)
(-0.102082 -0.172045 1.44658)
(-0.0692583 -0.0606081 1.26191)
(-0.0834512 -0.0281363 1.30267)
(-0.128279 -0.143434 1.41673)
(-0.0773439 -0.00552925 1.28546)
(-0.130211 -0.175555 1.38746)
(-0.0687606 -0.143982 1.32173)
(-0.0733536 -0.0970157 1.24173)
(-0.0756447 -0.11601 1.25621)
(-0.0904224 -0.170304 1.41501)
(-0.0718963 -0.0513347 1.28982)
(-0.102937 -0.0630737 1.23353)
(-0.0559679 -0.117917 1.33674)
(-0.0836091 -0.071986 1.28354)
(-0.0710417 -0.162725 1.233)
(-0.024568 -0.0529924 1.34139)
(-0.0791772 -0.0608807 1.23392)
(-0.0837388 -0.138069 1.1648)
(-0.0747872 -0.142709 1.26134)
(-0.0384966 -0.133881 1.33274)
(-0.0854852 -0.150899 1.34005)
(-0.131129 -0.114363 1.43255)
(-0.07029 -0.177435 1.26899)
(-0.0723209 -0.163746 1.22473)
(-0.0504455 -0.083898 1.1969)
(-0.0663206 -0.101774 1.23559)
(-0.0866324 -0.142807 1.38854)
(-0.0817205 -0.148943 1.41022)
(-0.0575863 -0.0688176 1.23767)
(-0.0671767 -0.102676 1.2316)
(0.123952 -0.170816 1.2403)
(0.0902453 -0.099991 1.35143)
(0.158127 -0.0183316 1.20426)
(0.0730843 0.00554759 1.41981)
(0.219621 -0.112023 1.27319)
(0.30158 -0.185663 1.1073)
(0.0151883 0.0775514 1.29139)
(0.158417 0.00471477 1.1911)
(0.046109 -0.0728542 1.23335)
(0.0450269 -0.0383053 1.11293)
(0.0769024 -0.0492532 1.1786)
(0.0654114 -0.0438764 1.137)
(0.0525928 -0.0644364 1.22417)
(0.0568874 -0.0613712 1.22085)
(0.0704877 -0.0544498 1.17073)
(0.0671053 -0.055638 1.17366)
(0.145288 -0.0635387 1.13932)
(0.0979119 -0.0300334 1.21279)
(0.135083 -0.0619749 1.15203)
(0.129833 -0.0691894 1.16083)
(0.161508 -0.0422057 1.20578)
(0.151851 -0.03856 1.23964)
(0.153814 -0.0635827 1.12439)
(0.169939 -0.0602463 1.16437)
(0.0854842 -0.0149936 1.43541)
(0.0641456 -0.033907 1.18712)
(0.11059 -0.0582971 1.1408)
(0.0511777 -0.0257241 1.24489)
(0.155414 -0.080245 1.27622)
(0.175792 -0.0979844 1.22408)
(0.0565118 -0.0427349 1.13869)
(0.135108 -0.0278608 1.14904)
(0.089894 -0.0790597 1.34567)
(0.156527 -0.0388816 1.23005)
(0.149704 -0.0552423 1.33211)
(0.0660538 -0.0410077 1.2446)
(0.0419193 -0.0570906 1.26549)
(0.124316 -0.0941402 1.2804)
(0.018513 -0.0500898 1.26563)
(0.150803 -0.0934109 1.26149)
(0.137526 -0.0709258 1.3534)
(0.0909467 -0.0396659 1.2299)
(0.0893304 -0.0590709 1.25345)
(0.145596 -0.0545138 1.26971)
(0.073951 -0.0603211 1.28162)
(0.0545719 -0.0606687 1.24249)
(0.115096 -0.0532314 1.30008)
(0.0787653 -0.0598522 1.26266)
(0.151471 -0.0365917 1.14468)
(0.0689975 0.0166642 1.26322)
(0.0710715 -0.043291 1.21847)
(0.13913 -0.0522815 1.11199)
(0.133075 -0.0374228 1.17839)
(0.127559 -0.00606484 1.24475)
(0.153059 -0.0438699 1.24551)
(0.126109 -0.081875 1.31823)
(0.156294 -0.0418802 1.17103)
(0.15888 -0.0403755 1.16369)
(0.0790668 -0.0390369 1.20104)
(0.0854334 -0.0453678 1.21575)
(0.137067 -0.049808 1.2754)
(0.147294 -0.041119 1.30012)
(0.0805811 -0.0358678 1.20708)
(0.10031 -0.0350414 1.21725)
(0.262473 -0.201123 1.59551)
(0.144925 -0.115881 1.19542)
(0.249272 -0.0868304 1.39499)
(0.248153 -0.12612 1.3336)
(0.175121 -0.113947 1.47131)
(0.103577 -0.150389 1.36651)
(0.242979 -0.120706 1.27918)
(0.186562 -0.112843 1.3944)
(0.0602489 -0.0442303 1.04585)
(0.0122258 -0.00593935 1.00321)
(0.0401245 -0.0142607 1.02962)
(0.0318361 -0.0149542 1.01279)
(0.0442325 -0.014841 1.02788)
(0.0300897 -0.0142531 1.02547)
(0.0433789 -0.012872 1.03354)
(0.0355859 -0.0157949 1.02144)
(0.215698 -0.0254116 1.3295)
(0.103527 0.00212159 1.10233)
(0.179615 -0.0538528 1.25218)
(0.197299 -0.0103903 1.20875)
(0.166514 0.0496775 1.29862)
(0.0899745 0.0378859 1.23994)
(0.200061 -0.00924526 1.15978)
(0.118005 -0.0339799 1.2441)
(0.244272 -0.0787953 1.25367)
(0.0880598 -0.0218989 1.06749)
(0.212561 -0.00185416 1.20791)
(0.225338 -0.0321294 1.23641)
(0.23047 -0.0377608 1.26313)
(0.176885 -0.0139419 1.26211)
(0.179282 -0.0274918 1.11815)
(0.202754 3.7381e-05 1.24718)
(0.111315 -0.0488687 1.15349)
(0.200646 -0.00831296 1.37097)
(0.2303 -0.0990823 1.3166)
(0.0935738 -0.0321219 1.09639)
(0.0998349 -0.0430436 1.14212)
(0.235604 -0.0722216 1.32079)
(0.0979654 -0.0513437 1.1098)
(0.17142 -0.0533892 1.33702)
(0.0715327 -0.0503388 1.14402)
(0.0853991 -0.0328278 1.10187)
(0.0682547 -0.0160403 1.09549)
(0.12502 -0.0298949 1.30427)
(0.0953789 -0.0476208 1.13656)
(0.113188 -0.0266735 1.09176)
(0.101033 -0.0309841 1.12808)
(0.0992282 -0.0042759 1.113)
(0.229361 -0.0324831 1.24827)
(0.233722 -0.0824698 1.21387)
(0.106242 -0.00817382 1.10183)
(0.206416 0.00667754 1.15942)
(0.22935 -0.0318064 1.28858)
(0.202519 -0.0364055 1.27386)
(0.192967 -0.0118173 1.27208)
(0.192756 -0.0203933 1.29704)
(0.159758 -0.0321641 1.337)
(0.169818 0.0233433 1.25122)
(0.0969239 -0.0218927 1.07346)
(0.0885745 -0.0146277 1.07816)
(0.18012 0.00901896 1.28474)
(0.148152 0.0149245 1.28652)
(0.0917981 -0.00759299 1.10589)
(0.095976 -0.00905532 1.07685)
(-0.00738301 0.0435686 1.18591)
(-0.066689 0.0756641 1.37655)
(-0.032759 0.0697391 1.20033)
(-0.045691 0.110096 1.14633)
(-0.0173283 0.02575 1.10751)
(-0.0703095 0.123296 1.2767)