/*--------------------------------*- C++ -*----------------------------------*\
| =========                 |                                                 |
| \\      /  F ield         | OpenFOAM: The Open Source CFD Toolbox           |
|  \\    /   O peration     | Version:  2506                                  |
|   \\  /    A nd           | Website:  www.openfoam.com                      |
|    \\/     M anipulation  |                                                 |
\*---------------------------------------------------------------------------*/
FoamFile
{
    version     2.0;
    format      ascii;
    arch        "LSB;label=32;scalar=64";
    class       surfaceScalarField;
    location    "200";
    object      phi;
}
// * * * * * * * * * * * * * * * * * * * * * * * * * * * * * * * * * * * * * //

dimensions      [0 3 -1 0 0 0 0];

oriented        oriented;

internalField   nonuniform List<scalar> 
86544
(
3.21445e-06
-1.31769e-06
-1.60588e-06
-2.90827e-07
-3.55907e-06
6.8646e-06
-3.88147e-06
5.75928e-07
2.09666e-07
-3.24021e-06
4.81678e-06
-1.78604e-06
-1.05475e-06
4.4581e-06
1.08115e-07
-3.51142e-06
4.59564e-06
1.95701e-06
-3.3382e-06
-2.56421e-07
1.29309e-06
-3.81346e-07
1.28381e-06
-4.27907e-07
1.00848e-05
-4.61194e-06
-6.462e-06
9.89422e-07
-5.83166e-06
1.25516e-05
-6.97974e-06
2.60096e-07
-5.42446e-06
1.37336e-06
4.31013e-06
-2.59077e-07
-5.68591e-07
-3.90998e-06
1.19866e-05
-7.50797e-06
1.2165e-05
6.26406e-06
-8.34424e-06
5.51559e-06
8.17731e-07
7.10637e-06
-1.41088e-06
7.19752e-06
-9.3553e-06
1.0468e-06
9.69741e-06
-1.38884e-06
9.13007e-06
-1.05053e-06
-7.10288e-06
-9.76562e-07
1.74047e-06
8.36316e-06
-8.92488e-06
-1.17878e-06
-1.87004e-06
1.9533e-06
9.47776e-06
-9.56099e-06
-1.01631e-05
2.34651e-08
7.84636e-07
1.71924e-07
-1.2049e-06
-1.06123e-05
8.76573e-06
-8.6999e-06
1.87038e-06
-1.72423e-06
3.01678e-06
-3.16262e-06
-3.05314e-07
-9.26727e-07
5.40282e-06
-4.1701e-06
1.743e-06
-2.48129e-06
9.70955e-06
-8.97128e-06
-2.39362e-06
9.92486e-06
-8.28141e-06
7.5024e-07
2.1968e-06
1.41138e-06
-1.73734e-06
8.63133e-07
1.02891e-06
-9.38169e-06
8.39951e-06
-6.77567e-06
4.30917e-06
8.83278e-06
-6.27721e-06
-8.00793e-07
-3.22494e-06
7.86041e-07
4.3295e-06
1.85627e-06
-1.72751e-06
-8.86664e-06
8.01341e-06
5.54503e-06
-4.69187e-06
-3.01868e-08
6.22105e-08
4.27734e-06
-1.25884e-06
-3.17954e-06
-5.62487e-06
-1.0879e-07
2.89446e-06
1.32652e-06
-3.06162e-07
4.40942e-06
2.00725e-07
2.38847e-06
-1.21572e-06
-3.11806e-06
1.50523e-06
-1.6118e-06
4.04507e-06
3.12691e-06
2.32807e-06
3.92072e-07
-3.83107e-07
2.92082e-06
1.88545e-06
-8.77838e-06
7.67918e-06
-3.23642e-06
3.36879e-06
1.21658e-06
3.40153e-06
-2.60844e-07
-1.17101e-05
9.48999e-06
1.44935e-06
-7.22511e-06
7.66154e-06
-1.8956e-06
-3.49887e-07
-7.13588e-06
-6.2262e-06
-9.98475e-07
-8.75827e-06
2.99058e-06
4.82073e-06
5.54469e-06
-4.20681e-06
1.77169e-06
-7.21328e-06
-6.36264e-06
1.25225e-06
-2.11973e-06
1.40322e-06
-2.36856e-06
-3.52359e-07
1.25821e-06
2.01376e-06
1.54489e-06
-1.59363e-06
-4.47863e-07
1.83446e-06
2.0708e-07
-1.74394e-06
2.51866e-06
-6.6651e-07
1.95902e-06
7.2789e-07
2.53925e-06
6.78035e-07
-8.51254e-07
-1.64832e-07
9.43634e-08
2.2407e-06
3.84359e-06
3.61313e-06
3.48199e-06
1.71362e-06
3.16762e-06
-8.66724e-06
4.16696e-06
1.42455e-06
3.07582e-06
3.18908e-06
3.96115e-06
2.3275e-06
5.00577e-06
6.00057e-06
5.27608e-06
3.21172e-06
5.16081e-06
4.02883e-06
1.76965e-06
-5.19723e-07
-5.98693e-06
4.5009e-06
2.0059e-06
4.60087e-06
-8.11461e-06
6.72435e-07
2.84135e-06
-7.10273e-06
4.39947e-06
1.88217e-08
2.68448e-06
2.81325e-06
-7.80415e-06
4.71277e-06
2.7837e-07
2.72813e-06
4.38025e-06
-7.62812e-06
4.61389e-06
2.71512e-06
2.59856e-06
4.59495e-06
1.0974e-07
2.90347e-06
8.02274e-07
-6.88933e-07
3.9017e-06
3.24579e-06
2.562e-06
-8.9246e-06
3.22582e-06
4.5218e-06
1.17698e-06
3.3117e-06
3.66963e-06
2.94349e-06
5.24965e-06
6.05329e-06
5.96871e-06
3.18263e-06
4.92088e-06
4.4441e-06
1.96497e-06
4.98681e-06
4.70615e-06
-6.50083e-06
2.35215e-06
3.70092e-06
2.6882e-06
3.19924e-06
-1.04523e-06
4.816e-06
5.71926e-06
3.98343e-06
-2.98441e-06
3.98783e-06
-2.42304e-06
3.6319e-06
3.89705e-06
5.56318e-06
2.98655e-06
3.14179e-06
5.63537e-06
-3.96248e-06
5.21773e-06
2.91171e-06
-4.49761e-06
4.55402e-06
2.29582e-06
1.38514e-06
8.16589e-06
8.55575e-06
9.27949e-07
2.74031e-06
5.52121e-06
-1.93832e-06
1.27558e-06
4.36373e-06
3.00247e-06
9.99065e-07
4.05514e-06
4.90991e-06
-5.02301e-06
3.48194e-06
4.767e-06
-5.79213e-06
1.37561e-08
3.84008e-06
1.10739e-06
-8.34516e-06
3.33591e-06
-1.57341e-07
-4.92171e-06
5.99501e-07
8.86085e-06
1.68428e-06
-3.82639e-06
9.29483e-07
-2.99209e-06
-4.79338e-06
-4.57793e-06
-3.09859e-06
1.18425e-06
2.41611e-06
-2.3089e-06
1.1142e-06
-1.2214e-06
-2.9684e-06
2.03847e-06
2.0065e-06
-1.07681e-06
1.62213e-06
2.01746e-06
-2.48511e-06
-1.15486e-06
-1.09805e-06
1.33899e-06
-3.15213e-06
2.91129e-06
1.06048e-06
-5.46289e-07
1.90141e-06
-8.11964e-07
-1.0962e-06
9.26505e-07
-2.57105e-06
1.73653e-06
2.26363e-06
-3.51653e-06
2.40961e-06
-1.15694e-06
-3.7498e-06
2.87426e-06
2.34242e-06
-1.46702e-06
2.62741e-06
-3.83229e-06
1.90818e-06
-7.03228e-07
-1.39338e-06
-4.60994e-06
2.54553e-06
3.45777e-06
1.2013e-06
-1.57954e-06
2.64201e-06
-1.21241e-06
-1.33605e-06
8.30031e-07
-3.80292e-06
2.24495e-06
1.83136e-06
2.00484e-06
-2.80619e-06
-1.03026e-06
-3.8041e-06
2.79488e-06
1.46124e-06
-4.52041e-07
1.76862e-06
2.0768e-06
-2.8232e-06
-1.02205e-06
6.47348e-07
4.80646e-06
-1.92451e-06
-3.52945e-06
1.66028e-06
-2.69548e-06
2.86662e-06
-1.50351e-06
-6.40007e-07
1.91225e-06
-3.9602e-06
2.17753e-06
1.19539e-06
-1.43736e-06
-4.01977e-06
4.26171e-06
-4.83771e-06
-1.86387e-06
2.44551e-06
4.25597e-06
5.52515e-06
-4.52567e-07
-1.26241e-06
-3.8105e-06
-1.90408e-06
1.07732e-06
-4.17331e-06
4.99998e-06
-1.58394e-07
-2.92873e-06
4.28288e-06
-3.84814e-06
-1.14799e-06
-8.65766e-07
-3.96707e-06
8.11053e-07
-1.49917e-06
9.76622e-07
2.56043e-06
2.4043e-06
9.04119e-07
-1.2913e-06
-1.42545e-07
-2.3055e-06
3.78733e-06
-1.54171e-06
5.42998e-07
-2.81806e-06
3.81686e-06
-3.26501e-06
9.62327e-07
8.03393e-07
8.75843e-07
-4.19811e-06
3.61873e-06
-3.46475e-06
-1.42005e-06
-1.11992e-06
-1.21295e-06
-2.85384e-06
-9.5065e-07
-2.08138e-06
-8.00195e-07
3.22942e-06
-1.41836e-06
-9.07166e-07
1.86637e-06
-2.48305e-06
-3.14946e-06
1.55447e-06
-8.08043e-07
-2.54567e-06
7.3349e-07
9.61553e-07
-2.98662e-06
-3.44536e-07
-3.39829e-06
-4.47034e-06
-2.115e-07
4.27636e-06
-7.14657e-07
-4.01482e-06
4.25779e-06
2.70467e-07
-3.79502e-06
4.48491e-07
5.16983e-06
-6.23478e-07
1.54786e-06
4.82339e-06
-7.31912e-07
-4.24245e-06
1.17721e-06
-1.03418e-06
1.74757e-06
3.39786e-07
4.07455e-06
4.5397e-06
4.947e-07
7.92043e-07
-6.04407e-06
-6.63294e-09
-1.27048e-06
-6.75682e-06
9.24265e-07
7.97487e-06
-6.50527e-06
4.3854e-07
-7.45443e-07
-6.26999e-06
-6.61792e-06
-8.12622e-06
-8.10054e-06
2.11891e-07
-6.62676e-06
-6.75246e-06
-6.53357e-07
4.59429e-06
3.69108e-07
7.26761e-06
5.12264e-06
1.61214e-07
-3.75717e-06
5.02496e-06
-4.04631e-06
2.77926e-06
-4.62321e-07
8.56838e-06
3.88068e-06
3.02617e-07
6.24174e-06
4.89363e-06
2.67714e-06
-8.37168e-07
6.6168e-06
2.99291e-07
-6.27566e-06
6.4955e-06
1.24139e-06
-6.79806e-07
1.80684e-06
-4.12024e-06
2.9939e-06
5.83108e-06
-5.23621e-06
1.48233e-06
7.98948e-07
1.51462e-06
-4.23796e-06
-4.93977e-06
-7.49613e-06
6.16038e-06
-7.29138e-06
1.67207e-06
-4.51955e-06
-5.97982e-06
-5.49219e-06
-1.03363e-06
4.2444e-06
-6.33282e-07
1.79139e-06
4.44311e-06
-1.60506e-06
-4.10033e-06
-1.81358e-06
-5.39051e-06
-6.28545e-06
-5.9827e-06
-1.29146e-07
-1.91192e-06
-6.98523e-06
-2.67116e-06
-5.88919e-06
-5.07465e-06
7.51716e-06
-6.6524e-06
-7.37019e-06
-7.78158e-06
-7.24652e-06
2.33142e-06
-1.59852e-06
4.08811e-06
4.27022e-07
1.05486e-06
-7.37103e-06
1.19178e-06
1.26669e-06
-5.32307e-06
-1.17048e-06
6.90222e-07
-1.31061e-06
8.28051e-06
4.41557e-06
-1.84547e-06
2.45517e-06
-1.24294e-06
-6.38817e-06
9.78605e-07
-5.53035e-06
-3.01129e-06
-2.24128e-07
-6.17864e-06
1.92434e-06
-1.98709e-06
5.18131e-07
-6.1407e-06
-7.10293e-06
4.66378e-06
-1.20895e-06
3.10422e-06
-5.44151e-06
6.58826e-06
-5.27815e-06
-5.83775e-06
3.08589e-06
-5.25987e-06
-6.03339e-06
-2.12643e-06
-1.80049e-06
6.50219e-06
5.69263e-07
3.77301e-06
-3.81169e-06
1.27686e-06
-1.14984e-06
-6.10944e-06
6.36079e-07
1.02881e-06
3.576e-06
-3.01244e-06
2.64306e-06
-3.20684e-06
2.95398e-06
1.8269e-06
-2.14618e-06
-2.63502e-06
-3.24338e-06
4.35844e-06
-4.60072e-06
3.48543e-06
-3.20594e-06
2.4939e-06
3.9832e-06
-3.27138e-06
2.95887e-08
6.90854e-06
-3.36251e-06
6.19364e-06
-3.21038e-06
9.74405e-08
3.60502e-06
3.04762e-06
-3.57537e-06
1.2873e-06
1.28926e-06
9.99092e-07
-4.24092e-06
-6.67837e-06
9.91259e-06
1.00681e-06
1.92571e-07
3.46941e-06
1.85569e-06
-5.51775e-06
5.9931e-06
-4.20859e-06
-8.96201e-06
7.17733e-06
-8.03909e-07
-5.86516e-06
3.09316e-06
-7.40623e-06
2.36131e-06
-2.57353e-07
3.85052e-07
-7.47103e-06
5.85369e-06
-5.03892e-06
-6.22728e-06
5.41246e-06
3.57484e-06
-4.1385e-06
5.32691e-06
-4.76338e-06
-5.77921e-06
8.83228e-06
-7.73253e-06
4.67927e-06
-2.60798e-06
-1.97423e-06
1.6361e-06
2.94585e-06
8.72183e-07
8.98321e-06
-4.00196e-06
1.0694e-05
-6.2471e-06
1.33438e-06
5.0407e-06
6.24914e-06
-9.62613e-07
-2.1916e-06
3.37882e-06
-2.24653e-07
-1.26216e-06
3.1449e-06
-6.99929e-06
5.1167e-06
3.23149e-06
5.96441e-07
-4.06799e-06
2.40166e-07
-1.7312e-06
-6.88292e-06
3.28842e-06
5.32543e-06
-3.05004e-06
-6.20439e-07
2.70774e-06
-4.8817e-06
5.69529e-07
-4.30348e-06
1.95175e-06
-5.95374e-06
3.83741e-06
-2.97702e-07
-1.71258e-06
-4.23903e-06
4.96684e-07
8.10065e-06
-6.96685e-07
5.4956e-06
-2.30524e-06
3.57089e-06
-1.65912e-06
-4.79199e-06
2.88025e-06
3.43812e-06
1.44646e-07
2.54193e-07
2.2467e-06
1.32304e-06
2.39248e-06
2.87288e-06
2.57189e-06
-1.58235e-06
1.53162e-06
-7.39973e-06
-5.24805e-07
7.64942e-06
-3.65568e-06
-3.83349e-06
8.46833e-06
-4.13815e-06
-3.02461e-07
3.1284e-06
1.61383e-06
2.68715e-06
-3.39242e-06
3.77537e-06
3.74094e-06
4.17972e-07
3.94183e-06
-5.80754e-07
3.88473e-06
1.09822e-06
-2.74527e-06
-3.45084e-06
1.32895e-06
2.71839e-06
-2.97527e-06
2.48763e-06
4.22856e-06
-6.8309e-07
-9.84661e-07
2.14304e-08
3.84729e-06
-2.35394e-06
1.7079e-06
-3.25975e-06
-6.88545e-06
-2.55683e-07
3.76647e-06
3.10965e-06
-3.26475e-06
7.76747e-07
2.54503e-07
-2.22873e-06
-8.27647e-06
4.43172e-06
6.38037e-06
-2.53559e-06
3.56285e-06
-7.17012e-06
6.0962e-06
-2.4889e-06
9.19361e-06
-1.07302e-05
5.63928e-06
-4.1027e-06
-2.86949e-06
-5.61926e-06
3.20082e-06
5.28795e-06
-1.08935e-05
-4.56414e-06
7.18111e-06
-4.65237e-06
-2.67826e-06
-1.2503e-05
5.06924e-06
-7.96174e-06
-6.22975e-06
3.08236e-06
5.48573e-06
-2.33832e-06
2.99981e-06
-6.5618e-06
5.90688e-06
-2.34483e-06
4.83236e-06
2.99404e-06
-5.59231e-06
-2.23402e-06
-1.82404e-06
2.22479e-06
-5.85531e-06
5.45449e-06
-8.51261e-06
-3.30277e-06
5.58579e-06
-3.24791e-06
-2.26485e-06
-7.29786e-06
2.17106e-06
-5.71346e-06
-1.0685e-05
9.23911e-06
5.59245e-06
-4.14648e-06
4.41158e-06
6.19361e-06
-7.61538e-06
-2.98984e-06
8.94598e-06
5.7487e-06
-1.23029e-05
-2.39167e-06
-1.79893e-06
1.95972e-06
2.25508e-06
-2.41589e-06
-1.27839e-05
-5.06351e-06
7.16241e-06
-4.71435e-06
-3.65793e-06
-1.20212e-05
5.15876e-06
-7.7896e-06
2.87e-06
-4.76636e-07
7.65486e-07
-3.15857e-06
-6.59227e-07
-5.61242e-07
9.22041e-07
2.98761e-07
-3.99964e-06
5.39445e-07
-2.62027e-06
6.08042e-06
2.20838e-06
-5.05892e-06
6.09751e-06
-3.24698e-06
1.75458e-06
2.47052e-06
-1.35486e-06
1.15114e-06
-5.58361e-08
7.72502e-06
-3.04628e-06
4.87639e-06
-3.76008e-06
-9.37813e-06
5.96818e-06
6.87299e-06
-1.29632e-05
-4.64e-06
-5.97168e-06
-1.99189e-06
2.34441e-06
4.51217e-06
-6.28133e-06
-2.27914e-06
4.04843e-06
3.06371e-06
1.52492e-06
-8.34868e-06
1.97496e-06
1.71498e-06
4.32216e-06
-2.28174e-06
-3.67343e-06
-2.62234e-06
-1.63187e-06
-2.42467e-06
9.38885e-06
-3.68855e-06
-2.70627e-06
-4.38223e-06
-5.09001e-06
-3.4909e-06
-5.47992e-06
-6.54217e-06
-4.94072e-06
-7.72689e-06
-3.19752e-06
-3.27877e-06
3.021e-06
-1.23526e-05
4.69167e-06
-5.02521e-06
2.5568e-06
3.30977e-07
-3.17132e-06
6.04127e-07
-1.56615e-07
9.1645e-08
5.51972e-06
-5.8232e-06
3.32447e-06
-1.78717e-06
1.51202e-06
-6.73118e-06
-8.20349e-06
2.09664e-06
-2.93676e-07
-2.45227e-06
-3.14376e-06
8.61749e-06
-6.1125e-06
2.35249e-06
-3.3936e-06
-2.28202e-06
1.94514e-06
-2.78911e-06
-1.00782e-05
1.07939e-05
3.71608e-06
1.19091e-05
-1.0112e-05
3.84215e-06
-4.485e-06
-6.40585e-06
7.50559e-06
3.38516e-06
2.70064e-06
-3.45628e-06
3.95657e-06
-6.681e-06
1.67202e-06
1.76097e-06
3.46707e-06
-5.02537e-06
9.39802e-06
-7.74941e-06
-1.04674e-05
1.24654e-05
3.59456e-06
1.1249e-05
3.33193e-06
-3.03065e-06
6.67287e-06
1.6847e-06
2.56011e-06
1.33077e-06
-7.08801e-06
1.77937e-06
1.3571e-06
2.80393e-06
-4.57559e-06
8.91504e-06
-1.07303e-06
-2.47646e-06
2.10304e-06
1.44649e-06
2.28817e-06
-1.27631e-06
8.4391e-07
1.47582e-06
-8.49551e-06
3.41513e-07
-2.49705e-06
3.83342e-06
-1.02984e-05
-7.82235e-07
-1.80811e-07
-1.09881e-07
2.50689e-07
1.2553e-06
5.74452e-06
-8.42228e-06
6.39776e-06
4.5563e-08
-5.67773e-06
-6.18978e-06
-4.98553e-07
4.24677e-06
-2.57562e-06
-8.67044e-06
-4.56124e-06
-7.3806e-06
3.94226e-06
-5.90793e-07
-6.71726e-07
-1.57583e-06
2.3787e-06
-7.53066e-06
1.71962e-06
-7.1399e-06
-3.79509e-06
-3.417e-06
8.0617e-07
-8.0885e-07
-9.05738e-08
1.33535e-06
3.07393e-07
-1.55118e-06
9.57887e-06
-2.6716e-06
-5.18768e-06
-1.96561e-06
1.98835e-06
-7.86135e-07
1.65529e-06
3.67018e-06
2.01494e-06
-3.76822e-07
3.40388e-06
8.62006e-07
2.40701e-06
-7.38688e-06
1.10112e-06
2.86878e-06
-7.21752e-06
3.68513e-06
3.71246e-06
-6.10239e-06
2.40065e-06
1.01395e-06
-5.86292e-07
-3.88134e-06
5.27382e-06
1.92056e-06
-1.96557e-06
-1.27075e-06
-7.79622e-07
4.63594e-07
3.55895e-06
-6.5981e-06
3.42816e-07
3.07768e-06
-4.00687e-06
1.47706e-06
1.36952e-06
2.17148e-06
-5.25662e-06
5.06889e-07
5.51282e-07
3.35217e-06
2.67033e-08
-5.39329e-06
2.70467e-06
-1.02722e-06
1.08147e-06
4.83393e-07
-1.43332e-06
-1.31988e-07
-6.84787e-07
1.22628e-06
6.77326e-07
-1.22029e-06
-1.7981e-07
1.94909e-06
-1.5841e-06
-1.86234e-07
-1.75483e-07
-7.4432e-07
1.79104e-06
-8.71617e-07
5.48722e-07
-3.49116e-07
8.80724e-07
1.1249e-06
-1.26318e-06
4.00481e-07
-9.25334e-07
1.34525e-06
4.19893e-06
2.83464e-07
-4.61716e-07
-4.02063e-06
1.35806e-06
-2.55268e-06
-6.53789e-06
-2.58787e-06
8.97922e-07
-4.5372e-06
-3.64875e-06
-5.28581e-08
-1.06158e-06
1.23714e-06
4.38819e-06
-1.42608e-06
7.9448e-06
-5.34956e-06
8.90176e-07
-1.50853e-07
2.56204e-06
-1.0128e-06
-1.90797e-06
3.58347e-07
9.43972e-07
-1.98864e-06
-3.55607e-06
-1.30515e-06
-1.84364e-06
1.36181e-07
-1.39881e-06
-5.26328e-07
-2.21089e-07
6.96316e-07
2.51706e-06
-6.51814e-07
3.5335e-06
-1.89357e-06
9.82036e-07
1.36113e-07
-3.3656e-06
1.44762e-06
2.66502e-06
-7.47242e-07
-1.45991e-06
-1.4475e-06
-2.6099e-06
1.08306e-06
9.5168e-07
-7.44735e-07
4.95453e-06
7.51361e-06
-2.5555e-06
3.73342e-07
-7.19617e-06
3.45757e-06
-2.86685e-06
1.78121e-06
-5.77526e-07
-1.66406e-06
2.1819e-07
7.85613e-07
2.22158e-07
-4.62342e-08
6.32861e-07
1.36166e-06
5.09754e-07
-2.51062e-06
1.25712e-06
-1.90928e-06
1.43469e-06
7.72611e-07
-2.97329e-07
-1.19534e-06
3.71048e-07
1.04267e-06
1.0393e-07
-1.64249e-06
1.04635e-07
-1.02741e-06
2.89618e-06
-1.82732e-06
-2.0365e-06
3.4178e-06
-1.11735e-06
4.911e-06
-2.89572e-06
-7.74013e-08
2.14305e-06
-1.43358e-06
2.92883e-06
1.00941e-06
7.41356e-07
3.17489e-06
-2.24305e-06
2.79865e-06
8.52395e-07
9.90338e-07
-4.81089e-07
3.43036e-07
-1.40597e-06
-1.82653e-06
1.15172e-06
3.64956e-07
6.13452e-07
-2.57375e-08
2.43164e-07
1.04259e-06
-4.32446e-07
-4.4068e-07
4.85998e-07
9.21971e-07
2.12054e-06
-1.49486e-06
9.13795e-07
-1.21581e-06
9.60042e-07
5.08718e-07
3.87117e-07
2.09151e-06
3.3182e-06
-1.84275e-06
-7.53389e-07
-7.22099e-07
-6.78897e-07
3.79044e-06
-2.30372e-06
-8.07819e-07
-2.18453e-06
3.60515e-06
-6.93858e-07
-7.26756e-07
-5.33053e-07
3.63846e-06
-2.26379e-06
-8.41642e-07
2.75778e-06
2.72464e-06
-2.16423e-06
2.83328e-06
-7.54363e-07
2.91203e-06
-7.20444e-07
3.56077e-06
7.24936e-06
8.64153e-08
-4.99104e-06
-2.34474e-06
-1.37333e-06
1.15359e-05
-5.4515e-06
-4.71108e-06
-3.34155e-06
-4.44338e-07
5.36576e-06
-1.5798e-06
-1.64231e-06
-8.18531e-07
6.85183e-06
-4.39099e-06
4.59592e-06
7.29954e-06
-4.6461e-06
6.25813e-06
-3.03552e-06
5.96499e-06
-3.07753e-07
8.88154e-06
4.09659e-06
-2.52703e-06
-8.02068e-07
-7.67525e-07
-8.75422e-07
-3.08658e-06
4.96091e-06
-9.98921e-07
-2.59606e-06
4.55041e-06
-1.15554e-06
-7.9879e-07
-6.64487e-07
-2.80408e-06
4.6034e-06
-1.13479e-06
3.32808e-06
3.34796e-06
-2.57942e-06
3.6198e-06
-1.16709e-06
3.6093e-06
-9.25839e-07
4.63301e-06
4.18529e-06
-3.03041e-07
-2.74027e-06
-1.14202e-06
-1.16366e-06
-6.56117e-07
4.86452e-06
-3.04481e-06
-3.17036e-06
-3.07133e-07
4.81381e-06
-1.33628e-06
-3.05064e-08
4.75734e-06
-3.15434e-06
-1.57247e-06
4.0617e-06
3.13441e-06
-3.01077e-06
3.47784e-06
-5.7976e-07
4.37506e-06
-1.27107e-06
4.68251e-06
3.75414e-06
3.25803e-06
-3.22174e-06
-2.38451e-06
3.06512e-06
2.92457e-06
3.35448e-06
2.91819e-06
-2.6343e-06
-4.64378e-06
4.04143e-06
3.97533e-06
-3.37304e-06
-6.09745e-07
8.37389e-07
3.52646e-06
5.66487e-07
-7.29034e-07
-3.07737e-06
3.19193e-06
4.53072e-06
-1.18624e-06
-1.158e-06
4.3809e-06
-3.49177e-06
4.43121e-06
-1.38378e-06
3.92554e-07
3.392e-06
-7.19398e-07
4.73122e-06
3.32598e-06
3.26545e-06
4.54337e-06
-8.24826e-07
4.317e-06
5.40917e-07
3.19372e-06
-8.10076e-07
3.56311e-06
-9.47976e-07
-9.30568e-07
4.24977e-06
-3.18246e-06
4.01089e-06
-1.13551e-06
-2.5797e-06
4.10641e-06
-9.85797e-07
4.17535e-06
-2.66502e-06
3.58895e-06
4.05866e-06
-3.41378e-06
4.62056e-06
3.11796e-06
5.51268e-06
-4.24132e-06
5.5859e-06
7.43227e-07
7.35975e-07
9.18377e-07
8.11616e-07
4.84794e-06
-5.17398e-07
1.18264e-06
-1.69385e-06
-1.50275e-06
1.24157e-06
1.31291e-06
8.57702e-08
-3.09512e-06
8.85386e-07
9.12181e-07
-8.51603e-07
1.59695e-07
-2.19998e-07
2.66953e-07
-1.34023e-06
5.55961e-07
-3.83071e-07
2.84301e-07
-7.12293e-07
-1.29717e-08
1.38335e-06
-1.30603e-06
1.43256e-06
-1.29882e-06
1.00255e-06
9.52763e-07
8.2735e-07
-1.57696e-06
4.33912e-07
4.76575e-07
-1.12081e-07
7.23815e-07
7.71594e-07
4.82357e-07
-1.27029e-06
4.17163e-07
-4.42805e-06
-1.29696e-06
2.27518e-06
2.25703e-06
-1.14324e-06
-1.72625e-06
2.4718e-06
3.91669e-06
-1.86283e-06
2.65896e-06
-9.115e-07
-2.06714e-06
-1.44936e-06
-2.04617e-06
-8.22534e-07
2.6721e-06
-2.0483e-06
1.08365e-06
-6.20705e-07
1.58536e-06
1.18801e-06
-9.67715e-07
-9.09235e-07
-2.5174e-06
4.0264e-06
3.01282e-06
2.97885e-06
-2.93313e-06
3.62396e-06
-7.00374e-07
-4.04939e-07
-9.42989e-07
-1.11593e-06
1.60357e-06
-8.10764e-07
3.38468e-06
5.53606e-07
7.17967e-08
6.16192e-07
7.5238e-08
-9.03736e-07
-2.26661e-06
-3.11254e-07
-4.88981e-07
-5.11975e-08
-4.92118e-07
-7.78728e-07
2.11021e-06
-8.39287e-07
-3.98967e-07
1.17545e-06
-2.22834e-07
-3.36639e-07
2.50814e-07
4.32652e-07
-3.96988e-07
1.05566e-06
-1.22596e-06
8.81193e-07
1.2565e-06
-2.17349e-06
-1.34613e-06
-2.22527e-06
9.48142e-07
-1.15262e-07
1.39399e-07
-3.19239e-06
-1.79646e-06
-3.11246e-06
-1.03391e-06
1.8798e-06
-4.37899e-07
1.03266e-06
1.368e-06
-2.25464e-07
1.94204e-06
-7.31871e-07
2.81632e-06
-1.01475e-06
-3.97645e-06
1.8788e-06
-1.84961e-06
-1.12196e-06
-9.12397e-07
-4.55611e-06
2.17235e-06
1.65482e-06
1.04701e-06
-3.58553e-06
-2.41991e-06
-2.32555e-06
-3.16936e-06
2.31789e-07
-7.95071e-07
-6.98562e-07
-4.10326e-08
2.4295e-06
2.19583e-08
-7.05736e-07
-2.01894e-06
-9.78271e-07
-1.5495e-07
-1.60641e-06
-7.32889e-07
-5.59307e-07
-2.09424e-06
-6.57583e-07
-2.24062e-07
-5.21127e-07
-5.39504e-07
-1.02601e-06
-5.13902e-08
3.09684e-06
-3.47843e-07
-1.00354e-06
-1.53149e-06
3.84955e-07
-2.38284e-06
-2.32778e-06
-2.15357e-06
-1.6081e-06
-3.37127e-06
-3.13757e-07
-1.88251e-06
-6.90566e-08
2.37055e-06
-5.55805e-07
-1.60787e-07
2.14331e-06
-2.37365e-07
1.7944e-06
4.60144e-07
-5.09095e-07
-1.8603e-06
2.4402e-06
-1.62155e-06
1.0414e-06
-1.81366e-06
-3.76366e-07
2.12082e-06
-2.28811e-07
-2.66491e-06
4.28127e-07
-1.09937e-06
-1.71798e-06
-2.62575e-06
3.23851e-07
1.14647e-06
-1.94787e-06
-3.00905e-06
3.58473e-06
-2.45213e-06
-2.37125e-06
1.23857e-06
-2.88089e-06
-2.04128e-06
7.4892e-07
-4.52906e-06
-1.15597e-06
-1.00076e-06
-2.38181e-06
-4.68432e-06
6.4747e-07
-2.10022e-06
-1.04761e-06
-1.98014e-06
2.75378e-06
-1.86924e-06
-8.62589e-07
-3.27682e-06
-1.0997e-06
1.94182e-06
-3.9409e-06
-2.01572e-06
-5.07866e-07
2.0333e-06
-2.57308e-06
2.02185e-06
1.80098e-07
-1.07486e-06
-7.73979e-07
-1.89685e-06
-1.65905e-06
2.23734e-06
-8.3946e-07
4.43997e-07
-5.67533e-07
-8.65038e-07
-2.48202e-06
-3.07563e-06
-2.92336e-07
-1.13059e-06
1.89038e-06
-2.53982e-06
-2.13103e-07
-3.94027e-06
2.14823e-07
1.13894e-06
-5.10247e-06
7.04307e-07
-4.03766e-06
8.81149e-07
3.12117e-06
-1.72347e-06
4.92669e-07
-1.89395e-06
3.13681e-06
-4.15592e-06
-7.3677e-07
6.80746e-07
-2.27819e-06
-3.45619e-06
-3.30528e-06
3.19922e-06
-1.8955e-06
1.77463e-06
-3.90478e-07
-1.70052e-06
1.67816e-06
-3.47853e-06
5.82082e-06
-2.23792e-07
-4.41431e-06
-1.74859e-06
6.33523e-06
1.36374e-07
-4.72293e-06
-2.72889e-07
3.7916e-06
-2.20573e-06
-2.64876e-06
3.61395e-06
-8.0534e-07
2.33989e-06
3.66326e-06
-1.82206e-07
5.22704e-06
-4.63563e-06
1.57049e-06
6.52466e-06
9.80789e-06
-2.24934e-06
-5.98045e-07
-6.9605e-06
-2.54859e-06
-1.0219e-07
-4.32889e-06
-1.41852e-06
-1.38952e-06
-3.65405e-06
-5.94011e-06
-1.35027e-06
-2.1755e-07
3.60289e-06
7.09184e-06
-8.86837e-07
7.05819e-06
-6.00392e-06
2.70457e-06
-1.55282e-06
5.03543e-06
2.51269e-07
-3.85407e-06
-1.42549e-06
-6.37272e-07
-1.81875e-06
-1.44544e-07
-4.58768e-07
-2.98924e-06
-4.56109e-08
1.43161e-06
3.15409e-06
4.49647e-07
2.54633e-06
-2.5403e-06
9.36413e-07
1.61062e-06
-1.97905e-06
-2.52266e-07
-3.95073e-07
-3.75442e-06
-2.05372e-08
-5.19115e-07
-3.55275e-06
-1.13317e-06
-1.04966e-06
2.05957e-08
1.23577e-06
3.54325e-07
3.09685e-06
-3.47136e-06
-8.40395e-07
5.31918e-06
1.55908e-06
-5.42955e-07
-1.32884e-06
1.33715e-06
3.78344e-06
1.69808e-06
2.78205e-06
-8.6616e-07
-5.53329e-06
1.23578e-06
4.24673e-06
5.08877e-08
-8.72215e-07
4.58211e-06
1.60932e-06
4.32363e-06
-8.58105e-07
-9.30487e-08
5.16363e-06
4.17602e-06
-4.86618e-06
-4.22875e-06
4.11421e-06
-2.42003e-06
4.87433e-06
-3.84383e-06
1.54422e-06
9.31702e-07
-1.13842e-06
5.70138e-06
8.40888e-08
-8.01878e-08
7.50652e-06
-5.87818e-06
5.00635e-06
2.89114e-06
1.50855e-06
7.51819e-07
-3.28523e-07
8.20818e-07
-4.56973e-06
1.77695e-07
-1.04649e-06
4.37029e-06
4.86895e-06
-1.06907e-06
8.69635e-07
2.69155e-06
-1.59534e-06
2.43152e-07
-2.04014e-06
1.81299e-06
1.32823e-06
1.08728e-06
4.29444e-06
-3.21449e-06
-2.07316e-06
7.94721e-07
-3.44542e-06
-1.46974e-06
5.63976e-06
-4.1895e-06
-2.45377e-06
-3.16036e-06
-3.46036e-06
-6.5194e-06
-2.67473e-06
-2.39791e-06
-3.32681e-06
-7.71767e-06
-4.47581e-06
-3.3972e-06
2.51325e-06
-3.16248e-06
3.20675e-06
-1.23991e-06
3.15582e-06
-1.42427e-06
5.45663e-06
-4.31478e-06
2.83078e-07
1.60771e-06
2.97041e-06
-6.97255e-07
-3.89462e-06
7.97287e-07
-2.28968e-08
-6.6496e-07
-1.43908e-06
3.84449e-06
-2.88614e-06
-1.54574e-06
3.49092e-06
-2.1833e-06
3.64635e-06
1.36887e-06
-3.29645e-06
-1.7191e-06
2.36897e-06
7.96938e-08
-1.9889e-06
-3.54274e-06
3.10895e-06
-1.18795e-06
-4.76777e-06
1.10391e-06
2.11748e-06
6.72983e-07
-1.79446e-06
-3.53851e-06
-4.96691e-07
-2.87272e-06
-4.23653e-06
2.96427e-06
-6.12186e-07
-5.60636e-07
4.41324e-06
-4.58313e-06
-2.20106e-06
-5.08845e-06
-2.34313e-06
-5.56745e-06
2.40832e-08
6.00255e-07
-3.20332e-06
-7.16434e-06
-2.15085e-06
-4.58031e-07
-6.79902e-06
2.50029e-06
-6.11664e-06
-5.73516e-07
-4.98557e-06
-2.75119e-07
2.47153e-06
-1.81469e-06
-8.74748e-08
3.62404e-06
8.62376e-08
-4.16843e-06
1.64854e-06
3.5866e-06
2.49616e-07
-1.15955e-06
-3.12651e-06
3.33109e-07
8.22586e-07
4.80837e-06
8.27993e-07
-1.79938e-07
-3.93452e-06
-4.43112e-07
-1.73913e-06
-4.16456e-06
-1.16353e-06
1.28905e-08
-4.65806e-06
-4.40225e-07
1.63163e-07
3.99304e-06
-6.46261e-06
-7.81672e-06
3.97242e-06
-4.67196e-06
-5.37418e-07
-6.32386e-06
3.83991e-06
-3.32518e-06
-3.72707e-06
2.95797e-06
-6.82021e-06
-3.41488e-06
-9.63492e-07
-2.25136e-06
-1.33541e-06
-2.51374e-06
6.52777e-06
-4.33083e-06
3.21325e-06
-4.51064e-06
-4.57038e-06
2.18037e-06
-3.7253e-06
2.51625e-06
-3.44281e-06
-2.22917e-06
3.15571e-06
-2.44e-06
2.59884e-06
-3.65375e-06
3.49513e-06
-2.23696e-06
2.83725e-06
-2.61728e-06
2.01692e-06
2.25502e-06
2.8791e-06
-2.5222e-06
-2.61206e-06
5.68154e-06
4.03621e-08
-3.20561e-06
4.20431e-08
3.19949e-06
4.65153e-06
-2.35612e-06
2.45659e-06
2.32882e-06
-2.49351e-06
-3.19893e-06
3.36369e-06
-2.43747e-06
2.28403e-06
-3.001e-06
3.15447e-06
-2.59776e-06
-2.32374e-06
2.23789e-06
2.68362e-06
2.82654e-06
-2.72502e-06
2.55704e-06
-2.65851e-06
5.70652e-06
-2.09696e-07
-3.16797e-06
-2.31086e-07
3.50013e-06
5.37528e-06
-2.75838e-06
2.54643e-06
2.3378e-06
-9.18734e-07
-1.83572e-06
4.1667e-07
-1.55225e-06
-1.21893e-06
1.9865e-06
7.85114e-07
-6.22369e-07
7.75409e-07
1.07224e-07
-2.60682e-07
-3.77979e-07
-8.74447e-07
2.20629e-07
1.03176e-06
2.45983e-06
6.82268e-07
-8.04246e-07
4.86428e-07
4.21124e-07
1.47062e-06
-1.16702e-06
1.33457e-06
3.784e-06
-5.90701e-07
8.19367e-07
-4.01257e-06
-3.29585e-06
6.29583e-08
2.57057e-06
6.62452e-07
1.27369e-06
-1.34208e-06
8.84418e-07
-8.16126e-07
-2.49319e-06
3.86696e-06
3.33968e-06
-4.71328e-06
2.6014e-06
-5.37719e-07
1.72045e-06
-2.37568e-07
-4.56857e-07
2.08682e-06
-5.11756e-06
3.12298e-06
-6.92639e-08
5.91092e-06
-3.24278e-06
-2.05224e-06
4.76262e-06
1.26846e-07
4.89758e-06
-3.18789e-07
-1.69973e-06
-2.73038e-06
5.11451e-06
-3.35701e-07
-2.04841e-06
-2.58317e-06
-2.70231e-06
5.2162e-06
-2.17883e-06
-2.96446e-06
-2.46826e-06
-2.4571e-07
-1.90941e-07
3.60836e-06
2.74751e-06
-3.58019e-07
-4.9e-06
1.82936e-07
2.39332e-06
2.40043e-06
3.38908e-07
2.02338e-06
2.4781e-06
2.54721e-06
2.46724e-06
2.53385e-06
2.41381e-06
1.01068e-07
1.73498e-07
3.01666e-06
-3.06325e-06
3.63082e-06
-4.54029e-06
-3.47131e-06
3.19856e-06
-5.23422e-08
1.26983e-06
-2.56007e-06
3.77011e-07
1.87998e-06
-2.08373e-06
3.76212e-06
1.66044e-07
1.66151e-06
2.43673e-06
-8.49362e-08
4.80159e-07
5.88855e-07
2.25167e-06
-2.57455e-06
1.5384e-06
-1.41729e-07
1.77406e-06
1.43464e-06
-6.99463e-07
1.32402e-06
-2.00588e-06
-3.8165e-06
3.26962e-06
2.41795e-06
-1.03802e-06
-1.84179e-06
2.52591e-06
-2.33177e-06
-3.68053e-06
3.48616e-06
-2.55675e-06
-1.51974e-06
3.01485e-06
-4.21665e-06
7.8448e-07
1.12885e-06
-2.9277e-06
-4.85694e-06
3.08454e-06
-1.20231e-06
-1.92686e-07
1.86238e-06
-9.9271e-07
1.53543e-06
-1.032e-06
-2.02658e-08
-4.13291e-07
1.42957e-06
-9.04837e-07
-1.12234e-07
-9.77222e-07
1.84766e-06
9.20282e-07
-9.54649e-07
1.64181e-06
1.48074e-06
-9.00493e-07
-9.17376e-07
1.58174e-06
1.49841e-07
-2.1054e-06
2.23051e-06
-2.98004e-06
2.85449e-06
1.57114e-06
8.98814e-07
-1.12199e-06
-1.34833e-06
2.68819e-06
-3.06003e-06
-2.32616e-06
2.69789e-06
-2.80355e-06
4.30381e-07
-7.36477e-07
3.10967e-06
-3.84606e-06
1.15781e-06
5.82196e-07
4.59679e-07
-2.73473e-06
-4.52695e-06
2.88111e-06
-1.3791e-06
-1.52328e-06
-5.81573e-08
-1.02846e-06
1.20833e-06
-2.8977e-07
1.74625e-06
-2.15996e-06
-9.46522e-07
6.96856e-07
2.40953e-06
1.05791e-06
5.69526e-06
7.60475e-07
2.14555e-07
1.71962e-06
1.71283e-06
-2.90126e-07
2.17026e-06
6.07164e-07
1.72305e-06
1.30242e-06
-2.11789e-06
4.99553e-07
-4.36232e-06
1.53044e-06
-2.19574e-06
3.78749e-07
7.31251e-07
-4.1569e-07
9.42213e-07
2.12956e-06
1.01414e-06
-1.84124e-06
1.42681e-06
1.85004e-06
1.08107e-06
1.35412e-06
-1.60958e-06
-8.91995e-07
2.32413e-06
1.99603e-06
5.70979e-07
-1.13754e-06
-2.06948e-06
8.9685e-07
-3.18989e-06
-5.82638e-07
9.5752e-08
1.07146e-07
-1.14513e-06
-8.28601e-07
9.57975e-07
2.54628e-06
-4.11251e-06
3.09653e-06
-2.26091e-06
2.58148e-06
1.19295e-06
-5.40433e-07
-7.6376e-07
-2.50838e-06
2.32551e-06
2.52094e-07
-8.69145e-07
3.16323e-06
-9.27791e-07
2.49644e-08
-1.65799e-06
-9.8528e-07
-1.87525e-06
-2.02804e-07
1.06166e-06
7.22304e-07
2.18335e-06
-7.13565e-07
1.46064e-06
-1.86374e-06
-2.07255e-06
1.27766e-06
2.66799e-07
-5.43626e-06
6.64934e-06
-5.06401e-06
3.85073e-06
1.86916e-06
-3.18407e-06
2.1957e-06
-8.80944e-07
2.03445e-06
-4.50429e-06
5.88394e-06
-3.41402e-06
-1.22355e-06
-3.53524e-06
2.68526e-06
2.07331e-06
-5.36846e-06
-3.154e-07
2.47615e-07
5.87255e-07
-4.08652e-06
-5.23586e-06
3.69707e-06
-2.61402e-06
-3.02972e-06
3.66172e-06
-1.86471e-06
1.23264e-06
2.2294e-06
-3.87591e-07
8.01184e-07
2.30076e-06
3.09626e-06
-1.91172e-06
-1.24754e-06
2.49005e-06
2.74068e-06
-4.46142e-06
-1.21068e-06
2.64216e-06
-6.98215e-07
-1.53386e-06
-5.20757e-06
2.74911e-06
-3.95672e-06
1.2764e-06
4.73485e-06
-2.0546e-06
3.6249e-06
2.31589e-06
-5.28287e-07
1.74336e-06
5.18603e-06
-2.25014e-06
-1.25952e-06
1.06468e-06
3.1407e-06
-5.97571e-06
-7.84717e-07
2.80363e-06
-1.9786e-07
-2.153e-06
-6.5862e-06
4.5418e-06
-4.71668e-06
-6.78827e-07
1.57859e-06
3.81688e-06
2.00049e-06
-5.1925e-07
1.89753e-06
1.70672e-06
1.23324e-07
-1.58996e-06
-1.08517e-07
-9.0289e-07
4.29983e-06
-5.71187e-06
-2.20738e-06
3.20255e-06
-3.00512e-06
-7.06301e-07
-6.53357e-07
-1.66274e-06
-7.53154e-07
-6.22182e-06
3.79118e-06
1.23001e-06
-4.49461e-06
-1.23965e-06
-4.00656e-06
-1.69285e-06
2.16377e-06
4.15163e-06
-4.48614e-06
-1.91531e-06
2.25008e-06
1.60838e-06
4.91483e-07
-2.85251e-06
2.24364e-07
2.51407e-06
2.12897e-06
-1.26818e-06
-2.24436e-06
-3.157e-07
-1.2827e-06
-7.13384e-07
5.45811e-06
-1.13266e-06
-1.2291e-06
-2.88669e-06
5.54616e-07
-2.16254e-06
-3.34668e-06
-1.75011e-06
-1.88024e-06
-4.44142e-06
-1.95324e-07
-8.63515e-07
1.09222e-06
-7.03231e-06
4.70044e-06
-5.40914e-06
3.03722e-06
2.76375e-06
-5.19832e-06
6.26398e-07
-2.05856e-06
1.55541e-06
1.82262e-06
-3.61886e-06
2.88816e-06
-4.8548e-06
2.79734e-06
-5.79002e-06
-5.20129e-06
1.72446e-06
-2.02698e-06
5.12514e-06
9.63233e-07
-3.36088e-06
-3.10234e-06
9.00752e-07
1.03182e-05
-1.03672e-05
-2.67126e-06
2.72024e-06
2.25267e-06
8.66133e-06
-8.55218e-06
-2.36178e-06
-9.82853e-06
9.8682e-06
-2.59355e-06
2.55396e-06
-2.50261e-06
9.01994e-06
-8.9797e-06
2.46237e-06
7.29632e-06
1.2362e-05
-9.34004e-06
1.23926e-05
-2.84357e-06
7.29545e-06
2.56393e-06
9.85955e-06
6.97365e-06
1.94337e-06
-6.79245e-06
-2.12459e-06
1.98849e-06
-6.50602e-06
6.864e-06
-2.34652e-06
-7.02914e-06
2.14249e-06
7.40078e-06
-2.5142e-06
-1.89198e-06
1.67819e-06
-6.05649e-06
6.27017e-06
4.97876e-06
8.34494e-06