/*--------------------------------*- C++ -*----------------------------------*\
| =========                 |                                                 |
| \\      /  F ield         | OpenFOAM: The Open Source CFD Toolbox           |
|  \\    /   O peration     | Version:  2506                                  |
|   \\  /    A nd           | Website:  www.openfoam.com                      |
|    \\/     M anipulation  |                                                 |
\*---------------------------------------------------------------------------*/
FoamFile
{
    version     2.0;
    format      ascii;
    arch        "LSB;label=32;scalar=64";
    class       volVectorField;
    location    "900";
    object      U;
}
// * * * * * * * * * * * * * * * * * * * * * * * * * * * * * * * * * * * * * //

dimensions      [0 1 -1 0 0 0 0];

internalField   nonuniform List<vector> 
45248
(
(155.928 55.5521 -834.074)
(58.0556 -70.8434 -1807.79)
(-68.9998 58.2382 -529.057)
(-9.04695 -106.905 -1384.96)
(-30.8098 -111.864 -1825.13)
(-2.70006 -137.88 -1760.27)
(-83.9592 72.9106 -819.285)
(-150.685 -62.4647 -1244.25)
(108.782 -53.9761 -2005.06)
(80.6264 -156.369 -2818.23)
(-95.7207 -67.2541 -1631.17)
(-165.232 -19.2999 -2464.57)
(54.8014 -125.73 -2521.41)
(78.6437 -224.145 -2197.2)
(-123.194 45.9657 -1978.29)
(-104.568 -0.934285 -2032.2)
(-73.8495 -39.5881 -350.76)
(-115.888 -112.079 -784.075)
(-50.8714 -73.7422 -247.288)
(-10.5991 -61.3419 -241.464)
(-84.6768 -88.7672 -487.114)
(24.0651 -112.091 -261.53)
(-73.9974 -89.7744 -344.864)
(-48.1297 -101.887 -325.578)
(95.8966 -68.2545 -567.444)
(-112.226 -15.4125 -1258.84)
(-3.09074 -28.5899 -287.111)
(-14.4762 -11.7182 -346.924)
(27.1954 -19.7291 -889.546)
(82.7187 -179.936 -675.839)
(-46.9927 -29.9365 -397.147)
(-5.94092 -55.8058 -501.401)
(-19.4714 -87.6959 -2255.22)
(-120.555 -167.542 -885.803)
(1.74177 -121.753 -1179.04)
(-127.918 -5.34225 -1876.03)
(-98.6836 103.264 -1411.97)
(-96.8872 -120.723 -1227.82)
(-64.4652 -41.2571 -1735.78)
(81.5976 -140.757 -1038.72)
(28.242 -77.6253 -2210.8)
(-12.334 -185.679 -1629.9)
(-58.1143 -123.521 -1019.87)
(-90.9619 -149.502 -860.404)
(-151.485 27.8037 -1716.97)
(-100.545 43.3273 -1616.15)
(-27.7932 -64.9066 -1018.11)
(-143.252 -98.4245 -1367.3)
(-110.563 9.97585 -308.028)
(-34.1333 -20.8202 -647.595)
(-170.852 -1.1341 -1170.54)
(-19.3396 -50.9758 -329.425)
(-64.104 -112.894 -491.04)
(16.5406 -62.5925 -762.17)
(-15.9391 -111.63 -617.251)
(87.2503 -104.374 -594.131)
(-114.169 -78.4942 -616.619)
(7.18889 -82.0971 -361.756)
(-124.948 -33.0958 -1315.73)
(-158.969 -61.669 -1024.44)
(-39.7715 -98.4798 -414.439)
(50.9354 -205.267 -432.941)
(-165.322 -62.7663 -1041.71)
(-52.585 -136.438 -958.988)
(34.0733 19.175 -1230.58)
(181.803 196.441 46.6928)
(124.368 200.913 -290.894)
(440.02 -147.33 296.148)
(150.465 21.0848 -563.991)
(84.4941 19.0733 77.5631)
(28.6131 97.6609 -834.224)
(-58.4927 -80.9231 -151.279)
(131.409 108.161 102.186)
(-1.8678 83.834 32.1716)
(62.8993 25.3374 -52.3138)
(61.6257 20.2977 -11.0038)
(128.207 38.678 -10.1849)
(27.5484 100.054 -37.8926)
(126.442 -0.013956 -118.598)
(66.0092 22.3045 -3.67435)
(15.047 39.0987 -243.009)
(22.6928 22.6042 -115.931)
(16.9438 10.9431 -133.364)
(41.7342 -0.0113464 -172.115)
(28.3066 9.53056 -189.92)
(5.15339 10.8579 -125.4)
(29.8189 10.9998 -196.358)
(16.7734 4.81056 -110.22)
(139.278 -99.3235 -391.539)
(92.5417 -50.3041 9.39611)
(53.4711 -32.2589 -186.297)
(-14.7393 -32.7647 -415.064)
(94.2226 -28.2223 -222.14)
(136.301 9.20943 -69.269)
(-11.4911 -75.6796 -455.744)
(50.1087 -17.7508 -144.034)
(139.018 80.9053 -77.6629)
(11.0447 44.9823 -350.61)
(220.265 89.6778 -375.607)
(126.198 -5.99366 -98.1004)
(-29.6096 33.181 -373.969)
(-91.272 27.2459 -277.295)
(98.7679 157.228 -42.0024)
(233.56 136.198 -157.305)
(133.053 114.152 -39.2916)
(44.8512 78.6965 -171.141)
(57.7619 55.6896 -61.3572)
(13.8393 -10.6746 -127.08)
(54.6861 25.3088 -131.177)
(86.3518 36.598 -174.35)
(7.38828 -13.2996 -156.556)
(49.3064 19.5225 -133.137)
(7.27218 72.6219 -358.036)
(95.0957 -116.804 -587.094)
(108.092 -7.50103 -170.946)
(69.8781 -24.6661 -200.328)
(50.7935 52.9386 -349.89)
(126.96 32.7002 -209.383)
(56.9399 -9.03142 -189.608)
(117.385 -13.3004 -189.554)
(40.9581 15.9438 -189.347)
(37.3429 -6.77721 -145.536)
(37.975 3.01412 -115.987)
(26.5772 16.3746 -108.704)
(25.7788 9.51396 -190.663)
(63.8813 27.6724 -146.264)
(42.8097 5.41309 -175.964)
(53.9927 18.0985 -156.861)
(-957.739 -506.751 -81.5049)
(-322.352 -274.962 -77.5051)
(-915.854 -657.357 -177.285)
(-479.941 -288.047 -269.284)
(-589.308 -380.741 -143.176)
(-579.54 -454.813 -188.551)
(-854.06 -348.817 -114.742)
(-583.138 -408.522 -205.123)
(-86.5063 -105.075 -196.679)
(-65.303 -93.6063 -204.416)
(-49.6945 -142.16 -455.8)
(-5.25992 -114.436 -219.583)
(-47.9039 -62.7329 -204.841)
(-106.699 -77.9035 -204.253)
(-47.0203 -83.601 -224.296)
(-114.002 -62.845 -193.031)
(-644.926 -684.318 -240.073)
(-96.6106 -445.645 -367.008)
(-480.581 -709.413 -333.641)
(-413.023 -306.998 -1178.31)
(-476.992 -693.657 -580.864)
(-493.244 -795.484 -210.82)
(-512.662 -461.169 -797.985)
(-409.866 -694.567 -290.095)
(-187.21 -111.726 -339.511)
(32.8378 -68.8968 -156.276)
(-249.084 -107.997 -881.8)
(-6.22556 -26.9979 -292.977)
(-129.965 -33.8235 -318.894)
(-156.41 -37.9437 -354.028)
(-112.463 -83.0832 -322.609)
(-187.604 -7.53379 -363.47)
(-197.476 -51.4809 -87.3978)
(-536.999 -530.22 -324.744)
(-355.639 -110.936 -325.26)
(-78.7056 8.79494 -201.704)
(-173.702 -79.8128 -66.9807)
(-401.11 -108.794 -335.757)
(-83.954 -71.6443 -151.682)
(-418.397 -118.94 -365.549)
(-276.408 -183.97 -181.869)
(-122.139 -36.2116 -191.663)
(-266.579 -357.555 -448.783)
(-517.568 -603.9 -338.575)
(-253.341 -137.199 -161.49)
(-56.9998 75.6739 -196.978)
(-354.442 -430.931 -311.503)
(-181.536 -110.961 -360.59)
(-793.506 -380.914 -322.986)
(-301.799 -231.774 -167.189)
(-46.7985 -3.52361 -214.467)
(-275.627 -258.278 -739.348)
(-535.335 -335.742 -582.366)
(-416.02 -121.055 -402.772)
(-388.916 -178.768 -602.564)
(-179.751 63.8044 -235.905)
(-482.676 -562.965 -353.365)
(-434.623 -179.084 -592.784)
(-143.733 -4.82351 -179.33)
(-212.3 -296.01 -393.918)
(-456.858 -378.036 -625.757)
(-426.415 -148.873 -518.321)
(-141.957 -178.175 -392.971)
(-77.8702 -8.9159 -518.028)
(-44.1388 -69.5713 -218.044)
(-109.101 -113.393 -720.911)
(-69.9839 -120.539 -507.804)
(9.48865 -46.1589 -244.111)
(-61.2456 -89.7967 -298.978)
(-94.736 -116.571 -633.621)
(-64.7493 -42.231 -188.482)
(-112.827 -127.265 -561.908)
(-73.6433 -36.7516 -1516.11)
(129.524 -91.921 -2712.81)
(65.3099 -137.801 -2043.57)
(-125.117 103.33 -2236.63)
(-116.598 9.86348 -1862.86)
(50.0973 -144.08 -2328.23)
(-130.637 -73.4872 -1696.84)
(-6.33008 -100.663 -2095.11)
(73.8669 -235.204 -668.716)
(76.9447 -349.231 -1462.32)
(-195.666 -476.055 -657.58)
(-226.253 -37.5067 -1135.5)
(-26.7571 -193.752 -717.012)
(20.0381 -477.831 -1208.04)
(-457.808 -429.975 -957.751)
(-181.74 -449.326 -758.189)
(9.5906 -26.8184 -277.885)
(-70.9656 12.3597 -1209.56)
(-151.976 -7.82304 -849.255)
(0.954075 -56.733 -359.694)
(9.44832 -9.74352 -414.516)
(-138.041 -38.101 -1033.05)
(-135.899 36.4013 -214.822)
(-172.206 6.94225 -931.346)
(-168.334 -95.6222 -968.068)
(-167.589 -137.423 -646.156)
(-22.4501 -55.3794 -290.869)
(-106.934 -43.6509 -1149.93)
(-139.78 -119.877 -794.206)
(-191.535 -127.27 -778.766)
(-79.8312 -126.701 -905.159)
(-79.9208 -93.8334 -827.441)
(-63.2673 -85.2665 -1312.98)
(-181.707 -39.167 -1929.19)
(96.9842 -285.867 -1836.23)
(-2.0094 -116.958 -901.613)
(-67.4677 -90.8999 -1140)
(-42.9108 -157.143 -1580.09)
(-91.4995 -114.535 -998.938)
(-67.5973 -82.3831 -1351.74)
(-162.309 -241.654 -651.6)
(-86.0528 -13.2992 -149.316)
(-182.996 -98.5062 -957.056)
(-377.351 -84.2329 -532.244)
(-149.97 -11.0765 -657.709)
(-130.74 -36.0307 -698.973)
(-152.792 -50.2576 -802.834)
(-196.821 -112.69 -858.967)
(-145.52 -267.606 -698.591)
(-276.042 -86.4404 -1221.59)
(-181.538 -12.2251 -1707.34)
(-47.5545 -199.559 -1547.77)
(-211.132 -196.839 -1146.75)
(-187.366 -141.861 -1474.29)
(-190.288 -173.752 -1113.94)
(-156.033 -36.1544 -1628.38)
(488.537 648.101 -81.5722)
(327.702 -240.582 -185.035)
(854.532 662.228 -431.556)
(456.894 296.991 -146.854)
(442.336 825.564 -176.679)
(537.848 189.731 48.2575)
(447.54 604.711 -245.144)
(922.95 100.569 -482.888)
(312.075 173.49 -1444.44)
(390.435 148.591 -1831.81)
(-280.375 791.419 -835.53)
(390.391 -7.62291 -1710.03)
(320.279 183.949 -1330.76)
(562.645 350.423 -1238.57)
(180.623 255.168 -1436.77)
(427.329 473.245 -1400.95)
(978.65 1063.87 152.444)
(163.873 1659.71 -706.544)
(464.866 2936.3 -293.489)
(244.602 -2686.38 -3112.64)
(1976.34 2398.92 1954.83)
(34.5881 794.228 1132.16)
(762.792 -543.173 -279.712)
(3382.97 1238.36 1422.24)
(634.983 79.3263 -44.0499)
(348.325 210.781 -890.706)
(1191.69 -1218.15 -579.18)
(306.785 224.342 -284.413)
(331.255 -202.256 124.512)
(1019.71 94.1977 -641.65)
(291.832 -147.83 24.1902)
(928.636 226.811 -739.719)
(446.866 -238.142 -339.81)
(853.241 880.139 -473.038)
(370.123 198.691 -273.23)
(43.8083 496.435 -1153.76)
(382.466 367.024 -641.973)
(914.264 -23.7774 -524.756)
(154.555 416.123 -1233.79)
(936.707 -10.493 -506.885)
(1305.09 102.296 -145.217)
(-56.5578 451.162 -1348.36)
(-130.381 1107.33 -411.858)
(594.136 741.852 366.521)
(323.771 446.535 160.49)
(-480.72 203.677 -80.8203)
(438.93 119.143 344.503)
(-934.964 -296.657 201.682)
(-12.2172 431.714 -568.005)
(184.12 -339.299 182.087)
(220.984 635.84 -1126.32)
(-1798.73 -903.267 -324.273)
(941.565 344.871 -950.701)
(847.558 -173.096 -374.471)
(1565.59 1566.24 214.059)
(852.061 205.266 -878.098)
(1616.26 -135.8 -963.199)
(3932.83 -1275.7 213.126)
(61.7388 488.377 -1352.79)
(910.819 943.635 -403.103)
(1607.43 131.398 -1320.35)
(2188.9 700.147 -268.018)
(687.81 1102.14 -18.4662)
(-422.32 1469.63 -989.168)
(4966.87 -26.3354 1661.99)
(301.692 -1042.81 -2017.06)
(5940.2 401.457 7520.58)
(1510.12 509.467 3163.3)
(3763.52 2220.09 5232.18)
(2502.47 898.294 3247.77)
(4443.76 -239.442 6836.7)
(3416.83 744.697 7876.84)
(-161.865 1685.86 268.742)
(301.342 -348.668 -197.234)
(674.216 -2320.67 193.983)
(669.208 499.542 -526.662)
(175.681 -430.753 -370.894)
(325.425 -986.232 156.264)
(664.646 -586.363 -484.837)
(739.109 -762.992 -664.113)
(-1303.77 -3512.46 20455.1)
(1757.25 -2652.31 -64.5573)
(-197.294 -1959.8 6452.26)
(2429.68 2539.85 1568.01)
(2627.03 -2938.61 2059.5)
(-4033.33 -4339 8560.96)
(6587.86 1615.54 5082.44)
(2460 -2028.3 1777.87)
(1317.76 672.924 -1211.62)
(1894.3 376.974 274.021)
(972.832 122.918 187.741)
(101.861 42.0693 -18.0309)
(1031.48 259.112 -678.123)
(1352.85 397.975 -102.341)
(971.245 350.189 -382.724)
(778.166 640.101 -157.455)
(997.733 -158.573 40.0921)
(4608.2 1807 5338)
(1313.12 1052.7 533.58)
(1273.29 -53.5392 -1473.1)
(-752.935 -2785.59 67.9698)
(287.988 -246.15 7114.06)
(1652.72 253.549 -2604.93)
(783.177 -94.6685 5265.25)
(-1063.97 -5557.63 -4088.92)
(842.27 136.751 -1269.36)
(1878.15 -383.483 2499.94)
(-404.273 -6814.51 9506.08)
(-38.0475 -1553.32 1762.79)
(894.48 -290.886 -1438.25)
(895.862 2690.32 1972.1)
(1048.51 -804.674 1302.05)
(9726.69 4286.06 -705.017)
(1912.96 -619.638 -2063.5)
(3123.66 -2428.81 759.207)
(4004.37 4096.48 5303.33)
(2341.3 213.188 1164.89)
(248.881 -145.627 -1858.53)
(869.941 1050.96 -2450.97)
(1265.83 -1300.51 -1891.16)
(-627.88 -4104.7 16537.6)
(534.324 -459.718 -320.397)
(2372.64 -1118.69 -797.893)
(1130.24 -956.853 -1629.03)
(3424.35 1264.13 -9891.91)
(2794 2771.04 -2175.3)
(3786.06 -910.258 -6153.22)
(4031.24 -4553 -329.511)
(1964.24 3872.34 12672.6)
(58.5328 4762.22 13589.8)
(117.335 1945.35 2723.88)
(1333.53 -2360.85 270.586)
(1057.68 4281.16 14628)
(1201.77 7230.35 12964.4)
(-826.087 -314.943 6761.26)
(-940.51 2159.9 7638.95)
(-2593.91 6824.6 13565.8)
(-169.629 -1322.2 2791.53)
(-1343.83 2821.05 -63.0578)
(1296.49 2109.69 -532.192)
(289.834 3518.28 2041.48)
(-1053.99 4548.33 5869.85)
(570.719 4225.45 2296.3)
(-203.7 2105.09 78.6217)
(-120.441 675.643 -344.897)
(-266.542 568.519 -870.932)
(436.909 -21.0035 -1869.75)
(520.94 20.8114 -1728.27)
(-282.392 404.001 -455.211)
(310.867 203.799 -870.713)
(870.901 390.326 -1051.37)
(567.992 246.437 -1533.81)
(877.599 1006.3 -804.633)
(506.099 168.763 -859.55)
(234.196 273.596 -838.853)
(457.75 -38.231 -92.7215)
(1071.74 689.877 -402.73)
(789.522 -308.026 32.6096)
(653.744 -30.1534 -328.162)
(237.908 190.844 -576.165)
(-976.022 5648.69 15371.1)
(1031.42 -500.543 -643.164)
(1504.02 -123.324 -2573.93)
(1896.08 2202.5 626.992)
(-173.198 872.384 6150.06)
(-483.448 -1113.13 3815.41)
(2459.92 -4447.38 955.351)
(1783.31 1097.69 167.635)
(-2896.42 11767 8198.03)
(2691.7 -516.594 -1180.97)
(558.67 1032.21 -1452.09)
(1528.39 2453.74 -770.968)
(-1386.2 4107.74 -3202.94)
(3533.02 1697.37 -335.216)
(2024.17 -385.007 1006.72)
(-1320.49 1126.6 1968.53)
(-169.889 365.21 -1382.42)
(1210.94 736.048 -266.218)
(834.173 1571.42 -968.297)
(501.546 344.539 -1206.13)
(232.754 454.885 -1161.45)
(208.345 1243.87 -581.427)
(497.266 526.28 -1034.05)
(214.999 809.085 -824.391)
(318.607 907.493 -1458.86)
(397.183 3.80204 -1514.32)
(2078.86 972.245 164.491)
(1242.35 504.656 -423.626)
(-51.5734 406.323 -872.815)
(214.888 444.66 -1126.82)
(876.85 493.432 -421.61)
(-3.26969 498.774 -1253.22)
(1265.51 705.212 -480.86)
(587.031 522.707 -282.679)
(846.463 782.646 -421.047)
(194.211 271.56 -740.813)
(510.935 372.898 -101.65)
(541.44 516.7 -331.225)
(255.816 304.974 -792.184)
(706.178 402.531 -606.396)
(661.325 437.847 883.519)
(-78.9458 3930.64 2315.65)
(1262.34 1381.38 1341.37)
(66.5022 765.543 444.419)
(373.533 950.174 -99.3254)
(795.017 2545.08 2141.68)
(166.378 307.907 105.747)
(1314.17 1136.36 1574.91)
(542.181 636.96 -219.964)
(547.282 784.143 -204.748)
(465.852 560.996 -252.885)
(443.647 273.313 -130.185)
(478.537 517.94 -351.418)
(522.166 548.823 -207.465)
(456.086 463.308 -323.245)
(485.595 524.939 -200.034)
(157.255 117.643 -1193)
(460.802 697.334 18.2047)
(461.677 602.438 -1043.19)
(58.6201 155.099 -1625.29)
(85.7266 156.204 -1291.04)
(449.01 464.829 -792.455)
(108.706 173.749 -1371.44)
(436.674 323.686 -881.253)
(510.889 414.093 458.199)
(559.068 494.1 -576.448)
(164.627 233.623 -980.523)
(72.0638 795.949 -438.053)
(579.822 544.564 -426.374)
(676.273 510.294 -560.556)
(161.937 660.135 -280.146)
(446.848 678.716 -624.428)
(491.493 441.633 448.305)
(308.009 955.086 110.063)
(538.271 262.272 -132.708)
(539.951 676.612 -624.601)
(476.309 510.551 -162.156)
(779.156 538.06 140.914)
(665.533 861.663 -471.616)
(442.495 263.285 82.4648)
(577.042 549.11 -715.532)
(169.06 220.835 -1054.41)
(256.927 486.348 -156.607)
(372.812 619.099 -1327.8)
(575.376 505.63 -993.565)
(548.582 379.847 -764.74)
(404.106 649.846 -1118.61)
(463.894 563.41 -565.882)
(630.493 620.473 -635.354)
(856.817 545.085 -100.902)
(537.137 683.063 125.485)
(731.698 643.242 -354.56)
(655.158 588.985 -627.827)
(536.54 662.02 -648.349)
(533.519 682.529 -295.966)
(607.093 847.13 -70.0662)
(-116.675 98.8646 -48.3041)
(-50.4706 66.5379 -2.02288)
(-6.5115 93.6012 -31.0384)
(36.9006 120.84 -63.8487)
(57.9311 140.638 -66.7349)
(67.2054 61.5027 -72.0017)
(24.0691 10.5385 -0.344394)
(74.2328 90.9238 -58.7913)
(47.8545 -78.9123 151.021)
(-139.549 -67.234 367.028)
(108.628 -65.5503 -4.59038)
(60.1931 -94.9997 21.7381)
(-15.6565 -69.0273 77.0058)
(-47.3039 -59.4886 244.009)
(33.9742 -62.3943 57.0956)
(21.246 -71.4701 19.1146)
(48.3928 58.7773 -44.6422)
(118.303 -51.9189 -11.1363)
(68.9573 26.5819 -18.5461)
(70.9902 -38.7401 -75.3931)
(84.0762 16.9382 -15.9508)
(80.342 -21.7097 -4.20985)
(59.7296 21.9446 -58.2532)
(39.5852 -27.6221 -37.7412)
(108.609 65.2602 -38.7832)
(148.056 -54.906 -14.2712)
(79.3162 -32.3405 -59.3875)
(74.1861 -36.068 -115.107)
(115.043 2.48115 -63.5819)
(148.652 -16.5294 -34.9385)
(96.0313 -12.6342 -66.1005)
(74.2553 -45.6207 -59.489)
(105.466 -11.9507 -7.85422)
(72.8255 49.1879 -37.5644)
(108.159 34.2007 -68.402)
(124.518 -31.313 16.368)
(130.987 -20.7422 -6.39889)
(117.544 41.3357 -62.3345)
(141.552 3.52371 -59.6557)
(117.714 27.2831 -71.2797)
(110.728 -63.1669 67.1956)
(107.659 -59.5474 47.6412)
(103.786 -54.1406 61.4916)
(77.9199 20.9013 -43.9018)
(99.9946 -18.8016 30.7951)
(100.99 -45.806 41.2435)
(100.28 -8.71047 13.2164)
(116.373 -39.4153 44.4001)
(68.5108 76.4117 -41.5919)
(88.7108 59.2369 -29.435)
(122.04 -38.1241 -6.30745)
(73.5516 -21.5026 -62.0552)
(98.8188 53.1823 -35.2237)
(88.9099 10.3396 -41.2762)
(123.342 -9.40071 -33.9205)
(113.972 -7.93277 -36.9139)
(76.7547 19.9676 -30.0824)
(71.4402 -50.5223 -45.2865)
(128.519 -76.389 -4.92811)
(114.761 -63.6598 -3.71413)
(101.963 -6.32279 -31.1998)
(127.809 -31.0213 -7.91734)
(108.191 -50.3499 14.7942)
(144.18 -70.4028 -1.7008)
(256.766 28.7259 -528.001)
(1.91672 88.7437 -823.371)
(23.1939 -30.9592 -345.358)
(88.1043 -63.6004 -710.035)
(123.646 7.82306 -381.585)
(85.7815 69.0445 -840.452)
(104.509 -13.8784 -910.921)
(60.9162 95.7076 -834.413)
(309.467 -46.3037 -130.351)
(-5.8612 63.2452 -1382.7)
(60.3989 35.7078 -331.588)
(158.215 -56.1175 -352.499)
(212.344 187.547 -218.978)
(23.3553 69.5535 -1482.32)
(367.765 190.528 -645.97)
(54.8131 171.941 -1033.2)
(28.3812 5.06222 -167.8)
(26.0053 -2.40278 -268.197)
(11.7045 -5.50657 -159.366)
(53.9664 -5.84209 -150.908)
(66.6264 26.2684 -164.931)
(25.615 8.46212 -303.848)
(73.2733 13.8995 -213.487)
(29.2653 17.7209 -241.367)
(25.4804 -70.8739 -521.195)
(17.417 -29.0886 -526.854)
(54.6743 -16.7253 -177.601)
(-11.9074 -9.20302 -396.159)
(-4.64658 -28.849 -505.796)
(7.0583 -124.095 -508.754)
(-22.0407 -29.5486 -455.666)
(10.6756 -70.1113 -381.138)
(8.42148 187.065 -798.229)
(16.5439 -1.69613 -239.322)
(84.0511 -50.8766 -661.637)
(56.3552 25.3281 -541.205)
(64.7693 66.534 -639.744)
(72.5272 37.4839 -543.683)
(77.3527 23.7812 -531.542)
(49.1812 -49.6519 -542.637)
(83.9767 -34.0766 -1175.18)
(-81.1056 10.0368 -621.532)
(33.3881 44.8923 -588.804)
(49.447 -17.2253 -428.415)
(61.6043 -1.4081 -911.681)
(54.2779 -66.4475 -690.133)
(120.694 -22.4899 -129.892)
(137.06 74.4865 -181.466)
(61.4806 23.8219 -285.534)
(12.2559 -75.3744 -645.086)
(41.3703 -9.50307 -524.437)
(60.0035 -11.6081 -212.145)
(11.941 15.77 -213.834)
(9.09001 -57.6868 -565.501)
(74.4976 -46.442 -188.19)
(10.1791 -63.9836 -465.375)
(38.1263 2.09764 -371.065)
(38.4402 -18.2957 -187.903)
(-59.3444 11.3874 -500.033)
(4.23908 80.3813 -458.986)
(44.5712 -42.7231 -276.948)
(13.8865 -31.8044 -217.564)
(193.855 66.2734 -292.298)
(140.142 5.24475 -198.761)
(-1079.25 -402.085 -109.187)
(-1073.4 -566.145 -157.163)
(-1260.9 -263.568 -35.8523)
(-715.402 -133.319 -311.723)
(-1120.61 -406.042 -127.862)
(-1190.25 -474.007 -152.065)
(-813.829 -247.636 -139.974)
(-1124.62 -289.975 -138.571)
(-930.788 -679.369 -224.39)
(-381.566 -853.666 -328.023)
(-1006.01 -745.377 -314.667)
(-515.369 -24.3045 -568.835)
(-813.498 -600.112 -229.047)
(-786.997 -694.059 -321.668)
(-725.271 -420.875 -320.253)
(-761.208 -657.205 -364.665)
(-1296.29 -183.598 -195.536)
(-1124.89 -344.942 -244.079)
(-1191.27 456.446 94.1194)
(-644.852 68.3249 -618.493)
(-1360.29 -179.504 -341.559)
(-1423.72 -218.711 -337.691)
(-615.619 -192.33 -936.215)
(-1156.59 143.13 -651.278)
(-208.262 -36.6733 -322.547)
(-347.048 56.8351 -625.14)
(-166.971 85.0627 -437.116)
(21.0059 10.8772 -282.943)
(-194.644 3.66492 -310.201)
(-408.117 126.74 -654.337)
(66.1231 1.05574 -275.549)
(-137.926 86.6559 -375.324)
(-1079.31 -520.482 -187.748)
(-1273.12 -266.068 -127.388)
(-779.545 -97.1616 -352.523)
(-733.711 -71.3975 -574.369)
(-849.108 -309.146 -237.218)
(-883.232 -262.849 -269.048)
(-729.524 -160.274 -516.182)
(-853.629 -119.513 -454.931)
(-1107.41 -563.094 -221.159)
(-766.271 -31.8704 -557.225)
(-1135.03 -464.074 -320.653)
(-1316.77 -318.585 -150.71)
(-918.227 -402.982 -202.087)
(-789.091 -217.235 -434.258)
(-1187.7 -483.428 -145.648)
(-1128.71 -334.958 -280.961)
(-721.17 -83.7599 -96.6787)
(-405.44 -155.565 -257.189)
(-669.486 -57.33 -568.776)
(-294.782 184.526 -480.018)
(-731.983 -45.4826 -390.922)
(-742.88 -28.3038 -402.301)
(-742.176 66.4786 -525.118)
(-544.572 23.9244 -586.577)
(-1135.7 -213.522 -153.451)
(-461.049 139.112 -548.187)
(-563.292 -110.612 -595.82)
(-866.618 -195.055 -356.648)
(-850.745 -106.621 -296.896)
(-876.473 6.23047 -579.107)
(-905.486 -124.683 -290.254)
(-715.925 -167.235 -517.762)
(-53.3777 23.5152 -2259.43)
(-123.745 124.113 -2485.76)
(349.117 -93.4879 -951.309)
(-94.1185 80.4748 -1403.13)
(-77.4052 56.938 -2538.48)
(-51.4964 -126.268 -2441.2)
(-100.063 138.385 -1620.61)
(-54.1408 -76.9217 -2117.84)
(-166.997 37.9422 -3550.71)
(57.5333 -54.5012 -3264.95)
(71.6207 -119.066 -2339.46)
(-249.959 268.856 -3233.27)
(-93.3713 -23.9449 -3855.03)
(64.0244 -180.55 -2856.49)
(-225.683 102.468 -3300.59)
(59.5514 -102.782 -2978.22)
(-0.918174 42.9454 -2999.93)
(-35.345 -49.9751 -2401.17)
(258.682 -97.7302 -1144.4)
(-184.69 90.5567 -2079.73)
(-76.4385 35.2427 -3472.57)
(78.0302 -126.299 -3107.06)
(-187.304 143.88 -2177.21)
(-56.105 -111.53 -2790.94)
(-71.4615 22.3312 -843.606)
(-144.617 125.392 -1759.6)
(29.8546 -94.1237 -758.559)
(-42.4515 -4.61018 -283.372)
(-50.5523 22.5317 -605.323)
(-71.8815 -38.4823 -1505.33)
(-59.1527 -8.74159 -257.798)
(-39.3043 -8.34338 -1181.08)
(-163.11 250.356 -2326.29)
(288.449 -154.868 -950.318)
(-119.25 99.065 -1370.16)
(-62.7924 111.459 -2018.86)
(-185.731 -30.0086 -2187.06)
(-23.953 -84.4642 -2086.57)
(-56.5829 40.775 -2030.37)
(-54.021 -37.197 -2060.15)
(-132.745 269.885 -2955.25)
(-140.96 117.944 -2255.23)
(-22.3403 -90.1156 -2810.57)
(8.32587 352.889 -1732.4)
(-189.604 140.959 -2546.68)
(-274.187 271.741 -2594.27)
(-243.172 96.3268 -3116.96)
(-190.105 66.9299 -3478.08)
(133.751 -255.636 -811)
(-51.8086 4.61291 -820.181)
(-102.281 85.3258 -1774.92)
(34.8741 -81.1612 -654.328)
(143.174 -79.8729 -736.451)
(-45.7311 -15.8693 -1690.01)
(102.482 -86.1069 -781.487)
(-90.4526 -33.8886 -1638.63)
(-65.3754 -128.817 -1109.34)
(-65.6338 10.3129 -773.23)
(-212.918 176.983 -2011.98)
(15.6865 10.7334 -2748.02)
(-123.834 111.407 -1236.69)
(10.2425 -50.6788 -857.944)
(-204.524 157.36 -2567.46)
(-256.817 129.798 -2400.5)
(-372.494 -655.325 -425.433)
(5.20746 -224.353 -1293.25)
(-812.588 -626.06 -543.157)
(-510.545 66.8464 -507.686)
(-300.848 -353.566 -886.02)
(-170.488 -578.35 -893.889)
(-458.135 -278.677 -675.952)
(-686.191 -374.531 -678.202)
(84.1958 -88.7091 -1972.19)
(53.4373 -83.8911 -3072.08)
(56.0124 38.3594 -1975.99)
(-95.7114 -28.1499 -2648.27)
(-24.5856 -1.61172 -1873.78)
(-28.9885 -121.49 -2161.11)
(0.487538 97.4012 -2127.03)
(36.5443 -63.924 -2188.98)
(-1055.51 -174.085 -515.533)
(-342.313 103.017 -1172.92)
(-1399.73 453.601 220.559)
(-695.602 49.9055 -707.289)
(-699.766 -41.218 -1122.66)
(-591.032 -26.1391 -857.654)
(-871.293 203.499 -695.599)
(-1146.26 460.739 30.2882)
(-360.675 104.311 -635.383)
(-138.485 -12.0442 -1340.39)
(-155.108 72.6664 -718.723)
(94.4291 -48.0313 -422.735)
(-189.479 39.1453 -745.4)
(-167.559 147.606 -1100.64)
(27.3277 -8.21656 -258.008)
(-71.804 65.3654 -755.89)
(-117.523 -111.009 -1249.46)
(-478.099 -94.4061 -836.253)
(-248.509 5.07535 -962.168)
(-213.383 72.9141 -1495.62)
(-244.837 -40.5226 -1423.07)
(-292.059 -20.3129 -1352.63)
(-295.565 4.15304 -1611.5)
(-338.098 102.092 -1269.49)
(2.71554 -209.517 -1430.75)
(-219.596 11.4787 -2071.7)
(-146.713 -37.8209 -1813.99)
(-504.794 -203.759 -573.291)
(-127.096 -126.848 -1040.24)
(-169.846 22.3319 -1976.18)
(-208.617 -159.269 -1055.79)
(-224.883 -41.6617 -1828.42)
(-747.551 -20.5869 -578.372)
(-541.566 -224.627 -753.418)
(-159.598 34.6372 -1135.18)
(-265.703 133.229 -771.943)
(-701.319 -137.431 -555.645)
(-377.397 -12.7021 -1151.25)
(-252.204 175.768 -795.802)
(-150.124 -3.16586 -1132.52)
(-805.523 -84.2557 -427.378)
(-338.052 128.164 -873.003)
(-162.673 24.8926 -1577.58)
(-168.315 -135.334 -1419.41)
(-390.17 15.804 -1418.96)
(-373.467 -69.1731 -1058.51)
(-314.781 19.7033 -1614.08)
(-245.933 27.2578 -1456.52)
(765.3 987.116 -963.072)
(148.29 631.443 -240.48)
(-296.073 621.914 215.185)
(-680.668 461.946 -155.692)
(682.725 781.886 -103.889)
(149.484 1361.74 -113.524)
(291.605 1059.8 -345.498)
(284.891 632.958 -656.258)
(-288.624 328.886 -781.793)
(-400.418 -179.176 -747.12)
(-302.024 506.686 -290.652)
(-247.561 535.785 -596.364)
(-457.443 326.101 -884.065)
(-524.551 109.139 -769.599)
(-59.8343 494.264 -745.852)
(-44.4399 222.122 -564.782)
(674.334 -1065.46 717.954)
(574.873 -375.169 -604.489)
(-103.918 -451.096 -455.654)
(-351.382 -131.18 -1503.81)
(557.544 -575.957 561.319)
(609.992 -411.923 -233.025)
(-598.451 -500.116 -850.173)
(-377.059 94.6518 -880.882)
(-225.006 664.681 -964.57)
(38.3026 730.335 -685.379)
(282.028 -357.667 -2014.98)
(283.914 66.0187 -2519.64)
(-14.4279 817.645 -641.119)
(87.3556 973.543 -683.15)
(170.752 -294.861 -2508.91)
(58.1935 163.988 -1684.83)
(17.4171 910.352 -440.842)
(28.856 180.347 -1004.3)
(58.4248 568.275 -381.869)
(-320.492 548.095 -505.575)
(-73.5035 501.514 -509.748)
(-176.197 781.559 -812.045)
(-127.53 625.454 -273.506)
(-371.952 588.299 -386.628)
(-323.508 704.226 -480.128)
(-233.724 412.312 -515.67)
(432.015 52.0444 -611.061)
(-425.103 406.436 -352.106)
(-351.351 454.82 -624.133)
(-121.442 376.493 -435.648)
(-192.101 497.918 -1001.64)
(-247.267 571.511 -994.071)
(-94.61 -1871.58 -503.964)
(-390.791 942.848 225.398)
(-385.21 986.309 -317.217)
(-16.7142 -606.466 -1847.12)
(-664.043 662.309 -455.278)
(-596.594 1090.81 -49.3258)
(-310.03 1305.76 -844.149)
(-183.731 705.924 -278.58)
(-605.532 1100.87 -357.065)
(-808.099 697.388 -1179.36)
(-31.3573 769.288 -474.371)
(938.179 -473.042 -588.432)
(257.566 -542.113 -249.472)
(-362.852 262.366 -784.939)
(271.495 1125.45 -764.203)
(-549.219 1092.35 -854.129)
(426.763 2094.48 -1706.23)
(422.385 385.649 792.269)
(403.615 1550.23 567.272)
(179.502 1150.19 -242.152)
(465.048 1633.64 511.885)
(1092.12 887.906 1468.7)
(-535.188 1388.68 -298.067)
(271.106 1039.54 437.835)
(955.985 490.739 1113.61)
(892.038 504.538 1245.78)
(360.145 303.018 -837.666)
(347.195 360.776 -956.142)
(676.347 403.054 484.686)
(861.687 528.625 1128.05)
(347.168 237.177 -254.902)
(283.42 217.029 -1040.27)
(88.135 739.775 824.444)
(117.549 426.196 259.748)
(-7.11487 285.575 421.449)
(-129.75 457.988 176.301)
(-16.6104 408.166 347.196)
(-110.533 186.257 576.318)
(36.1544 735.22 147.003)
(-65.4745 231.571 152.743)
(166.786 576.933 -1056.6)
(171.526 195.438 -999.477)
(-3.04331 23.0584 -53.9266)
(265.602 -0.382754 -2495.43)
(296.439 604.697 -1383.88)
(15.1247 378.828 -918.976)
(149.709 276.748 -1615.46)
(-55.0367 162.136 -875.762)
(318.43 360.992 839.101)
(43.3943 732.199 742.446)
(37.6724 808.889 -134.193)
(162.692 463.148 -956.94)
(-1135.07 -98.5039 -219.061)
(-359.881 299.741 572.087)
(605.153 645.849 -503.966)
(75.8963 558.03 528.295)
(923.492 548.562 844.071)
(97.6662 214.864 -639.408)
(390.904 388.845 -296.203)
(-69.37 648.99 1198.07)
(-122.606 137.075 -669.306)
(365.487 373.198 -213.425)
(400.473 359.806 106.735)
(234.256 327.267 -179.795)
(144.415 957.73 -58.7733)
(-25.5442 762.48 -748.838)
(118.403 339.314 -863.041)
(33.7035 489.748 -69.7732)
(163.289 314.698 378.831)
(119.058 546.822 -263.522)
(71.6283 440.725 -16.1517)
(39.8232 606.208 -637.612)
(-55.3271 449.227 313.185)
(-98.7883 379.593 -109.1)
(112.674 186.815 -549.799)
(252.586 470.081 -386.436)
(-1.74081 491.474 38.1498)
(-96.2677 366.58 -157.579)
(13.5431 396.209 -149.554)
(127.69 251.137 -335.676)
(-472.077 -485.105 2868.02)
(1673.32 628.738 -1021.47)
(235.213 -180.007 2431.59)
(879.416 151.273 255.608)
(945.406 -246.43 496.896)
(-234.661 164.514 1775.98)
(1439.82 -640.705 1559.13)
(122.517 -986.116 2457.74)
(191.879 421.174 292.327)
(482.709 584.004 -151.062)
(779.438 758.227 -279.53)
(425.284 414.855 -149.773)
(453.098 583.786 -125.863)
(436.101 437.007 -119.609)
(409.825 650.817 -66.915)
(605.896 648.566 -231.325)
(-500.17 1147.13 3779.05)
(934.004 737.032 293.977)
(12.3936 4756.75 2799.2)
(648.78 1802.62 1586.78)
(-218.025 1595.33 3027.93)
(-931.246 -4630.62 4012.31)
(-37.189 5541.47 2879.59)
(245.344 1902.22 2491.7)
(837.236 -561.736 324.467)
(325.736 -142.018 -52.2433)
(140.952 -289.003 1218.63)
(294.81 -147.838 119.712)
(330.205 -199.828 -25.7311)
(421.952 -116.118 74.3422)
(406.889 -1.73662 -250.1)
(496.866 26.042 -327.963)
(372.16 532.2 296.27)
(814.627 -270.626 1825.87)
(768.769 149.758 172.119)
(181.44 -303.59 178.855)
(746.83 831.387 -134.031)
(616.075 -1140.07 1549.1)
(240.152 -363.403 -129.467)
(758.701 184.314 649.443)
(860.336 408.359 -213.672)
(104.392 -147.901 36.4395)
(276.915 1192.99 -382.587)
(1368.54 -1197.57 1395.18)
(679.578 507.158 59.4051)
(693.389 725.972 -160.062)
(1092.72 452.326 87.7401)
(1121.24 588.851 -170.823)
(311.032 645.347 3005.35)
(843.332 219.879 73.348)
(512.957 -120.925 170.508)
(944.381 727.165 1168.22)
(774.209 483.012 1109.45)
(508.639 205.635 732.326)
(1029.62 424.073 30.493)
(-57.2587 -189.458 394.429)
(-475.347 -38.2412 2630.73)
(573.266 563.773 945.82)
(395.456 -137.9 353.497)
(310.818 425.549 -321.932)
(2532.32 -1892.83 515.667)
(624.566 -253.554 833.434)
(2325.44 292.492 1453.47)
(522.634 153.217 934.485)
(-178.953 64.0242 219.346)
(-103.589 63.4757 135.258)
(-95.9483 15.7191 160.989)
(-54.085 72.4822 197.031)
(-104.673 48.611 195.135)
(-104.263 44.6007 187.646)
(-94.4169 41.9758 180.446)
(-92.1144 47.5866 181.314)
(-2.31856 53.063 77.7266)
(-13.5111 47.6035 72.7158)
(-16.2866 77.5701 117.914)
(15.0659 16.3172 44.885)
(-2.64846 54.8623 80.0807)
(-14.5668 66.9433 124.476)
(-12.426 64.7471 61.8327)
(-10.6989 56.247 87.8356)
(-83.3503 7.04508 164.422)
(-37.8914 46.6909 140.47)
(-65.2538 20.3414 160.849)
(-43.7921 58.4667 139.824)
(-71.9216 32.2497 157.673)
(-69.0648 11.853 158.239)
(-66.2541 48.6808 164.311)
(-64.2481 29.4503 154.022)
(8.1138 48.9354 131.074)
(29.5518 17.2163 33.1541)
(-5.79651 62.7804 102.593)
(28.2984 51.5092 15.8238)
(31.3592 59.0983 91.7996)
(1.22219 76.2357 121.184)
(0.253247 23.6062 27.6587)
(-4.70952 62.4945 85.9434)
(-65.1631 72.0305 134.893)
(-80.9874 36.3861 169.977)
(-30.3852 61.7265 163.828)
(-13.1571 63.5041 74.3039)
(-68.8409 62.5112 141.163)
(-76.3459 60.2549 192.922)
(-45.6877 68.9598 79.0941)