/*--------------------------------*- C++ -*----------------------------------*\
| =========                 |                                                 |
| \\      /  F ield         | OpenFOAM: The Open Source CFD Toolbox           |
|  \\    /   O peration     | Version:  2412                                  |
|   \\  /    A nd           | Website:  www.openfoam.com                      |
|    \\/     M anipulation  |                                                 |
\*---------------------------------------------------------------------------*/
FoamFile
{
    version     2.0;
    format      ascii;
    arch        "LSB;label=32;scalar=64";
    class       volScalarField;
    location    "50";
    object      k;
}
// * * * * * * * * * * * * * * * * * * * * * * * * * * * * * * * * * * * * * //

dimensions      [0 2 -2 0 0 0 0];

internalField   nonuniform List<scalar> 
43136
(
0.00393006
0.00392225
0.00396382
0.00385268
0.00391093
0.00394166
0.00391309
0.00393482
0.00392251
0.00391776
0.00395287
0.00385432
0.00390931
0.00393381
0.00391658
0.00393087
0.00398752
0.0039903
0.00400167
0.00387362
0.00396903
0.00400282
0.00395828
0.00398247
0.00380214
0.00380273
0.0038133
0.0037814
0.00379576
0.00380628
0.00379847
0.00380527
0.00390132
0.00394474
0.0038364
0.00383694
0.00390733
0.00392739
0.00385097
0.00385278
0.00393571
0.00385389
0.00397321
0.00397597
0.00392535
0.00392174
0.00395674
0.00394007
0.00393975
0.0038384
0.00383948
0.00385467
0.00386251
0.00384993
0.00385563
0.00384659
0.00396161
0.00386434
0.00385063
0.00395899
0.00395009
0.00386841
0.00394106
0.00386462
0.00377149
0.00381263
0.0037969
0.00378827
0.0037779
0.00379011
0.00378372
0.00379326
0.00388329
0.00397262
0.00394485
0.00392945
0.00390527
0.00394332
0.00392026
0.00395808
0.00384931
0.0039349
0.00393305
0.00388464
0.00386713
0.00392398
0.00388395
0.00393499
0.00380591
0.0038705
0.00384408
0.00382471
0.00381497
0.00383402
0.00382157
0.00383754
0.0038266
0.00380824
0.00379604
0.00385845
0.00383851
0.00380272
0.00384519
0.00381226
0.00385365
0.00388698
0.00392805
0.0038396
0.00386198
0.00387488
0.00385741
0.00387619
0.00381823
0.00380208
0.00386684
0.00384286
0.00382146
0.00381637
0.00383248
0.00382595
0.00384658
0.00387114
0.00389256
0.00393937
0.00385634
0.003865
0.0038914
0.00389616
0.00391664
0.00393517
0.00395745
0.00386001
0.00391225
0.0039437
0.00389648
0.00393688
0.00396018
0.00404115
0.00408397
0.00388991
0.00395711
0.00403371
0.00393381
0.00402798
0.00401211
0.00411106
0.00410176
0.00392266
0.00401384
0.00409133
0.00398273
0.00407908
0.00381797
0.00382541
0.00383548
0.00379049
0.00381348
0.00382747
0.0038072
0.00382391
0.00392809
0.00395329
0.0038528
0.00386347
0.00391065
0.00391827
0.00387223
0.00387955
0.00396536
0.00389342
0.00406369
0.00399279
0.00396348
0.00393697
0.00400093
0.0039924
0.00393366
0.0038428
0.00385095
0.00386942
0.00389162
0.00387315
0.00388546
0.00385605
0.00398752
0.00391089
0.00389094
0.00405545
0.00396337
0.00391733
0.00396349
0.00391081
0.0188665
0.0178291
0.0179152
0.0115211
0.0173902
0.0180027
0.0167771
0.0173676
0.0171313
0.0161236
0.0165679
0.00993015
0.0154383
0.0162875
0.0151348
0.0156182
0.0180623
0.0174074
0.0170839
0.011121
0.0169866
0.0176601
0.0163541
0.0166193
0.00555128
0.00556076
0.00659914
0.00412234
0.00511252
0.00603598
0.00522856
0.00591084
0.016548
0.0174127
0.0110241
0.0111685
0.0160078
0.0167175
0.0126821
0.0117229
0.0173277
0.011056
0.0176486
0.0181161
0.0167596
0.0166647
0.0176094
0.016957
0.0169305
0.010921
0.0109766
0.01111
0.0115916
0.0112554
0.0112443
0.0110922
0.0175342
0.0111365
0.0108422
0.0166278
0.0166702
0.0112151
0.0162384
0.0108522
0.0159708
0.0157703
0.0172834
0.00891781
0.015525
0.0163543
0.0158363
0.0163383
0.0167938
0.0176615
0.0172089
0.00903015
0.0161386
0.0169726
0.0155672
0.0160405
0.0194914
0.0174393
0.0191429
0.0096741
0.0184949
0.0192875
0.0176211
0.0182277
0.00497453
0.0051143
0.00588638
0.0040745
0.00479516
0.00536691
0.00486344
0.00522016
0.0155409
0.0179669
0.00793358
0.00875251
0.0156361
0.0177304
0.00946182
0.00934712
0.016346
0.00931023
0.0171983
0.0188718
0.0163001
0.0158981
0.0173315
0.0163319
0.0176501
0.00793523
0.00876234
0.0094326
0.00939779
0.00867138
0.00934725
0.00867763
0.01866
0.00961934
0.00905988
0.0161955
0.0178952
0.00967006
0.0157869
0.00911056
0.00404336
0.00402826
0.00408542
0.00388637
0.00399767
0.00405735
0.00399486
0.00403417
0.00398026
0.00393906
0.0039963
0.00386808
0.003946
0.00396451
0.00394998
0.00396639
0.00410916
0.00403325
0.0041095
0.00391871
0.00404016
0.00406974
0.00404474
0.00405748
0.00382224
0.00381217
0.00383215
0.00378773
0.00381217
0.00382319
0.00381431
0.00382239
0.00397514
0.004017
0.00387316
0.00386273
0.00397517
0.00398712
0.00387818
0.00389087
0.00400886
0.00388169
0.00401814
0.00406933
0.00398553
0.00396218
0.00402368
0.00399061
0.00402308
0.00387598
0.00386847
0.00389374
0.00390278
0.0038879
0.00388826
0.0038739
0.00405246
0.00390654
0.0038799
0.00400359
0.00401534
0.00390828
0.00400089
0.00389412
0.00375473
0.00377502
0.00377367
0.0037601
0.00375767
0.00376584
0.00375987
0.00376774
0.00382666
0.0038983
0.00390307
0.00384162
0.00384008
0.00387747
0.00384543
0.00388172
0.00382362
0.00390024
0.0039082
0.00383989
0.00383634
0.00387868
0.00384584
0.0038808
0.00376781
0.00379652
0.00379405
0.00377627
0.0037727
0.00378384
0.00377571
0.00378481
0.00378381
0.0037818
0.00376446
0.00379471
0.00378861
0.00377318
0.00378691
0.00377508
0.00380777
0.00381952
0.003879
0.00380669
0.00381002
0.00381957
0.0038197
0.00383384
0.0037866
0.00376735
0.00379831
0.00379542
0.00378395
0.0037765
0.00379083
0.00378235
0.0038089
0.00381491
0.00381897
0.00387798
0.00381782
0.00381478
0.00384216
0.00383777
0.00377783
0.00381521
0.00381256
0.00378663
0.0037825
0.00379389
0.00378934
0.00379863
0.00388002
0.00396567
0.00394378
0.00389894
0.00389989
0.00392034
0.00391137
0.00392595
0.00386195
0.00392376
0.00391118
0.00384845
0.00387013
0.00389197
0.00388298
0.00389317
0.0037909
0.00383089
0.00380962
0.0037923
0.00379383
0.00380404
0.00379717
0.00380389
0.00382889
0.0038199
0.00378938
0.00383607
0.00383966
0.00380818
0.0038285
0.00380105
0.00384605
0.00385349
0.0038971
0.00383869
0.00385223
0.0038654
0.00386851
0.00387739
0.00382971
0.00379415
0.00384011
0.00382252
0.00381144
0.00380221
0.00381665
0.00381029
0.00384324
0.00383224
0.00385211
0.00390197
0.00385717
0.00383337
0.00388917
0.0038642
0.0180788
0.0185766
0.0189922
0.0110733
0.0168339
0.0190799
0.0163621
0.0184278
0.018065
0.014923
0.0170673
0.0110682
0.0180948
0.016087
0.018231
0.0163875
0.0188491
0.0182724
0.0190306
0.0107
0.0197695
0.018941
0.0191304
0.018495
0.00500748
0.00505107
0.00542989
0.00409457
0.00468879
0.00527979
0.00472274
0.00520026
0.0175706
0.0173219
0.0103844
0.00987717
0.0180538
0.017466
0.0103966
0.0104227
0.0184439
0.0114389
0.0179661
0.0189931
0.0183189
0.0195657
0.0187352
0.0197167
0.0172019
0.0102107
0.00981839
0.00955938
0.0102273
0.0101954
0.00975224
0.00967207
0.0185026
0.010861
0.0110968
0.0177009
0.0194071
0.0111748
0.0192219
0.011139
0.00376062
0.00376271
0.00375441
0.00378219
0.00376731
0.00376056
0.00377014
0.00376618
0.00376411
0.00376426
0.00375537
0.00378127
0.0037709
0.00376252
0.00377405
0.00376839
0.00375213
0.00375263
0.00375113
0.00376315
0.00375522
0.00375221
0.00375631
0.00375431
0.00382054
0.00381652
0.00379893
0.00386172
0.00383356
0.00382016
0.00383955
0.00383387
0.00376953
0.00375884
0.00379611
0.00379747
0.00377364
0.00377491
0.00378288
0.00378546
0.00376189
0.00378583
0.00375467
0.00375423
0.00376893
0.00377712
0.00375529
0.00376054
0.00376031
0.00380112
0.00380285
0.00378322
0.00377
0.00379602
0.00377983
0.0038092
0.00375763
0.00377832
0.0037958
0.00375886
0.00376261
0.00377071
0.00376271
0.00376987
0.00376743
0.00376214
0.00380233
0.00377937
0.0037694
0.00377021
0.00377533
0.00377638
0.00375862
0.00376119
0.00380125
0.00376769
0.00376166
0.00376492
0.00376663
0.00377038
0.00386325
0.0038679
0.00394386
0.00389514
0.00388368
0.00388774
0.00390365
0.00390759
0.00378487
0.00377662
0.00382749
0.00378839
0.00378271
0.00378321
0.00378869
0.00379102
0.00376223
0.00381144
0.00377653
0.00377059
0.00376694
0.00377524
0.0037689
0.00377561
0.00376404
0.00377292
0.00381326
0.00381647
0.00376954
0.00377307
0.00379827
0.00380567
0.00382488
0.00378239
0.00377606
0.00383306
0.00382218
0.00378406
0.00382174
0.00378393
0.00382824
0.00383935
0.00377953
0.00382314
0.00382884
0.0038267
0.00381651
0.00381482
0.00377908
0.00382216
0.00377782
0.00382224
0.0037983
0.00380759
0.00380382
0.00381557
0.00386814
0.00392235
0.00384463
0.00392734
0.00389371
0.00390079
0.00389992
0.00391295
0.00377017
0.00379218
0.00376595
0.0038014
0.00378309
0.00378163
0.0037811
0.00378413
0.0038762
0.00393135
0.0038657
0.00395143
0.00389993
0.00390999
0.00391039
0.00392554
0.00384328
0.00379642
0.00384293
0.00389605
0.00385171
0.00382654
0.00387182
0.00385341
0.0038516
0.00390432
0.00382971
0.00379513
0.00386345
0.00387653
0.00381146
0.00383115
0.00379626
0.00384963
0.00390484
0.00383762
0.00381276
0.00386089
0.00383285
0.00387698
0.00379953
0.00384262
0.00391545
0.00383181
0.00380764
0.00383384
0.00382796
0.00384963
0.00376547
0.00376193
0.00376426
0.00380942
0.00377486
0.00376544
0.00379126
0.0037816
0.00376061
0.0037602
0.00375867
0.00379596
0.00376839
0.00376215
0.00377843
0.00377104
0.00375956
0.00375624
0.00375824
0.00379773
0.00376588
0.00375737
0.0037775
0.00376511
0.0038606
0.00385433
0.00386223
0.00392697
0.00387468
0.0038644
0.00389655
0.00388534
0.00377057
0.00377461
0.00382114
0.00381402
0.00378264
0.0037906
0.0038023
0.00381125
0.00376342
0.00380269
0.00375855
0.00376146
0.00377532
0.00378218
0.00375969
0.00376718
0.0037843
0.00383869
0.00383164
0.00383657
0.00380665
0.00382954
0.00381963
0.00384078
0.00377314
0.00381621
0.00381985
0.00376569
0.00377845
0.00379985
0.00377487
0.00379433
0.00398642
0.00394065
0.00389449
0.00397287
0.00396714
0.00393039
0.00394826
0.00391172
0.00388126
0.00382555
0.0038062
0.00386071
0.00385415
0.0038243
0.00384733
0.00381409
0.00381811
0.00378789
0.00377251
0.00381321
0.00380232
0.00378553
0.00379617
0.00377832
0.00395815
0.00391428
0.00387597
0.00395586
0.00394403
0.00390999
0.00392882
0.00389327
0.00391708
0.00387894
0.00395043
0.00390062
0.0039061
0.00389691
0.00392724
0.00391636
0.00387596
0.0038608
0.00380356
0.00384359
0.00386012
0.00384363
0.00384705
0.00383006
0.00386723
0.00393506
0.00389123
0.00385377
0.00388252
0.0038988
0.00386464
0.00388403
0.00382895
0.00382455
0.00384785
0.00379462
0.00381641
0.00383659
0.00382287
0.00383806
0.00392836
0.00398596
0.00396773
0.00388422
0.00392845
0.00395707
0.00391005
0.00394558
0.00411159
0.00428425
0.00420352
0.00397283
0.00411817
0.00424665
0.00405796
0.00422531
0.00401623
0.0040899
0.00402126
0.00392393
0.0040142
0.00406511
0.00397695
0.00404304
0.00384052
0.00386006
0.00384866
0.00380309
0.00383586
0.0038537
0.00382279
0.00384595
0.00398591
0.00396716
0.00387933
0.00391699
0.00395757
0.00393154
0.0039226
0.0039026
0.0040385
0.00395546
0.00414564
0.00400446
0.00401677
0.00399994
0.00405415
0.004056
0.00394266
0.00386317
0.0038945
0.00388216
0.00390969
0.0038928
0.00390439
0.00387831
0.00398644
0.00392137
0.00394225
0.00412302
0.00396898
0.00393283
0.00400641
0.00393937
0.00394319
0.00395523
0.00402513
0.0038668
0.00392552
0.00398304
0.00394027
0.00397895
0.00397566
0.0039989
0.0040802
0.00391416
0.00396022
0.00402685
0.00397536
0.00402569
0.00413264
0.00419832
0.00428477
0.00396439
0.00411474
0.0042337
0.00412404
0.00421434
0.0038203
0.00384082
0.00385306
0.0037986
0.00381665
0.00384002
0.00382189
0.00383872
0.00393668
0.00401161
0.00385455
0.00387361
0.00395098
0.00397461
0.00388113
0.00388526
0.00400177
0.00391221
0.00413347
0.00408549
0.00399821
0.0039937
0.00404806
0.00403368
0.00402111
0.00386236
0.00388217
0.00390788
0.00390654
0.0038834
0.00390262
0.00388641
0.00407707
0.0039347
0.00390925
0.00411808
0.00406966
0.00393979
0.0040444
0.00393062
0.00391536
0.00387101
0.00395491
0.00392847
0.00390796
0.00389557
0.00393055
0.00392744
0.00382929
0.00379684
0.0038467
0.0038249
0.00382075
0.00381318
0.00383155
0.0038252
0.00399744
0.00392647
0.00399683
0.0039817
0.00398012
0.00395775
0.00399456
0.00397577
0.00395745
0.00389205
0.00398613
0.00398301
0.00394836
0.00392313
0.00397589
0.00396016
0.00386184
0.00394588
0.0039235
0.0038625
0.00387904
0.00390821
0.00387117
0.00390254
0.00385142
0.00384858
0.00387082
0.00392638
0.00387303
0.00385559
0.00389582
0.00388633
0.00397667
0.00395545
0.00388778
0.00398194
0.00397547
0.0039483
0.00396384
0.00392376
0.0039688
0.00396162
0.00387805
0.00389774
0.00394245
0.00394109
0.00390858
0.00390826
0.0167779
0.0159571
0.00672962
0.00636029
0.0163723
0.0166087
0.00889031
0.010317
0.0150606
0.0140895
0.007784
0.00805355
0.0146699
0.0144586
0.0111597
0.0113173
0.00437612
0.00454386
0.00400676
0.0040004
0.00442178
0.00445454
0.00406187
0.00410644
0.00429944
0.00458153
0.00400521
0.00401623
0.00436087
0.00442445
0.00405623
0.00410401
0.0155285
0.00694838
0.00671054
0.00774437
0.0107296
0.0100196
0.00756123
0.00706268
0.0152819
0.00788391
0.00767679
0.0070299
0.0111385
0.0108302
0.00743989
0.00740874
0.00472483
0.00472626
0.00530671
0.00405963
0.00429766
0.00506819
0.00439794
0.00505759
0.00491831
0.00410914
0.00553809
0.00519021
0.00493874
0.00445398
0.00506484
0.00454167
0.0161371
0.0145447
0.00926208
0.00880496
0.0154285
0.0148183
0.0102571
0.0107204
0.0134383
0.0124832
0.00918528
0.0102332
0.0129286
0.0125738
0.010275
0.0101129
0.00503337
0.00551281
0.00408035
0.00412396
0.00520128
0.00523362
0.00419066
0.00432476
0.00458811
0.00491112
0.00407357
0.00405997
0.00463878
0.00467418
0.00409247
0.00416897
0.0139743
0.00950842
0.00925705
0.00998268
0.0106297
0.0106154
0.00999909
0.00960566
0.0135965
0.00998914
0.0091876
0.00938085
0.0106467
0.0104568
0.00939719
0.00929529
0.00591515
0.00512187
0.00606445
0.00415496
0.00471067
0.00567951
0.00476904
0.00563379
0.00688995
0.00423148
0.00646503
0.00853701
0.0074365
0.00489671
0.00805574
0.00519184
0.0166853
0.00642786
0.013221
0.00683701
0.012851
0.0134912
0.0129079
0.0130566
0.00421324
0.00398582
0.00430785
0.00397379
0.00410888
0.00415621
0.0041756
0.00416425
0.0126733
0.00827171
0.0121714
0.00814962
0.0121183
0.012186
0.0118349
0.0117932
0.00445593
0.0039861
0.00452269
0.00399863
0.00428312
0.00433442
0.00435978
0.00435594
0.00544164
0.0126842
0.00593303
0.00421431
0.0062415
0.0125925
0.00439367
0.00681355
0.00587661
0.00429866
0.007413
0.0127971
0.00611618
0.00611538
0.00718281
0.00678669
0.0124744
0.00625358
0.00433521
0.00755179
0.00746612
0.00671813
0.00735251
0.00673354
0.012398
0.00792426
0.00431561
0.00751188
0.0119844
0.00813761
0.00755616
0.00452831
0.00377806
0.0038182
0.00377335
0.00381503
0.00379868
0.00380518
0.00380315
0.00381252
0.00385724
0.00390296
0.00382475
0.00389973
0.00388204
0.00388156
0.00388063
0.00388169
0.00376075
0.00377399
0.00375444
0.00377432
0.00376855
0.00376458
0.00376523
0.00376377
0.00385293
0.00389747
0.00382631
0.00389595
0.00387653
0.00387787
0.00387769
0.00387765
0.0038402
0.00379069
0.00383688
0.00388373
0.00384326
0.0038235
0.00386101
0.00384251
0.00383993
0.00387859
0.00381059
0.00378092
0.00384782
0.00385725
0.00379718
0.00381679
0.00378066
0.00383803
0.00387779
0.00381082
0.00379589
0.00384515
0.00381348
0.00385362
0.00378123
0.00380582
0.00387957
0.00380587
0.00378635
0.00380481
0.00380575
0.00381996
0.0046274
0.00458789
0.00677218
0.00441264
0.00453701
0.00455514
0.00454123
0.0045296
0.00442565
0.00410289
0.00557064
0.00416783
0.00436872
0.00447819
0.00430929
0.00445901
0.00936413
0.00891816
0.0118077
0.010114
0.00965512
0.00924961
0.0100642
0.00975897
0.0042391
0.00410652
0.00503387
0.00409765
0.00421001
0.00422512
0.00419429
0.00424224
0.00456726
0.00654171
0.00436692
0.00425032
0.004459
0.00445943
0.00428574
0.00436846
0.00477772
0.00432415
0.00983339
0.00756903
0.00475004
0.00453736
0.00743251
0.00727013
0.00638018
0.00436604
0.00419499
0.00556148
0.00593433
0.00437452
0.00574663
0.00430472
0.00709098
0.00668999
0.0043123
0.00913107
0.00675829
0.0064097
0.00660281
0.00528203
0.0039652
0.0039175
0.00388323
0.00395594
0.00394261
0.00391827
0.00392606
0.00389789
0.00383879
0.00379129
0.00378162
0.00381818
0.00380917
0.00379139
0.00380575
0.00378511
0.00380888
0.00377313
0.00376647
0.00379867
0.003787
0.00377378
0.00378309
0.00376844
0.00395363
0.00388494
0.00386292
0.00395928
0.00392851
0.00388988
0.00391918
0.00387707
0.00387289
0.00385573
0.00393116
0.0038549
0.00386891
0.00387109
0.00389907
0.00390151
0.00384167
0.00382166
0.00378236
0.00382939
0.00383106
0.00380794
0.0038258
0.00379928
0.00384786
0.00391823
0.00385278
0.00383518
0.00387534
0.0038882
0.00384235
0.00385666
0.00381549
0.00380545
0.00381483
0.00377639
0.00379563
0.0038139
0.00379571
0.00380951
0.0037637
0.00377436
0.00379312
0.00378825
0.00376802
0.00377243
0.00377874
0.00378114
0.00378711
0.00380104
0.00382761
0.00382609
0.00379348
0.00379991
0.0038088
0.00381261
0.00386077
0.00388422
0.00396135
0.00392448
0.00387301
0.00389124
0.00392622
0.0039334
0.003845
0.00387795
0.00391355
0.00393886
0.00386499
0.00387791
0.00390457
0.00391173
0.00378019
0.00380099
0.00379731
0.00381726
0.00379326
0.00378925
0.00380759
0.00380549
0.00378551
0.00382544
0.00382824
0.00381118
0.00379662
0.0038047
0.0038113
0.00381802
0.00382911
0.00382037
0.00384158
0.00389411
0.00383867
0.00382435
0.00385145
0.00383571
0.00383432
0.00390009
0.00384574
0.00385189
0.00384662
0.00386594
0.00384689
0.00386384
0.0129444
0.0153556
0.0109278
0.00741869
0.0119688
0.0134025
0.00897575
0.0100848
0.0185087
0.0270939
0.0302073
0.0108705
0.0167025
0.0217734
0.0130678
0.0217119
0.013337
0.019915
0.0217047
0.00996413
0.0128231
0.0169891
0.0111796
0.016584
0.00505208
0.00619083
0.00547849
0.00428747
0.00497353
0.00571379
0.0045102
0.00505431
0.0138507
0.0102878
0.007156
0.00867434
0.0102355
0.0101689
0.00912313
0.0084406
0.0161527
0.0101707
0.0235401
0.0129084
0.0124529
0.0130486
0.0148873
0.0141645
0.00821817
0.00579112
0.00728199
0.00609678
0.00718781
0.00658665
0.00701576
0.00690612
0.0108938
0.00816283
0.00873939
0.0158486
0.0116296
0.00919025
0.0116049
0.0101592
0.0198619
0.0192855
0.0174037
0.00958014
0.0170627
0.0190346
0.0158017
0.0176987
0.0272292
0.027361
0.0211435
0.0108542
0.0227021
0.026924
0.0198743
0.0213767
0.016485
0.0175234
0.0164913
0.00945166
0.0150606
0.0171575
0.013508
0.0142213
0.00551819
0.0065427
0.00658316
0.0043572
0.00546485
0.0065694
0.00542961
0.0061172
0.0185012
0.0173312
0.00854551
0.00920129
0.0178933
0.0166219
0.00988663
0.00984349
0.0267271
0.010738
0.0206643
0.0203332
0.0224595
0.0182615
0.020707
0.018492
0.0157459
0.00821936
0.00887625
0.00835665
0.00904197
0.00921799
0.00871091
0.00856654
0.017557
0.00884082
0.00977365
0.0162499
0.0147656
0.00938675
0.015948
0.0094899
0.0130691
0.0156074
0.0126183
0.00664118
0.012065
0.0138456
0.00882488
0.0112947
0.0194501
0.0240814
0.0250173
0.0119934
0.0178077
0.0220869
0.0153979
0.0196992
0.0169257
0.0256997
0.0265838
0.0113426
0.0158376
0.0226112
0.0124275
0.0211632
0.00446327
0.00544912
0.00513305
0.00405591
0.00442202
0.00503953
0.00417082
0.00475549
0.0142783
0.0116392
0.00624408
0.00880879
0.0119207
0.0115375
0.00966577
0.00807681
0.0172442
0.0109699
0.0224695
0.0151346
0.0145497
0.0152847
0.0170389
0.0163806
0.00835386
0.00488948
0.00660596
0.00579021
0.00674298
0.00590086
0.00665108
0.006321
0.0128768
0.00895609
0.00905946
0.020248
0.0143017
0.00978171
0.01479
0.0117171
0.0268733
0.0251781
0.02213
0.0124639
0.0243127
0.0241605
0.0218387
0.022505
0.0239129
0.0233557
0.0205082
0.0115559
0.0219598
0.0217501
0.0201525
0.0205401
0.0194509
0.0191627
0.0173965
0.0100983
0.0190434
0.0190663
0.0168004
0.0175817
0.00545005
0.00546289
0.0049938
0.00408035
0.00517175
0.0052849
0.0048906
0.00502846
0.0229702
0.0215162
0.0115415
0.0107017
0.0209622
0.0211183
0.0118036
0.0117912
0.0228965
0.0109148
0.0207072
0.0214144
0.0215905
0.0202374
0.0213877
0.020764
0.0185784
0.0115201
0.0101771
0.0096808
0.012706
0.0116234
0.0120523
0.010963
0.0195087
0.0106356
0.0104113
0.0194273
0.0185889
0.0121512
0.0188327
0.0110793
0.0182112
0.0187787
0.0138129
0.00858872
0.016354
0.0171271
0.0111765
0.0127375
0.0217866
0.0298755
0.0424771
0.0141493
0.0196832
0.0282992
0.016542
0.0300365
0.0177085
0.0371972
0.0327117
0.0131496
0.017336
0.0291941
0.0156355
0.0254185
0.00529568
0.00750208
0.00669085
0.00434622
0.00517625
0.00667521
0.00459994
0.00582502
0.0167636
0.0131906
0.00804704
0.0109634
0.0131449
0.0129919
0.0115437
0.0105214
0.0197075
0.0133358
0.0364192
0.0163188
0.0156338
0.0164807
0.0180122
0.0177715
0.0115259
0.00634351
0.00941704
0.00801218
0.00984841
0.00835005
0.00943715
0.00889952
0.0152354
0.0110166
0.012622
0.0281915
0.0166875
0.0133941
0.0178313
0.0153689
0.031153
0.0345196
0.0281604
0.0129141
0.0280583
0.0342636
0.0267353
0.0300871
0.0370341
0.0296064
0.0231074
0.0140461
0.029399
0.0290592
0.0248818
0.0235446
0.0201874
0.0193945
0.0188469
0.0112374
0.0178843
0.0190496
0.0161826
0.0169494
0.00673479
0.00798886
0.00731441
0.00441514
0.00654305
0.00796823
0.00636658
0.00710851
0.0303368
0.0256325
0.0119828
0.0128633
0.0277259
0.0258963
0.0145452
0.0144586
0.0366111
0.0138701
0.0226046
0.0263399
0.0298675
0.0230554
0.0266866
0.0225455
0.0220492
0.0115428
0.012018
0.0107244
0.0125125
0.0129902
0.0115712
0.0115051
0.0220011
0.0111054
0.0126033
0.0183916
0.0179089
0.0120972
0.0192003
0.0122407
0.0162199
0.0130751
0.0169404
0.00978086
0.0130589
0.0153125
0.0128779
0.0145367
0.0153754
0.0267118
0.0258533
0.01123
0.0138501
0.0244138
0.013806
0.0220156
0.0193585
0.0269072
0.0251017
0.0127877
0.0171826
0.0260363
0.0168763
0.0232428
0.00615109
0.00665804
0.00748725
0.00458145
0.00538909
0.0069169
0.00544302
0.00655914
0.0111888
0.0146116
0.00825186
0.00819819
0.0111432
0.013055
0.0086552
0.00960303
0.0149043
0.0110644
0.0255846
0.018043
0.0139347
0.0138331
0.015723
0.0147468
0.0143125
0.00837268
0.00864539
0.00992295
0.0105143
0.00935102
0.00978284
0.00902861
0.0168011
0.0115717
0.0105368
0.022767
0.0156486
0.0121454
0.0146136
0.0114476
0.0188978
0.0180499
0.0170472
0.0112637
0.0151948
0.0177441
0.0146731
0.0160774
0.0205034
0.0250576
0.0254037
0.0130274
0.0200268
0.0246678
0.0204739
0.023289
0.0212122
0.0246233
0.0249115
0.011032
0.0221589
0.0243495
0.0204506
0.0224171
0.0089315
0.00844236
0.0069414
0.00468351
0.00778852
0.00842169
0.00683518
0.0070401
0.0163357
0.0180851
0.0114548
0.0125435
0.0167763
0.0158357
0.0117156
0.0115742
0.0200481
0.0131424
0.0250335
0.0205881
0.0191782
0.0193571
0.0208431
0.0221708
0.0178967
0.0108401
0.0115856
0.0103417
0.0112349
0.0111991
0.0113602
0.0112104
0.0200924
0.0107516
0.0118842
0.0230792
0.020225
0.0116817
0.0213375
0.0117027
0.00805801
0.00726042
0.00900352
0.00690161
0.0082553
0.00838416
0.00835628
0.00865277
0.00489615
0.00404212
0.00514488
0.00410694
0.00482121
0.00481965
0.00481322
0.00487946
0.010274
0.00915995
0.0111085
0.00902914
0.0102846
0.0104939
0.0104474
0.0109781
0.00431856
0.00401932
0.00440298
0.00399361
0.00424512
0.00428474
0.00422391
0.00425235
0.00732315
0.00921959
0.00690762
0.00495125
0.00738722
0.00854228
0.00503479
0.00710551
0.00740803
0.00498872
0.0085846
0.00936543
0.00782098
0.00742887
0.00839463
0.00843077
0.00939423
0.00682821
0.00493391
0.00790832
0.00791246
0.00732702
0.00795274
0.00694704
0.00977188
0.00861498
0.00505591
0.00898947
0.00952001
0.00812386
0.00834895
0.00536368
0.00392179
0.0039624
0.00396945
0.00393638
0.00393668
0.00395912
0.00394309
0.00396176
0.00400825
0.00403511
0.00412908
0.00405127
0.00401735
0.0040522
0.00405124
0.00409986
0.0040296
0.00417546
0.00417742
0.0041777
0.00407679
0.00412454
0.00410404
0.00416309
0.00396805
0.00406974
0.00417273
0.00406072
0.00399066
0.00402732
0.0040182
0.00414481
0.00398294
0.00399219
0.00396145
0.00399691
0.00399301
0.00398921
0.00398513
0.00398668
0.00400758
0.00402783
0.00410261
0.004015
0.00401056
0.00404394
0.0040194
0.00405378
0.00400179
0.00397328
0.0040293
0.00407297
0.00400876
0.00399454
0.00404037
0.00403177
0.00401985
0.00414764
0.0040922
0.00414929
0.00407612
0.00408613
0.00408937
0.00414969
0.0222009
0.0210577
0.0229993
0.0132013
0.0213563
0.0226736
0.0207598
0.021834
0.0191414
0.019137
0.0193074
0.0127963
0.0177164
0.0187492
0.0169455
0.0175731
0.0208597
0.0198343
0.0197994
0.0130158
0.0200377
0.0199898
0.0191677
0.0192973
0.00611661
0.00539444
0.00505492
0.00409857
0.00548561
0.00580517
0.00492746
0.00486598
0.0196761
0.0223852
0.0136327
0.0119456
0.019124
0.0216865
0.0120404
0.0140319
0.0207883
0.0121293
0.0193902
0.0232152
0.0197647
0.0192457
0.0211571
0.0198669
0.0215976
0.0137049
0.0117135
0.012878
0.0145947
0.0140825
0.0142263
0.0139206
0.0223746
0.0119565
0.0116617
0.0185614
0.0231823
0.0133151
0.0195086
0.0127827
0.00395035
0.00395216
0.00389106
0.00395489
0.00393318
0.00392741
0.00392807
0.00391146
0.00397609
0.00397366
0.0038975
0.0039374
0.00396167
0.00396351
0.0039464
0.00393381
0.0038435
0.00383545
0.00380714
0.00383377
0.00383257
0.00382655
0.00382774
0.00381589
0.00396986
0.00392555
0.00389009
0.00396008
0.0039508
0.00392695
0.00394697
0.00391526
0.00393782
0.0038766
0.00393797
0.00392938
0.00392747
0.00391147
0.00393948
0.00392189
0.00393961
0.00392202
0.0038708
0.00387006
0.00391374
0.00391561
0.00388755
0.00387442
0.00387073
0.00393562
0.00392183
0.0038702
0.00388718
0.00391261
0.00387355
0.00391315
0.00385749
0.00384821
0.00390153
0.00385284
0.00385583
0.00386025
0.0038646
0.0038735
0.00379849
0.00390379
0.00385418
0.00385145
0.00381107
0.00382689
0.00382824
0.00383932
0.00465419
0.0166343
0.00917595
0.00733566
0.0054442
0.0104871
0.00595622
0.00953888
0.00394042
0.00481159
0.00404953
0.00407842
0.00398291
0.00402371
0.00401607
0.00404491
0.00392427
0.00443403
0.00403631
0.00402681
0.00395113
0.00400002
0.00398024
0.00401185
0.00396941
0.00387192
0.00387059
0.00436914
0.00403131
0.00386345
0.00420802
0.00390739
0.00419841
0.00459519
0.0053583
0.00391544
0.00420701
0.00442973
0.00424604
0.0043601
0.00389292
0.00389225
0.00442427
0.00399488
0.00393052
0.00391785
0.00396426
0.00396429
0.00392501
0.00405771
0.00455902
0.00506374
0.00399198
0.00404947
0.00444766
0.0045873
0.0174102
0.0168367
0.0177894
0.0103007
0.0164918
0.0174748
0.0159932
0.016677
0.0165939
0.0165185
0.0170174
0.0111672
0.0153986
0.0165225
0.0148273
0.0155286
0.0180213
0.0171421
0.0180312
0.0105416
0.017381
0.0177862
0.0168156
0.0168958
0.00699711
0.00564302
0.00579055
0.00408057
0.00628601
0.00642771
0.00566547
0.00550494
0.0156885
0.0173214
0.0101607
0.0109071
0.0150691
0.0163829
0.0107715
0.0103267
0.0167357
0.0111247
0.016964
0.0180842
0.0157939
0.0153397
0.0169306
0.0160223
0.0168626
0.0102408
0.0109749
0.0101483
0.0105698
0.0103242
0.0103549
0.0102957
0.0174067
0.0101968
0.0110841
0.0158566
0.016786
0.010793
0.0154021
0.0116261
0.0153546
0.0162373
0.0169525
0.00963704
0.013329
0.0171192
0.012661
0.0160874
0.0169482
0.0182699
0.0190882
0.00908795
0.0161957
0.018984
0.0158882
0.018138
0.0169458
0.0193539
0.0191845
0.00929797
0.0167261
0.0197834
0.0158557
0.0184656
0.00535866
0.00516469
0.00580082
0.00408575
0.00476826
0.0055793
0.00481229
0.00552703
0.0144075
0.0139255
0.00933554
0.0093722
0.0145835
0.0139529
0.00972972
0.00972648
0.0174125
0.0095449
0.0197752
0.0176897
0.0170414
0.0170208
0.0176418
0.0172818
0.0136354
0.00918856
0.00945472
0.00899532
0.00942575
0.00946358
0.00916786
0.00928739
0.0166789
0.00935568
0.00942308
0.0186854
0.0162329
0.00958995
0.0164966
0.00955245
0.0176516
0.0198979
0.0182239
0.0101995
0.0151075
0.0189804
0.0150723
0.0184297
0.0237493
0.0263562
0.0246108
0.0189274
0.0274358
0.025632
0.0269283
0.024049
0.01919
0.022947
0.0209626
0.0133504
0.0188936
0.021892
0.0182606
0.0207241
0.00481319
0.00551485
0.00453568
0.00405627
0.00449749
0.00514885
0.00432624
0.00455481
0.0230804
0.0173716
0.0112734
0.0209958
0.0228679
0.0224092
0.0164777
0.0151908
0.0230805
0.0188814
0.023774
0.0200241
0.0218113
0.0281554
0.0207816
0.0239067
0.0166273
0.00985985
0.0198154
0.00885399
0.012569
0.0139652
0.0112824
0.0169011
0.0191739
0.0134448
0.0172738
0.0222966
0.0242042
0.0167253
0.0233791
0.017448
0.00776907
0.00699877
0.00703356
0.00674888
0.00769123
0.00716522
0.0077852
0.0070041
0.0056408
0.00435437
0.00433012
0.00438083
0.00461835
0.00440942
0.00456506
0.00431923
0.00486844
0.00427395
0.00404044
0.00413695
0.00465576
0.00428303
0.00465028
0.00417229
0.00436016
0.00417106
0.004055
0.00400948
0.0042338
0.00417119
0.00420365
0.00409724
0.00636577
0.00668475
0.00618104
0.00460143
0.00626277
0.00637716
0.00528598
0.00538003
0.00576909
0.00442989
0.00437191
0.00551399
0.00543611
0.00461712
0.0054033
0.00461517
0.00673318
0.00621016
0.00454783
0.00474945
0.00504172
0.00515449
0.00476851
0.00463442
0.00520484
0.0042673
0.004358
0.00429615
0.00461829
0.00439182
0.0045625
0.00436094
0.0146879
0.0163237
0.0155272
0.00821274
0.0132331
0.0157208
0.0132549
0.0153474
0.0183171
0.0204986
0.0198955
0.0114977
0.0181468
0.0199619
0.0181042
0.0194755
0.0166617
0.0194849
0.0189985
0.00861339
0.0151363
0.0190005
0.0153477
0.0187545
0.00443344
0.00461246
0.00426174
0.0039832
0.0041989
0.00445697
0.00412702
0.00427042
0.0168746
0.0145413
0.00833201
0.0104522
0.0167821
0.0165731
0.0106224
0.0100952
0.0177394
0.0111078
0.0194729
0.0165934
0.0170725
0.0181295
0.0171713
0.0168312
0.0144646
0.00764805
0.00990668
0.00654962
0.0090246
0.00942836
0.00731082
0.00892762
0.0160973
0.00861318
0.0102893
0.0191479
0.0165918
0.00971413
0.0170377
0.0103766
0.00376003
0.00378867
0.00376521
0.00378414
0.00377612
0.00377737
0.00377456
0.00377694
0.00385592
0.00394847
0.00388083
0.00391574
0.00392339
0.00392479
0.00390558
0.00390739
0.00377256
0.00382783
0.0037774
0.00382113
0.00380907
0.00381043
0.00380441
0.00379778
0.0038415
0.0039067
0.00386821
0.00392888
0.00389568
0.003887
0.00389872
0.00389222
0.00382718
0.00378886
0.00381537
0.00389001
0.00382059
0.00379452
0.00383427
0.00381435
0.00383342
0.00389083
0.00385949
0.00379188
0.00382987
0.00386777
0.00380941
0.0038579
0.00378807
0.00382171
0.00388731
0.00384556
0.00380455
0.00382452
0.00384751
0.00385802
0.0037915
0.00384322
0.00388753
0.00385026
0.00381735