/*--------------------------------*- C++ -*----------------------------------*\
| =========                 |                                                 |
| \\      /  F ield         | OpenFOAM: The Open Source CFD Toolbox           |
|  \\    /   O peration     | Version:  2412                                  |
|   \\  /    A nd           | Website:  www.openfoam.com                      |
|    \\/     M anipulation  |                                                 |
\*---------------------------------------------------------------------------*/
FoamFile
{
    version     2.0;
    format      ascii;
    arch        "LSB;label=32;scalar=64";
    class       volScalarField;
    location    "50";
    object      nut;
}
// * * * * * * * * * * * * * * * * * * * * * * * * * * * * * * * * * * * * * //

dimensions      [0 2 -1 0 0 0 0];

internalField   nonuniform List<scalar> 
43136
(
3.21357e-05
3.59511e-05
4.2141e-05
8.25575e-05
6.01095e-05
3.94804e-05
8.75344e-05
8.37485e-05
4.07198e-05
3.06649e-05
4.10954e-05
7.54749e-05
5.33769e-05
4.27697e-05
6.25392e-05
9.56987e-05
5.65984e-05
3.94967e-05
0.00024814
0.000175631
0.000103972
5.83584e-05
0.000120309
0.00013082
0.000128598
0.000153453
0.000144846
0.000180207
0.000138673
0.000123163
0.000150324
0.000186761
0.000106915
0.000149008
9.35843e-05
0.000117749
7.33101e-05
8.68849e-05
7.79213e-05
8.50038e-05
4.23873e-05
8.9147e-05
4.7508e-05
4.85617e-05
0.000135282
9.77756e-05
3.76681e-05
0.000119007
0.000109005
0.000112567
0.000108388
0.000132845
0.000101783
0.000126185
0.000191877
0.000136744
0.000143379
0.000192203
0.000149933
0.000177186
0.00011837
0.000131978
7.70859e-05
7.54778e-05
0.00012936
7.76486e-05
0.00013152
0.000128786
0.000179409
0.000128583
0.000130684
0.000168565
5.58204e-05
4.774e-05
6.94374e-05
7.51355e-05
4.65831e-05
3.66744e-05
3.73695e-05
4.81261e-05
0.000100137
9.4622e-05
6.73824e-05
0.000109627
4.09317e-05
4.11662e-05
5.03527e-05
4.1134e-05
0.000129316
0.000111503
0.000136259
0.000131697
0.000126548
8.78427e-05
0.000100579
0.000132851
8.69854e-05
8.63928e-05
0.000142424
8.97392e-05
5.78834e-05
0.00011767
8.74665e-05
8.30738e-05
7.1213e-05
6.02929e-05
4.19731e-05
7.60308e-05
7.38493e-05
8.52412e-05
8.48401e-05
4.60137e-05
8.80382e-05
0.000112615
6.69835e-05
7.90853e-05
0.000135077
0.000125294
8.96253e-05
0.000122022
7.55776e-05
8.45492e-05
8.97357e-05
5.1255e-05
0.000117208
6.52742e-05
4.32637e-05
9.71787e-05
0.000134958
0.000101164
9.21461e-05
0.00010644
4.69295e-05
6.87194e-05
4.62729e-05
6.25111e-05
0.000189868
0.000104381
7.19979e-05
0.000132675
7.18569e-05
8.73574e-05
8.47274e-05
7.29979e-05
0.000117782
4.63324e-05
0.00010066
9.77033e-05
2.83149e-05
4.19076e-05
3.00148e-05
2.3809e-05
0.000181248
0.000191247
0.0001453
0.00019153
0.000137199
0.0001499
9.65873e-05
0.000129043
5.40432e-05
4.08644e-05
9.92502e-05
7.96683e-05
4.91248e-05
5.67654e-05
8.67488e-05
7.61044e-05
0.000144956
0.000124451
6.43005e-05
7.71927e-05
5.93595e-05
6.76477e-05
5.61394e-05
3.62163e-05
4.00204e-05
7.53919e-05
8.07429e-05
4.72167e-05
7.45165e-05
6.69471e-05
4.85322e-05
6.97307e-05
4.84052e-05
5.05859e-05
7.86507e-05
8.78757e-05
6.29742e-05
6.18061e-05
4.68792e-05
8.74099e-05
2.09026e-06
2.12268e-06
3.31357e-06
8.97371e-06
7.15601e-06
4.35043e-06
7.15401e-06
7.99888e-06
1.95837e-06
1.6719e-06
2.51133e-06
8.90822e-06
7.67073e-06
5.16284e-06
7.7591e-06
7.93544e-06
3.45692e-06
2.8034e-06
3.33226e-06
9.752e-06
8.73081e-06
5.05429e-06
8.74332e-06
8.66023e-06
4.84437e-06
4.56717e-06
1.37766e-05
1.98428e-05
3.28511e-06
6.58546e-06
7.06046e-06
5.85708e-06
7.63217e-06
7.63166e-06
9.79501e-06
9.68841e-06
7.66052e-06
7.99895e-06
9.57367e-06
9.47779e-06
4.65136e-06
9.42621e-06
5.17697e-06
4.6422e-06
8.16644e-06
8.33409e-06
3.08259e-06
8.49827e-06
8.44586e-06
9.92487e-06
9.77254e-06
9.83936e-06
9.58652e-06
9.66917e-06
9.71977e-06
9.78327e-06
8.7088e-06
9.79867e-06
9.57216e-06
8.56436e-06
8.68095e-06
9.63772e-06
8.49875e-06
9.46945e-06
1.57045e-06
1.56106e-06
2.88849e-06
9.2835e-06
4.25445e-06
4.49558e-06
7.56625e-06
7.22768e-06
1.84362e-06
1.85939e-06
1.84014e-06
1.12575e-05
8.14908e-06
4.81525e-06
8.16946e-06
8.26798e-06
3.29838e-06
1.94462e-06
2.46815e-06
1.13757e-05
9.21545e-06
4.57402e-06
9.1755e-06
9.28098e-06
7.88803e-06
6.27718e-06
4.79357e-06
1.82814e-05
3.29514e-06
5.29861e-06
8.27471e-06
5.68796e-06
6.67246e-06
5.22423e-06
1.03108e-05
1.13761e-05
7.93979e-06
8.45387e-06
6.20739e-06
1.04335e-05
5.14814e-06
1.13518e-05
4.62824e-06
3.36741e-06
6.62839e-06
8.17305e-06
2.46874e-06
8.33291e-06
8.57758e-06
1.04921e-05
1.15242e-05
1.10892e-05
1.03593e-05
1.04833e-05
1.08461e-05
1.07752e-05
6.85956e-06
1.12659e-05
1.15003e-05
8.42669e-06
8.95776e-06
1.11567e-05
8.41335e-06
1.15329e-05
0.000172875
4.99341e-05
8.68143e-05
0.000183045
0.000108665
9.0337e-05
0.000100238
7.4716e-05
4.9492e-05
4.19407e-05
4.43587e-05
7.33883e-05
9.4759e-05
6.0664e-05
7.78323e-05
5.50583e-05
6.06045e-05
9.42962e-05
5.46749e-05
0.000138512
6.09713e-05
6.87365e-05
6.38004e-05
9.22106e-05
0.000151291
0.000115913
0.000162045
0.00015679
0.000195836
9.44132e-05
0.000131935
0.000147887
0.000159883
6.43537e-05
0.000119974
0.000118764
7.63512e-05
0.000128309
8.80512e-05
9.04373e-05
7.09046e-05
7.11559e-05
7.03979e-05
6.53055e-05
0.000110341
8.83661e-05
7.29475e-05
6.07139e-05
5.98447e-05
9.96313e-05
7.37817e-05
7.48136e-05
0.000101844
0.000122762
8.22653e-05
0.000146793
6.90228e-05
9.28455e-05
0.000110802
0.000130583
6.32206e-05
7.06274e-05
4.45211e-05
9.68937e-05
0.000356428
0.000172066
0.000227496
0.00029766
0.000260766
0.000194184
0.000235809
0.000184253
0.000102418
8.57629e-05
6.37758e-05
0.000127226
7.01322e-05
7.24787e-05
7.66231e-05
5.70655e-05
0.0001395
8.68632e-05
5.8987e-05
0.000102766
7.01487e-05
7.26724e-05
8.4988e-05
6.30304e-05
0.000244277
0.000183304
0.000151209
0.000244494
0.000187405
0.000152589
0.000197112
0.00020744
0.000107147
0.000104511
0.000201726
0.000121868
0.000101895
0.000201354
0.0001908
0.000150167
9.55203e-05
9.32774e-05
6.06747e-05
9.62438e-05
9.30243e-05
0.000114174
0.00015497
6.59292e-05
0.000130519
0.000195514
0.000111795
0.000142576
0.000219982
0.000180949
0.000128428
0.000182629
9.07148e-05
0.000130773
0.000128832
7.87391e-05
0.000122686
0.000119307
6.99841e-05
0.0001116
8.16764e-05
6.93969e-05
7.12683e-05
0.000110722
9.82846e-05
9.31046e-05
9.91041e-05
7.7131e-05
3.2142e-05
3.39694e-05
3.90994e-05
0.000101319
6.09361e-05
5.16838e-05
4.65852e-05
5.87092e-05
4.62828e-05
3.54917e-05
7.51035e-05
7.82246e-05
5.38986e-05
5.20191e-05
6.05014e-05
9.50991e-05
0.000119946
0.000139138
0.000127531
0.00015567
0.000143957
0.000125601
0.000126858
0.000157069
5.79956e-05
5.30342e-05
0.000124666
0.000103175
5.70962e-05
0.000100448
0.000106422
0.000109716
6.02424e-05
7.9468e-05
5.71288e-05
6.12786e-05
5.96391e-05
7.37355e-05
4.55928e-05
5.62828e-05
7.33029e-05
0.000115376
9.06833e-05
9.5985e-05
0.000116562
0.000114278
9.80103e-05
0.000120692
5.97405e-05
0.000132578
0.000105309
6.69906e-05
6.79448e-05
9.29588e-05
5.74241e-05
7.9885e-05
4.55142e-06
4.97803e-06
2.57901e-06
1.33539e-05
1.1378e-05
3.8161e-06
1.14041e-05
1.22685e-05
4.68161e-06
1.77403e-06
3.42897e-06
1.04652e-05
6.16067e-06
2.36835e-06
1.0733e-05
1.03876e-05
2.6518e-06
3.65805e-06
2.81898e-06
1.14797e-05
9.43965e-06
3.70221e-06
1.22935e-05
1.22373e-05
1.17687e-05
1.79754e-05
8.40038e-06
1.19889e-05
1.12327e-05
1.92015e-05
2.00484e-05
2.43317e-05
1.14414e-05
1.19598e-05
1.32364e-05
1.25181e-05
1.1827e-05
1.18404e-05
1.23477e-05
1.23721e-05
3.88586e-06
1.06915e-05
3.28847e-06
5.0594e-06
1.20514e-05
1.14793e-05
3.4147e-06
1.00385e-05
1.21406e-05
1.33085e-05
1.26543e-05
1.26959e-05
1.25667e-05
1.24304e-05
1.27182e-05
1.27146e-05
1.22983e-05
1.13068e-05
1.08235e-05
1.17018e-05
1.20862e-05
1.11044e-05
1.17696e-05
1.09434e-05
9.00177e-05
7.8345e-05
0.000211655
0.000121928
0.000108161
8.86314e-05
0.000117922
0.000143509
7.10885e-05
5.59248e-05
0.000167798
0.000178683
9.19968e-05
7.32866e-05
8.68882e-05
0.00011517
0.000345832
0.000278185
0.000472727
0.000171117
0.00022188
0.000251052
0.000235417
0.000267046
6.15042e-05
0.000113357
8.54584e-05
4.89637e-05
5.3003e-05
5.1162e-05
8.62072e-05
5.52204e-05
0.000102141
0.000174877
7.48928e-05
6.46698e-05
9.24224e-05
0.000142117
0.000203858
6.11249e-05
8.03916e-05
5.2422e-05
0.000150972
0.000179556
0.000116913
0.000109179
0.000180439
0.000137582
0.000204954
9.39221e-05
6.5386e-05
0.000104089
0.000135804
7.88471e-05
9.31019e-05
7.10505e-05
0.000209688
0.000106024
6.89536e-05
0.000158266
0.000298175
8.53286e-05
0.000138408
0.000258324
9.42033e-05
0.000135523
7.38508e-05
9.59938e-05
0.000171033
0.000126778
0.000170855
0.000161748
0.000189897
0.000142694
7.2075e-05
0.000159533
0.000316136
0.00021371
0.000212803
0.000195653
5.3841e-05
3.98587e-05
4.08559e-05
8.36327e-05
5.00652e-05
4.67338e-05
5.15354e-05
4.71848e-05
0.00010458
0.000146888
0.000107834
0.000129786
0.000143541
0.000164575
0.00017427
0.00013163
0.0003105
8.46149e-05
0.000143088
0.000215474
0.00020281
0.000143931
0.000154211
0.000144922
0.000210881
0.000173759
9.48119e-05
6.50062e-05
0.000204613
0.000161466
7.67123e-05
0.000113499
8.09037e-05
0.000173142
0.000193186
0.00010924
8.55744e-05
0.000122179
9.24457e-05
0.000153177
8.31117e-05
8.17492e-05
0.000162973
0.000105344
9.43037e-05
0.000100333
0.000118504
8.6915e-05
5.11414e-05
2.70134e-05
5.49275e-05
3.26719e-05
5.03072e-05
4.27796e-05
4.38651e-05
6.39175e-05
2.16907e-05
2.74262e-05
5.55326e-05
4.12252e-05
3.67256e-05
4.51345e-05
4.72214e-05
4.83129e-05
8.24924e-05
9.0425e-05
0.000100558
6.4027e-05
8.70372e-05
0.000125853
0.000122104
0.000125656
4.03733e-05
3.67902e-05
3.75568e-05
2.3342e-05
3.18213e-05
4.03013e-05
3.9178e-05
4.58339e-05
3.49395e-05
5.27548e-05
3.49093e-05
3.93293e-05
4.30673e-05
6.05924e-05
2.37533e-05
4.217e-05
4.38341e-05
5.13237e-05
7.8797e-05
0.000112218
4.97462e-05
5.70673e-05
5.03336e-05
4.47184e-05
7.41149e-05
3.57068e-05
4.26675e-05
6.0525e-05
5.11691e-05
6.299e-05
4.46535e-05
4.82463e-05
9.89388e-05
7.24959e-05
5.21239e-05
8.97973e-05
8.24994e-05
7.4045e-05
8.13136e-05
5.34364e-05
7.35944e-05
8.19541e-05
8.16177e-05
4.40928e-05
6.83229e-05
7.55789e-05
4.21097e-05
6.64774e-05
8.87674e-05
9.05477e-05
0.00010947
6.99842e-05
8.18232e-05
8.2637e-05
9.5473e-05
0.00010893
0.000127312
0.000155248
0.000128907
6.66822e-05
0.000118449
0.000174253
7.3536e-05
0.000186894
2.31588e-05
3.90242e-05
4.24352e-05
2.22755e-05
2.48386e-05
3.71965e-05
2.79781e-05
4.60124e-05
7.40689e-05
7.5167e-05
4.12042e-05
4.59408e-05
9.33325e-05
6.98591e-05
6.0498e-05
3.8034e-05
7.71955e-05
4.42796e-05
0.000147365
0.000127915
8.30003e-05
9.01048e-05
0.00010147
0.000105959
0.000106277
4.21824e-05
6.03069e-05
3.37451e-05
5.05279e-05
4.52952e-05
5.78371e-05
5.17194e-05
9.79147e-05
8.80887e-05
6.15631e-05
0.000151999
0.000114414
7.61436e-05
0.000124807
6.94349e-05
3.41297e-05
6.10649e-05
6.24513e-05
3.57787e-05
2.89186e-05
3.54345e-05
4.11352e-05
3.75887e-05
7.39255e-05
0.000128895
0.000126519
0.000107963
8.97813e-05
8.91481e-05
0.000119658
0.000103299
9.27743e-05
0.000146637
0.00013669
8.01651e-05
9.52441e-05
0.000114247
0.000105962
0.000129962
3.89201e-05
7.92992e-05
4.9501e-05
4.22966e-05
4.69773e-05
4.38423e-05
4.04555e-05
5.03291e-05
5.56208e-05
4.80601e-05
4.4354e-05
6.90502e-05
7.83455e-05
6.77723e-05
5.60199e-05
3.95677e-05
5.81731e-05
6.90464e-05
9.87379e-05
6.09754e-05
6.57406e-05
9.50476e-05
0.000106264
8.4568e-05
5.22823e-05
4.21476e-05
9.18874e-05
6.70254e-05
6.2043e-05
4.81344e-05
6.00044e-05
6.7949e-05
7.68231e-05
7.12249e-05
7.73894e-05
0.000116869
9.62628e-05
6.77777e-05
0.000105549
9.69787e-05
0.00023289
0.000131879
0.000162406
0.000119025
0.000102445
0.0001301
0.000114128
7.64882e-05
0.000151409
8.14501e-05
5.53463e-05
8.31976e-05
4.69814e-05
4.81561e-05
8.38817e-05
3.79512e-05
0.000127774
6.9376e-05
3.57368e-05
9.84004e-05
4.60258e-05
5.10801e-05
6.0008e-05
3.67793e-05
0.000129128
0.000115854
0.000108238
0.000149944
0.000122366
0.000128928
0.000120949
0.000100394
8.11554e-05
7.32564e-05
0.000111866
9.71643e-05
0.000119609
0.000110316
0.000107923
0.000141987
9.58259e-05
8.38774e-05
5.68919e-05
9.31033e-05
6.49568e-05
9.66438e-05
0.000128859
4.75956e-05
8.68043e-05
0.000117827
9.32568e-05
7.73078e-05
0.000118842
6.88651e-05
7.19345e-05
8.72295e-05
6.38085e-05
6.59201e-05
7.6756e-05
4.81948e-05
0.000110014
8.55434e-05
8.32903e-05
0.000106913
4.13719e-05
2.44475e-05
3.75128e-05
8.74606e-05
5.33037e-05
3.85162e-05
5.36136e-05
5.14712e-05
2.38174e-05
2.70529e-05
2.46811e-05
0.000119406
3.60383e-05
2.42028e-05
5.46181e-05
3.14564e-05
3.72634e-05
2.69726e-05
3.33907e-05
8.64636e-05
3.53798e-05
2.53014e-05
5.77168e-05
3.04709e-05
0.000142496
0.000192662
0.000125957
0.000265452
0.000102321
0.000113606
0.000117623
9.61725e-05
4.19348e-05
4.13811e-05
7.69934e-05
6.66188e-05
5.66381e-05
9.06351e-05
9.02362e-05
0.00010514
3.06571e-05
8.1481e-05
2.74899e-05
3.49144e-05
4.12154e-05
0.000113108
3.39872e-05
3.85546e-05
6.47926e-05
8.76526e-05
8.47451e-05
0.000106276
0.000102415
8.10549e-05
8.57168e-05
0.000134484
3.94045e-05
7.74069e-05
6.79386e-05
3.66333e-05
8.61241e-05
8.98307e-05
6.33567e-05
0.000124627
0.000177146
0.000142516
0.00011087
0.000190615
0.000103088
0.00010771
0.000178208
9.2919e-05
0.000141996
0.000176335
0.000109365
0.000160687
0.000136226
0.000113804
0.000120748
0.000104709
6.73832e-05
9.16148e-05
2.87919e-05
5.12214e-05
4.31672e-05
5.90786e-05
4.67285e-05
2.81383e-05
0.000105147
0.000115858
4.68996e-05
3.96452e-05
4.43125e-05
6.40494e-05
5.91809e-05
4.12605e-05
0.000111751
6.0827e-05
6.37175e-05
9.66108e-05
0.000126866
0.00010381
0.000143468
7.48977e-05
9.5639e-05
9.71044e-05
8.89483e-05
7.81296e-05
9.32629e-05
0.000118369
0.000123947
7.1086e-05
9.36269e-05
0.000108296
9.17617e-05
4.42322e-05
7.5511e-05
6.03125e-05
3.50904e-05
7.50442e-05
5.56797e-05
3.37384e-05
7.32385e-05
6.40601e-05
7.80841e-05
4.47856e-05
7.78801e-05
9.13575e-05
4.18631e-06
6.56205e-06
7.44569e-06
7.87144e-06
6.3349e-06
6.56656e-06
9.945e-06
9.60407e-06
6.8548e-06
7.05888e-06
1.48274e-05
1.40864e-05
6.91549e-06
7.03281e-06
9.68735e-06
9.66034e-06
1.30098e-05
1.67374e-05
4.05776e-05
5.47319e-05
1.34681e-05
2.56736e-05
1.3777e-05
1.69026e-05
8.52433e-06
1.07319e-05
4.64716e-05
2.78502e-05
1.41568e-05
1.0223e-05
1.07626e-05
1.17929e-05
6.6341e-06
1.20259e-05
9.4279e-06
1.4313e-05
9.69078e-06
9.65964e-06
9.13065e-06
1.07734e-05
6.76074e-06
1.42373e-05
1.4968e-05
1.52617e-05
9.61917e-06
9.68557e-06
1.0612e-05
1.4769e-05
6.98369e-06
5.04241e-06
9.65392e-06
9.91826e-06
2.05351e-05
5.26076e-06
8.38835e-06
2.41347e-05
7.08676e-06
9.8673e-06
1.04572e-05
9.57433e-06
1.43612e-05
1.07598e-05
1.16801e-05
2.02719e-05
5.16235e-06
5.5383e-06
8.7092e-06
1.17868e-05
5.28938e-06
5.4128e-06
7.38496e-06
6.98002e-06
5.87653e-06
6.12367e-06
8.47576e-06
1.13456e-05
5.93309e-06
5.99713e-06
6.71309e-06
6.6345e-06
1.08814e-05
1.19416e-05
3.64166e-05
1.95155e-05
1.51193e-05
1.27569e-05
9.45471e-06
9.96645e-06
1.03155e-05
9.75839e-06
2.31469e-05
1.96694e-05
1.80161e-05
1.43329e-05
1.12195e-05
1.60504e-05
5.63698e-06
8.73883e-06
1.19625e-05
1.15179e-05
6.87047e-06
7.08544e-06
1.15233e-05
1.18041e-05
5.7428e-06
1.14103e-05
8.56668e-06
8.77718e-06
6.73121e-06
6.80272e-06
8.60493e-06
8.49544e-06
8.1515e-06
8.55919e-06
1.35243e-05
1.5413e-05
2.46995e-05
8.60404e-06
2.06564e-05
2.34086e-05
9.984e-06
2.11045e-05
1.70699e-05
1.44053e-05
1.51977e-05
1.33368e-05
1.50777e-05
7.85204e-06
6.5715e-06
3.70674e-06
7.94822e-06
1.41419e-05
7.4398e-06
7.6998e-06
7.76574e-06
7.75252e-06
8.56929e-06
2.60037e-05
1.19393e-05
2.15768e-05
2.07123e-05
1.59649e-05
1.74901e-05
4.10789e-05
8.1608e-06
8.96071e-06
8.34219e-06
1.56345e-05
8.05876e-06
8.18068e-06
8.1257e-06
8.13434e-06
1.88225e-05
1.99173e-05
8.95094e-06
1.76684e-05
1.28781e-05
1.87561e-05
1.54861e-05
2.13742e-05
5.95957e-06
7.84745e-06
1.24614e-05
1.48602e-05
7.20481e-06
7.76001e-06
5.41331e-06
1.05565e-05
6.1536e-06
1.47907e-05
1.02561e-05
7.97603e-06
1.28983e-05
1.8557e-05
7.38966e-06
1.38332e-05
7.99928e-06
1.45498e-05
2.0929e-05
1.6834e-05
9.73852e-06
1.2519e-05
1.5772e-05
1.7579e-05
7.96889e-06
1.66759e-05
3.31171e-05
1.63016e-05
7.98013e-06
1.52359e-05
1.21127e-05
8.18673e-06
5.33299e-05
2.56541e-05
5.12291e-05
3.04956e-05
6.32049e-05
5.32518e-05
5.68877e-05
5.67156e-05
2.16612e-05
2.76403e-05
7.02691e-05
5.49514e-05
3.52857e-05
5.95848e-05
7.53743e-05
6.58652e-05
0.000114577
0.000121547
0.000246218
0.000111089
0.000128117
0.000222779
0.000196107
0.000245972
2.58783e-05
4.78885e-05
6.49599e-05
3.58069e-05
3.81727e-05
6.58183e-05
6.1899e-05
7.42434e-05
4.42443e-05
6.02329e-05
4.10248e-05
3.79221e-05
7.70947e-05
6.4256e-05
2.28733e-05
7.35579e-05
6.92654e-05
8.71131e-05
9.45975e-05
0.00020234
5.24496e-05
6.67187e-05
5.91375e-05
5.63451e-05
0.000177101
7.03371e-05
7.67801e-05
8.64526e-05
6.16554e-05
6.08186e-05
6.44237e-05
6.8605e-05
0.000127999
0.00011149
6.08378e-05
0.000108521
0.000111337
0.000109381
0.000115575
7.48831e-05
1.24222e-05
2.60682e-05
1.96599e-05
2.41599e-05
4.09535e-05
4.23578e-05
1.37349e-05
3.79564e-05
1.82367e-05
4.03267e-05
2.53535e-05
2.1925e-05
2.68119e-05
9.74906e-06
1.60318e-05
1.13306e-05
9.33778e-06
8.51738e-06
6.13802e-06
1.15258e-05
9.27041e-06
6.95832e-06
1.00561e-05
6.67543e-06
4.25845e-05
2.93397e-05
9.75398e-06
2.5788e-05
4.42909e-05
4.05314e-05
1.78348e-05
1.4891e-05
2.0395e-05
2.38464e-05
4.46731e-05
2.97685e-05
1.88518e-05
2.39499e-05
2.56053e-05
3.98942e-05
1.291e-05
1.99258e-05
1.71044e-05
1.75793e-05
1.32823e-05
1.3099e-05
2.10366e-05
2.04864e-05
1.8642e-05
1.43267e-05
2.80235e-05
1.1044e-05
9.86316e-06
2.11433e-05
2.69576e-05
1.58095e-05
1.73977e-05
1.64659e-05
1.67554e-05
1.46199e-05
1.69168e-05
2.08867e-05
1.27642e-05
1.33499e-05
2.60207e-05
6.87212e-05
5.96333e-05
3.03703e-05
3.15286e-05
4.71751e-05
3.85351e-05
4.38466e-05
0.000114496
0.000188404
0.000189515
0.00014654
0.000115635
0.000152577
0.000133895
0.000173897
0.000113436
0.000198489
0.00014097
8.81097e-05
0.000112167
0.00014128
0.000104038
0.000196147
3.18353e-05
8.2441e-05
6.47723e-05
5.62936e-05
3.20419e-05
5.63739e-05
4.30873e-05
4.31181e-05
7.46378e-05
5.67652e-05
4.22887e-05
8.07884e-05
7.73386e-05
7.16876e-05
6.86476e-05
5.56446e-05
9.43449e-05
0.000108661
0.000139586
6.86915e-05
9.9753e-05
0.00012817
0.000127271
0.000110382
5.24499e-05
4.85268e-05
8.66242e-05
5.9625e-05
4.07224e-05
4.42908e-05
5.29819e-05
7.68264e-05
7.81629e-05
8.33046e-05
0.000113741
0.000183639
0.000126063
8.26936e-05
0.000118424
0.00014109
0.000172343
0.000191798
0.000110419
0.000137251
0.000192874
0.000160834
0.000156918
0.000171819
0.000175256
0.000180186
0.000150632
0.000150902
0.000139431
0.000118846
0.000107128
0.000124024
8.01041e-05
0.000152522
6.70404e-05
7.69358e-05
4.29739e-05
5.01688e-05
4.45654e-05
4.44992e-05
0.000109369
0.000121489
0.000102711
6.66924e-05
5.53659e-05
5.04555e-05
4.58723e-05
5.5805e-05
0.000144203
9.30201e-05
9.96963e-05
0.000108298
0.000117182
0.00012824
0.000137016
9.68855e-05
0.000140655
8.75606e-05
8.49758e-05
8.68588e-05
0.000132435
0.000135628
0.000137171
0.000102308
8.57106e-05
9.06154e-05
7.68526e-05
6.05616e-05
0.000107529
9.10521e-05
6.2307e-05
0.000100436
7.47295e-05
6.1712e-05
9.3155e-05
8.65201e-05
8.3851e-05
6.21777e-05
8.51096e-05
0.000139801
2.85411e-06
3.15349e-06
5.00211e-06
7.12798e-06
3.0514e-06
3.29891e-06
5.30911e-06
5.17425e-06
3.55077e-06
4.81264e-06
8.57208e-06
6.53877e-06
3.80229e-06
4.65278e-06
5.62504e-06
7.46592e-06
6.96847e-06
8.89028e-06
8.76519e-06
9.95909e-06
7.27949e-06
8.34024e-06
8.97875e-06
8.8664e-06
7.76711e-06
9.82993e-06
8.7322e-06
1.26566e-05
9.52955e-06
6.05643e-06
1.03863e-05
6.88831e-06
3.35858e-06
5.30994e-06
7.77692e-06
7.23068e-06
5.31879e-06
5.28891e-06
6.65562e-06
7.18375e-06
3.62819e-06
6.91115e-06
7.95113e-06
5.72078e-06
5.39174e-06
5.58877e-06
5.46116e-06
5.7768e-06
7.82168e-06
5.05833e-06
9.39021e-06
6.34433e-06
1.00498e-05
1.14225e-05
1.08466e-05
1.1466e-05
7.25126e-06
1.15059e-05
9.89275e-06
8.29373e-06
7.3074e-06
9.49558e-06
7.32629e-06
8.97125e-06
8.76614e-06
8.65798e-06
8.14157e-06
1.023e-05
8.82501e-06
8.64705e-06
8.81243e-06
8.40588e-06
8.10085e-06
6.25235e-06
6.29424e-06
6.35989e-06
7.11557e-06
6.2698e-06
6.51708e-06
5.44024e-06
6.52792e-06
6.29091e-06
6.54563e-06
6.87095e-06
6.17552e-06
6.26597e-06
6.06834e-06
5.47928e-06
8.74796e-06
1.44736e-05
7.49802e-06
9.78847e-06
2.12557e-05
1.4806e-05
2.17583e-05
1.66983e-05
8.23196e-06
7.74228e-06
1.05564e-05
8.43228e-06
8.01162e-06
8.08819e-06
8.82908e-06
8.84289e-06
8.10472e-06
6.36455e-06
6.27244e-06
7.08025e-06
7.44272e-06
6.5127e-06
7.07898e-06
6.4442e-06
7.45944e-06
1.05837e-05
8.26672e-06
8.1059e-06
8.45024e-06
8.82937e-06
7.85553e-06
8.75862e-06
6.70496e-06
6.82752e-06
6.66053e-06
5.35672e-06
6.14571e-06
6.25079e-06
6.11872e-06
6.24969e-06
2.75893e-06
3.33646e-06
5.29771e-06
7.10882e-06
3.6681e-06
3.56871e-06
5.28123e-06
5.98454e-06
3.86556e-06
4.77674e-06
7.78566e-06
7.87418e-06
4.23712e-06
4.89942e-06
6.23759e-06
7.0674e-06
7.46186e-06
1.01699e-05
9.9566e-06
1.14013e-05
7.81832e-06
9.71019e-06
7.96139e-06
1.02221e-05
3.219e-06
6.27363e-06
2.11155e-06
7.10289e-06
7.69008e-06
2.54301e-06
2.29164e-06
1.6996e-06
3.6863e-06
5.68219e-06
1.16407e-05
9.27909e-06
6.08861e-06
5.96e-06
8.48286e-06
7.45617e-06
3.97629e-06
8.52835e-06
7.65766e-06
6.03031e-06
5.9879e-06
6.17379e-06
5.82391e-06
6.27085e-06
7.74149e-06
2.97275e-06
8.00555e-06
4.36174e-06
1.11986e-05
1.07554e-05
1.32239e-05
8.85723e-06
7.80175e-06
6.78169e-06
1.17607e-05
9.37531e-06
7.94828e-06
1.10744e-05
8.13925e-06
1.05146e-05
3.1387e-06
1.03186e-05
6.58744e-06
8.92548e-06
1.04449e-05
1.04296e-05
9.65094e-06
9.93138e-06
8.42236e-06
5.67926e-06
9.02533e-06
8.87749e-06
7.88096e-06
7.88972e-06
8.69516e-06
8.38314e-06
1.03515e-05
1.04516e-05
5.95589e-06
1.36624e-05
1.06208e-05
1.06165e-05
1.01719e-05
1.0395e-05
2.22895e-06
1.83641e-05
6.10425e-06
1.13853e-05
1.05878e-05
9.19459e-06
1.03092e-05
1.8676e-05
9.96548e-06
1.04267e-05
1.25525e-05
1.15742e-05
1.00988e-05
1.00752e-05
1.13085e-05
1.26877e-05
9.99423e-06
1.16826e-05
1.02145e-05
1.04067e-05
1.00716e-05
1.01427e-05
1.01955e-05
1.0184e-05
9.99745e-06
1.36782e-05
1.27805e-05
1.51094e-05
1.36652e-05
1.33349e-05
1.38346e-05
1.37552e-05
1.01676e-05
1.46845e-05
1.23627e-05
1.0363e-05
1.04148e-05
1.38859e-05
1.04444e-05
1.29482e-05
3.73441e-06
3.43768e-06
5.53414e-06
7.87897e-06
3.96301e-06
3.71576e-06
6.21129e-06
5.7948e-06
3.85571e-06
5.31058e-06
1.05232e-05
7.33883e-06
4.23369e-06
5.51824e-06
6.20537e-06
8.96298e-06
7.59226e-06
1.18853e-05
1.03597e-05
1.01315e-05
8.02355e-06
1.07077e-05
9.44467e-06
1.12132e-05
8.39477e-06
1.39686e-05
1.23186e-05
1.34064e-05
9.43988e-06
8.36998e-06
9.42631e-06
7.66381e-06
3.75367e-06
5.97788e-06
8.64294e-06
8.17272e-06
6.0147e-06
5.95668e-06
7.49541e-06
8.06612e-06
3.99655e-06
7.79361e-06
1.00559e-05
6.07404e-06
5.89008e-06
6.14963e-06
5.81029e-06
6.37274e-06
8.62684e-06
7.07707e-06
1.19101e-05
1.21145e-05
1.03933e-05
1.15749e-05
1.11122e-05
1.15653e-05
7.95488e-06
1.13534e-05
1.06259e-05
1.07298e-05
8.20087e-06
1.03085e-05
8.56239e-06
1.00753e-05
1.17616e-05
1.14323e-05
1.03478e-05
1.04947e-05
1.13659e-05
1.14697e-05
1.12335e-05
1.0841e-05
9.81739e-06
6.96034e-06
7.30838e-06
7.19492e-06
8.4054e-06
6.9727e-06
7.59893e-06
6.1133e-06
7.65478e-06
7.45742e-06
8.03215e-06
7.76616e-06
7.21872e-06
7.43378e-06
7.17858e-06
6.81708e-06
1.10833e-05
1.49329e-05
1.118e-05
1.0373e-05
1.64873e-05
1.49181e-05
2.01727e-05
1.67886e-05
1.0433e-05
9.47462e-06
1.08518e-05
9.26237e-06
9.9387e-06
9.97215e-06
9.86031e-06
9.87611e-06
9.86446e-06
7.1954e-06
7.27929e-06
8.45406e-06
8.92956e-06
7.57952e-06
8.42249e-06
7.5113e-06
8.92061e-06
1.09414e-05
9.04082e-06
8.74146e-06
9.32113e-06
9.70582e-06
8.62448e-06
9.45167e-06
7.89284e-06
7.62059e-06
7.4894e-06
6.2826e-06
7.12823e-06
7.18136e-06
7.11138e-06
7.18037e-06
3.52949e-06
5.54784e-06
3.67389e-06
6.59348e-06
4.30147e-06
4.03029e-06
4.31195e-06
4.12565e-06
7.25292e-06
1.0289e-05
1.02046e-05
9.04273e-06
7.89805e-06
1.00236e-05
7.91908e-06
9.70771e-06
4.03736e-06
8.40203e-06
5.28422e-06
5.88201e-06
4.49912e-06
5.99479e-06
4.50513e-06
5.65726e-06
1.32992e-05
1.59756e-05
1.13046e-05
1.52983e-05
1.11794e-05
1.36097e-05
9.38644e-06
1.49255e-05
6.44402e-06
4.11562e-06
8.64496e-06
1.10463e-05
6.45533e-06
4.68992e-06
8.75961e-06
6.80084e-06
6.21317e-06
8.72927e-06
8.67939e-06
4.39339e-06
6.28174e-06
6.87422e-06
5.84108e-06
6.37916e-06
4.1132e-06
8.78724e-06
1.14009e-05
7.05687e-06
5.84598e-06
7.20824e-06
6.94765e-06
8.38766e-06
4.34475e-06
6.69482e-06
9.23926e-06
8.23833e-06
4.92843e-06
6.5647e-06
6.37979e-06
8.14279e-06
8.60778e-06
7.42498e-06
6.60157e-06
7.16021e-06
6.81801e-06
7.40482e-06
6.7827e-06
6.65617e-06
7.17069e-06
6.77875e-06
7.42114e-06
5.96631e-06
5.95846e-06
6.78821e-06
6.02587e-06
5.98262e-06
8.13173e-06
9.29394e-06
1.00217e-05
8.89167e-06
8.57925e-06
9.30825e-06
9.17722e-06
9.57958e-06
1.4791e-05
1.17539e-05
1.50737e-05
1.54849e-05
1.39618e-05
1.176e-05
1.51142e-05
1.38079e-05
6.1601e-06
6.57795e-06
7.23138e-06
6.63139e-06
6.33237e-06
6.35442e-06
6.32966e-06
6.33252e-06
7.14218e-06
6.04383e-06
7.44127e-06
6.72965e-06
6.35762e-06
6.07092e-06
6.69941e-06
6.86117e-06
7.14829e-06
7.53246e-06
6.91089e-06
8.54893e-06
7.19373e-06
6.93365e-06
7.37659e-06
7.23202e-06
7.41333e-06
8.6037e-06
6.47927e-06
7.97142e-06
7.71294e-06
7.47134e-06
7.65661e-06
7.43363e-06
8.77169e-06
1.38072e-05
7.72532e-06
1.84396e-05
8.76776e-06
8.59542e-06
8.93853e-06
8.24492e-06
1.78799e-05
3.70634e-05
1.32291e-05
1.83923e-05
2.82897e-05
1.63525e-05
1.62691e-05
2.76584e-05
6.85982e-06
1.08996e-05
6.46198e-06
1.40315e-05
6.73111e-06
6.62734e-06
6.813e-06
6.36476e-06
2.14414e-05
1.52801e-05
1.58256e-05
3.49496e-05
9.80654e-05
2.09704e-05
3.25451e-05
4.48068e-05
1.38263e-05
7.69829e-06
1.85613e-05
3.93605e-05
1.39383e-05
8.68561e-06
1.86313e-05
1.80627e-05
1.36954e-05
2.14637e-05
1.17073e-05
7.54853e-06
1.28733e-05
1.3743e-05
1.1899e-05
1.18472e-05
7.84976e-06
1.89858e-05
2.13749e-05
1.59324e-05
1.55673e-05
1.71221e-05
1.56347e-05
1.84689e-05
7.26591e-06
1.46832e-05
2.14173e-05
1.11362e-05
7.61636e-06
1.52563e-05
1.18481e-05
1.54591e-05
0.000223029
0.000149137
0.000128067
0.000194223
0.000101356
0.000115751
0.000116302
0.000104263
8.4027e-05
3.53736e-05
6.87327e-05
1.94447e-05
2.82616e-05
2.67762e-05
3.48391e-05
2.75916e-05
0.000116662
0.000129713
4.60175e-05
3.76588e-05
0.000110994
0.000110961
0.000159509
0.000121442
9.21837e-05
4.00941e-05
2.94783e-05
2.6213e-05
5.75611e-05
6.72084e-05
7.26538e-05
8.53484e-05
8.09425e-05
0.000104285
7.08467e-05
5.93004e-05
8.12368e-05
0.0001503
9.71108e-05
7.28469e-05
9.24871e-05
7.46335e-05
6.36136e-05
0.000118442
9.99004e-05
0.000114031
9.5747e-05
5.73451e-05
0.000132329
8.25722e-05
7.70159e-05
0.00012243
6.55413e-05
6.65817e-05
9.3197e-05
7.27163e-05
0.000116704
6.71574e-05
4.16024e-05
5.93882e-05
0.000141376
0.000107066
5.89792e-05
2.61206e-05
2.40382e-06
1.84342e-06
3.67174e-06
1.24083e-05
9.53585e-06
5.87118e-06
9.56872e-06
9.57453e-06
1.64986e-06
1.76539e-06
2.04921e-06
1.1454e-05
7.93266e-06
3.90196e-06
7.76379e-06
7.74158e-06
3.28865e-06
2.12843e-06
1.87939e-06
8.04046e-06
6.63542e-06
4.43894e-06
7.15269e-06
3.72297e-06
1.24893e-05
6.28896e-06
2.30281e-05
2.12178e-05
5.42927e-06
5.20261e-06
8.97503e-06
3.94603e-06
8.73682e-06
9.45599e-06
1.24312e-05
1.17621e-05
8.64033e-06
9.53358e-06
1.17885e-05
1.23412e-05
4.19291e-06
1.15125e-05
3.95161e-06
4.96274e-06
8.58004e-06
8.26352e-06
2.67888e-06
5.91786e-06
9.03207e-06
1.25051e-05
1.18232e-05
1.25481e-05
1.21493e-05
1.24052e-05
1.25219e-05
1.26439e-05
8.96167e-06
1.16889e-05
1.15714e-05
4.99608e-06
8.84413e-06
1.13812e-05
7.99732e-06
9.42196e-06
4.74163e-05
6.55468e-05
6.47006e-05
3.21726e-05
9.21395e-05
0.000138186
0.000246282
0.00010142
6.24609e-05
6.91994e-05
6.88394e-05
7.4933e-05
8.41195e-05
4.63914e-05
7.13779e-05
5.19893e-05
8.44222e-05
0.000118537
0.000158239
0.000126541
0.000118425
0.000136553
0.00013856
0.00012372
2.35222e-05
8.17618e-05
8.04855e-05
3.71678e-05
3.90432e-05
8.84082e-05
5.66785e-05
6.25983e-05
0.000137722
0.000100963
5.91976e-05
8.75145e-05
0.000132173
8.42596e-05
8.18426e-05
0.000203709
7.61293e-05
7.07581e-05
0.000112065
0.00015267
8.80691e-05
7.70306e-05
6.9969e-05
9.90884e-05
0.000204882
0.000185064
7.11696e-05
0.000109045
6.63714e-05
8.84861e-05
8.45592e-05
6.99959e-05
0.000116628
0.000106377
6.49983e-05
9.99865e-05
0.000100429
0.000123009
0.000147729
9.65576e-05
4.14868e-05
1.78962e-05
3.70499e-05
2.89483e-05
3.39202e-05
2.12911e-05
3.25043e-05
4.71772e-05
1.14641e-05
4.86882e-06
8.95e-06
1.21757e-05
4.20969e-06
7.2594e-06
4.98654e-06
8.23404e-06
2.76458e-05
1.77994e-05
2.59605e-05
1.76847e-05
2.84947e-05
1.17752e-05
2.70655e-05
2.51774e-05
2.40894e-05
1.46707e-05
2.06912e-05
2.36392e-05
2.01566e-05
1.89691e-05
2.32094e-05
2.99128e-05
8.24391e-06
4.20861e-05
2.62433e-05
1.28832e-05
7.41092e-06
2.03126e-05
1.07965e-05
1.45148e-05
5.94595e-06
1.62644e-05
5.32551e-06
1.03447e-05
9.97488e-06
1.22848e-05
1.00289e-05
1.85327e-05
2.83295e-05
2.65859e-05
1.58899e-05
2.05169e-05
2.41159e-05
3.55339e-05
2.23568e-05
1.76988e-05
3.318e-05
1.91459e-05
1.9266e-05
2.39183e-05
1.16476e-05
1.24031e-05
1.11528e-05
1.072e-05
2.15664e-06
1.85666e-06
3.33214e-06
8.48614e-06
7.57973e-06
4.63532e-06
7.68645e-06
7.66418e-06
1.73893e-06
1.75341e-06
1.65637e-06
9.06903e-06
7.01916e-06
4.18713e-06
6.92094e-06
6.926e-06
3.30369e-06
1.61806e-06
1.79563e-06
7.58127e-06
7.46549e-06
4.8398e-06
7.15323e-06
4.95209e-06
8.05888e-06
6.49825e-06
6.68996e-06
2.70816e-05
7.59022e-06
6.0236e-06
9.4295e-06
4.5161e-06
7.22299e-06
7.74355e-06
8.39247e-06
8.98296e-06
7.23185e-06
7.7073e-06
8.94847e-06
8.32903e-06
4.17675e-06
8.88528e-06
4.87968e-06
4.28036e-06
7.23347e-06
7.18708e-06
2.60067e-06
7.18642e-06
7.71448e-06
8.42313e-06
9.07712e-06
8.20952e-06
8.18672e-06
8.29089e-06
8.18726e-06
8.35582e-06
7.66618e-06
8.06356e-06
8.96311e-06
6.98314e-06
7.50511e-06
8.15615e-06
7.03657e-06
8.69354e-06
2.84028e-06
3.3912e-06
1.98605e-06
8.14426e-06
6.17101e-06
2.36974e-06
6.16254e-06
7.17934e-06
3.57445e-06
1.72468e-06
2.70791e-06
7.9307e-06
4.93098e-06
2.07996e-06
6.64148e-06