/*--------------------------------*- C++ -*----------------------------------*\
| =========                 |                                                 |
| \\      /  F ield         | OpenFOAM: The Open Source CFD Toolbox           |
|  \\    /   O peration     | Version:  2412                                  |
|   \\  /    A nd           | Website:  www.openfoam.com                      |
|    \\/     M anipulation  |                                                 |
\*---------------------------------------------------------------------------*/
FoamFile
{
    version     2.0;
    format      ascii;
    arch        "LSB;label=32;scalar=64";
    class       volScalarField;
    location    "50";
    object      omega;
}
// * * * * * * * * * * * * * * * * * * * * * * * * * * * * * * * * * * * * * //

dimensions      [0 0 -1 0 0 0 0];

internalField   nonuniform List<scalar> 
43136
(
8.4386
8.17786
9.52564
6.58788
7.76496
8.95576
7.68431
8.40741
7.89639
7.93866
8.40512
6.59241
7.5406
8.12786
7.57617
7.86166
10.5496
10.6697
11.467
6.68043
9.49666
11.103
9.07737
10.0198
6.07649
6.07858
6.11565
5.94888
6.03189
6.09218
6.04189
6.07689
7.55114
8.6106
6.39998
6.39765
7.5534
8.05674
6.56505
6.55306
8.95908
6.55307
10.0063
10.1678
8.28685
7.96599
9.84618
8.7191
8.36981
6.39611
6.40037
6.49116
6.61237
6.49773
6.52103
6.44859
9.3297
6.57877
6.49124
9.20978
8.83041
6.65657
8.55214
6.61228
5.96934
6.32894
6.13719
6.04691
5.99654
6.08465
6.02506
6.09062
7.45416
10.5964
8.7502
7.9954
7.77847
8.85481
7.98144
8.93983
6.75996
8.53965
8.66834
7.12351
7.01656
8.26742
7.20911
8.3526
6.13598
6.7551
6.4339
6.23681
6.18546
6.34373
6.22653
6.35118
6.44117
6.21949
6.08545
6.69559
6.56241
6.14792
6.59152
6.21998
6.81219
7.07871
8.27488
6.61548
6.85978
6.96921
6.86622
7.10988
6.29149
6.11933
6.75977
6.45267
6.29286
6.23146
6.37007
6.28806
6.64584
6.79875
7.08823
8.32344
6.71565
6.77728
7.31086
7.26952
7.28156
7.77931
8.02561
6.51312
7.26171
7.75841
7.02763
7.68278
9.08975
13.9068
15.853
6.91862
9.15856
12.4346
8.37536
12.3397
9.78878
16.8041
14.3795
7.32508
10.0963
13.3064
9.06575
13.0386
6.14115
6.18401
6.27223
5.98611
6.12038
6.20683
6.08783
6.18599
7.74526
8.06576
6.46724
6.56229
7.39003
7.41485
6.653
6.77263
8.84207
6.91475
13.4684
9.10712
8.81266
8.18577
9.89775
9.95428
7.66627
6.37466
6.44077
6.65767
6.90379
6.71079
6.85229
6.52572
9.03614
7.13696
6.87799
13.3019
8.48815
7.22362
8.93637
7.20328
2065.38
2053.56
2054.92
1283.87
2430.15
2055.63
2345.13
2171.26
2046.08
2034.78
2039.62
1114.72
2012.63
2036.58
1950.59
1968.15
2056.17
2048.75
2045
1140.38
1945.59
2051.53
1870.47
1919.04
246.007
263.417
360.435
28.6287
178.452
304.23
185.749
273.119
2168.2
2070.77
1125.48
1152.77
2089.65
2089.96
1324.69
1236.88
2048.14
1172.9
2051.55
2056.99
2052.25
1999.59
2051.18
1995.35
2004.59
1100.37
1123.21
1129.13
1209.15
1164.05
1156.85
1133.8
2013.39
1136.53
1132.68
1941.52
1920.33
1163.67
1910.69
1146.02
2033.03
2030.57
2047.59
960.609
2109.97
2037.23
2093.02
2070.13
2041.92
2051.76
2046.74
802.148
1980.42
2044.14
1905.54
1940.08
2071.72
2049.13
2068.07
850.415
2006.95
2069.5
1920.45
1963.99
165.774
174.361
278.423
23.6877
133.18
215.863
136.221
187.478
2008.68
2120.55
769.443
769.376
1969.33
2097.32
875.418
895.876
2037.02
820.151
2046.45
2065.08
2014.67
1945.19
2047.97
1959.93
2057.7
756.305
760.346
850.608
907.185
827.165
861.804
805.33
2085.58
853.847
787.794
1921.94
1997.73
866.749
1876.42
789.962
14.4169
12.7522
16.3979
6.90368
10.7435
14.705
10.5799
12.9472
9.21573
8.30893
9.59176
6.73103
8.1264
9.02201
8.13843
8.7118
17.5063
11.1976
15.1453
7.32711
11.7816
13.1985
11.7664
12.176
6.16588
6.13711
6.25424
5.97554
6.10891
6.21069
6.12406
6.19527
9.7808
11.5533
6.65447
6.58947
9.63552
10.1581
6.80272
7.00754
11.1483
6.86392
10.5974
15.2897
9.5953
8.41171
12.4914
9.58147
11.5462
6.67663
6.65162
6.90655
7.13994
6.89231
6.84862
6.6989
13.7169
7.09276
6.80209
9.6842
10.4037
7.18408
9.70169
6.9797
5.86273
5.96509
5.95776
5.87635
5.87102
5.91026
5.87762
5.91437
6.43361
7.56111
7.54873
6.48703
6.55222
7.11459
6.57044
7.09799
6.40788
7.5559
7.94254
6.47805
6.51881
7.2022
6.58287
7.13402
5.90114
6.05024
6.0332
5.9297
5.91851
5.97276
5.92933
5.97166
6.01743
6.00716
5.89108
6.05983
6.04479
5.93594
6.01834
5.94299
6.23451
6.26759
7.17687
6.2343
6.23057
6.28889
6.3573
6.48705
6.02734
5.90133
6.07579
6.05019
5.99771
5.94462
6.03209
5.96828
6.2274
6.20428
6.23909
7.06278
6.27953
6.22682
6.54363
6.455
6.0504
6.412
6.34666
6.06033
6.06239
6.15493
6.10477
6.18663
7.66909
10.3509
8.75395
7.63162
7.93164
8.34603
7.99029
8.28682
7.01619
8.08354
7.80333
6.54991
7.03945
7.42528
7.16527
7.3446
6.05126
6.38879
6.14289
6.02973
6.05444
6.11661
6.06981
6.10735
6.55153
6.41225
6.05915
6.50541
6.65564
6.25097
6.45639
6.14245
6.77285
6.68377
7.52328
6.6456
6.81177
6.9321
7.12264
7.15418
6.49257
6.08368
6.51003
6.27679
6.21686
6.13868
6.24077
6.18471
6.66293
6.36117
6.63075
7.48334
6.792
6.39725
7.25546
6.76137
1539.17
1544.23
1548.81
829.219
1479.51
1549.72
1434.76
1502.05
1538.64
1505.11
1528.32
1057.62
1724.05
1517.73
1698.59
1526.91
1547.27
1541.15
1549
932.078
1612
1548.24
1556.14
1511.36
149.973
175.769
209.648
25.5385
113.898
200.294
115.717
186.6
1535.69
1448.34
784.531
789.028
1526.49
1475.11
841.989
842.434
1542.78
1069.91
1537.97
1548.74
1520.07
1704.44
1545.93
1684.03
1416.89
767.231
775.894
752.953
813.844
820.201
766.791
760.707
1504.49
960.571
1025.25
1512.67
1605.73
1006.35
1633.17
1017.87
5.92539
5.95139
5.8684
6.06979
5.97182
5.93108
5.98259
5.95773
5.97406
6.00314
5.87732
6.09544
6.03197
5.97169
6.04483
5.99739
5.85635
5.85884
5.85275
5.90065
5.8674
5.85723
5.86962
5.86309
6.46603
6.44275
6.18413
7.03952
6.6532
6.48987
6.70004
6.6554
5.99981
5.88967
6.22116
6.27334
6.02398
6.02433
6.10093
6.12804
5.94982
6.15488
5.87262
5.86845
5.98927
6.0588
5.87515
5.90352
5.89283
6.25375
6.31896
6.0473
5.95033
6.21644
6.02953
6.36525
5.88152
6.01587
6.24971
5.89055
5.90834
5.96452
5.91076
5.95509
5.96833
5.91648
6.28824
6.01694
5.95908
5.97555
5.99036
6.00546
5.8885
5.91061
6.31683
5.92866
5.90649
5.93363
5.92907
5.96036
7.29473
7.61105
9.90575
7.70267
7.70563
8.03737
8.05762
8.30779
6.01885
5.95947
6.3927
6.01401
5.98933
5.99271
6.01678
6.03473
5.90595
6.37386
5.97277
5.93538
5.92579
5.97504
5.9309
5.96842
5.92152
5.95485
6.48273
6.4837
5.94731
5.96342
6.24403
6.33094
6.50486
6.00089
5.95994
6.48833
6.42759
6.01698
6.38958
6.00285
6.58016
6.58879
5.98792
6.5574
6.5408
6.48039
6.43249
6.36788
6.19552
6.90701
6.12531
6.85462
6.44089
6.56114
6.49327
6.61267
7.75818
8.71349
6.75621
8.5801
8.25847
8.1126
8.03164
8.19934
5.99068
6.12135
5.94265
6.24299
6.08076
6.04697
6.04268
6.0595
7.85996
8.69474
7.28129
10.4383
8.36206
8.3058
8.58073
8.6416
7.26991
6.32682
7.23037
8.1678
7.21373
6.72701
7.73014
7.2604
7.25399
8.06894
6.59153
6.24551
7.36248
7.49749
6.4433
6.69977
6.26259
7.30134
8.09116
6.73169
6.4593
7.34735
6.72358
7.54595
6.27328
6.74564
8.18474
6.58722
6.33322
6.65131
6.56801
6.83242
6.03526
5.95046
5.99008
6.71228
6.11904
5.99793
6.3848
6.1913
5.93064
5.92324
5.90389
6.2606
5.98861
5.943
6.06414
6.00271
5.9178
5.88201
5.90062
6.32168
5.95807
5.89235
6.07241
5.94928
7.96726
7.3092
7.67114
10.0501
8.30251
7.69532
8.9205
8.21814
6.02117
6.07876
6.87969
6.56217
6.13504
6.27282
6.40128
6.63964
5.96128
6.39539
5.90089
5.93956
6.06053
6.11108
5.91893
5.96665
6.19785
7.25124
6.80947
7.11552
6.57668
6.96082
6.72552
7.09381
6.04685
6.61295
6.60396
5.94616
6.07875
6.35028
6.02262
6.23517
11.7926
8.44319
7.92788
10.8766
10.1969
8.47953
9.8657
8.14857
6.93448
6.25471
6.14687
6.68475
6.57001
6.26255
6.52796
6.19008
6.43868
6.05013
5.98116
6.40209
6.21697
6.04851
6.17975
6.00571
9.85004
7.75808
7.42731
9.95989
8.99463
7.8383
8.84239
7.5989
7.70715
7.36647
9.31219
7.37582
7.60998
7.56975
8.01508
7.99688
6.92776
6.7373
6.1423
6.66602
6.75722
6.51977
6.64881
6.41521
7.23961
9.12509
7.31277
6.9529
7.55393
7.71788
7.05115
7.27516
6.51391
6.4828
6.61802
6.08278
6.32861
6.59425
6.36827
6.56191
7.32274
8.85436
8.38626
6.74565
7.34847
7.92776
7.0888
7.7384
14.3413
24.8546
20.4799
8.66299
14.6419
21.0626
12.2456
20.3585
10.3713
14.2343
11.8494
7.94361
10.4306
12.5371
9.42794
12.0679
6.34306
6.54844
6.51508
6.07974
6.31829
6.48573
6.2252
6.43866
8.92379
8.43044
6.72009
7.35581
8.21138
7.53516
7.3827
7.0359
10.6968
8.10952
16.2805
9.59181
10.0329
9.57159
11.9524
12.1405
7.91815
6.564
7.04107
6.96122
7.27567
6.94447
7.24562
6.77831
9.11912
7.6526
7.93781
15.5519
8.76023
7.77268
10.4408
8.01504
8.7693
9.20622
11.6686
6.78078
8.0819
10.4245
8.25584
9.77556
9.92636
11.4536
14.2397
7.85545
9.20921
12.5289
9.39184
11.7779
16.3942
20.675
25.2064
8.59865
14.6369
22.5483
14.7141
20.1562
6.21855
6.46227
6.5064
6.05845
6.19078
6.4137
6.22172
6.37934
8.39053
10.5846
6.60079
6.87407
8.55961
9.34522
6.99675
7.08384
11.1994
7.67039
17.5918
14.5776
10.4651
10.0577
12.5505
11.4267
10.6604
6.65974
6.94155
7.2532
7.40326
6.97907
7.22371
6.97883
13.3883
7.86258
7.48321
15.7525
12.6856
8.12103
11.5396
7.94519
7.09739
6.60598
8.0538
7.535
7.03812
6.89917
7.49726
7.49122
6.2549
6.04358
6.54588
6.2917
6.20813
6.15829
6.33279
6.297
9.75145
8.20899
11.8044
11.2579
9.53322
9.0042
10.7961
10.4903
8.64553
7.3691
11.8459
10.9994
8.62327
8.06105
9.97798
9.72357
6.54902
7.96867
7.53103
6.70731
6.81272
7.22907
6.75606
7.22647
6.45863
6.55572
6.85858
7.65429
6.77928
6.59887
7.12528
7.06085
8.86117
8.36041
7.17767
10.2449
9.11599
8.31101
9.07366
7.88213
8.80854
9.80015
7.10076
7.47934
8.29865
8.49473
7.5775
7.75649
2720.28
2431.73
435.545
422.899
2584.45
2529.29
893.947
1074.23
2197.09
1996
524.973
571.726
2121.31
2055.88
1151.99
1171.52
61.8315
76.4626
13.8207
13.2974
64.4505
67.1325
20.6958
23.1569
50.894
76.9946
13.443
14.5784
55.9902
59.4221
20.2234
23.3635
2340.71
456.158
452.732
541.07
1107.2
1037.26
529.707
479.4
2260.39
553.752
512.88
460.624
1157.95
1118.18
500.056
501.641
116.714
121.427
194.204
20.5733
49.3787
167.275
58.7695
164.326
140.051
24.0298
220.019
166.987
139.255
61.7995
154.341
71.1386
3125.92
2626.2
1063.48
747.019
2916.87
2737.64
1388.92
1535.86
2286.77
2038.51
1083.71
901.957
2179.06
2096.64
1530.6
1524.29
168.721
216.815
18.9748
21.423
185.755
187.427
36.064
50.2304
88.4231
123.999
17.3409
17.358
94.2203
96.1388
23.0876
29.3986
2479.04
1088.07
773.839
866.713
1547.16
1498.2
867.731
813.758
2367.58
875.45
1072.48
1068.78
1581.69
1537.15
1092.07
1094.15
323.892
173.657
293.661
28.8304
107.833
246.753
114.249
240.672
445.465
36.7781
339.26
592.631
453.605
126.902
534.28
159.445
2539.04
430.147
1663.39
483.457
1727.33
1752.15
1662.16
1684.18
41.9263
11.7641
47.2839
11.0443
27.6065
30.2647
35.5875
32.241
1552.94
547.14
1459.02
521.26
1503.75
1489.6
1456.47
1449.8
82.1634
12.8195
75.1476
14.3262
53.4993
58.0202
60.5583
59.2152
254.372
1616.35
324.859
42.4761
362.714
1622.74
68.3569
424.618
302.946
51.1068
448.277
1604.45
335.084
329.545
475.142
408.392
1559.44
345.845
57.7968
448.603
488.343
392.018
444.377
383.045
1555.8
475.193
53.7016
460.805
1501.79
501.571
477.189
75.2827
6.16231
6.78466
6.08291
6.64986
6.37077
6.43258
6.38412
6.50829
7.43758
8.13556
6.46478
7.73589
7.88676
7.54826
7.47329
7.41291
5.90739
5.97085
5.86386
5.97298
5.94913
5.91501
5.91815
5.90829
7.16427
7.61187
6.48249
7.7202
7.53734
7.31008
7.3648
7.24925
7.0861
6.25053
6.95948
7.74765
6.91754
6.60777
7.38208
6.87636
6.88995
7.39695
6.32858
6.09042
6.95906
7.01652
6.24947
6.45759
6.0828
6.79197
7.34687
6.32055
6.22198
6.85724
6.38805
6.9086
6.07569
6.2548
7.3183
6.2662
6.09787
6.26159
6.28189
6.40184
62.3508
52.5564
275.869
44.9066
55.4974
59.0381
57.1902
59.0213
41.8998
19.6844
219.719
22.6808
40.0835
57.3455
35.2385
61.1213
1002.82
1047.05
1923.7
877.512
1041.5
1329.29
1000.8
1461.92
29.3446
18.0913
132.371
18.4654
26.6651
30.7529
26.1974
34.3043
52.6313
274.326
39.9745
28.7768
44.5759
50.4886
29.5819
40.6142
79.0988
39.4928
574.904
362.983
82.2971
62.4771
353.314
354.876
262.706
41.3784
25.1921
192.394
223.438
44.0544
213.173
37.6559
355.055
348.489
42.6655
624.566
335.599
306.879
300.488
163.745
11.1066
8.18021
8.0828
10.4417
9.48
8.45807
9.34451
8.19328
6.50281
6.0195
5.98518
6.25874
6.16113
6.02639
6.14902
5.99559
6.45553
5.95994
5.94806
6.27477
6.09675
5.97604
6.08529
5.94977
10.2143
7.34786
7.34788
10.3738
8.79447
7.58699
8.77267
7.48152
7.08736
7.1395
8.91978
6.77141
7.12376
7.29349
7.71057
7.96932
6.58456
6.3215
5.99862
6.61136
6.50559
6.18673
6.499
6.13734
7.14017
8.89481
6.81221
6.79743
7.78922
7.87694
6.83128
6.96419
6.4823
6.30427
6.28504
5.9687
6.14991
6.35981
6.1261
6.27048
5.90788
5.94565
6.10749
6.04899
5.9234
5.9417
5.98867
5.99385
5.99821
6.06014
6.27488
6.26114
6.0278
6.06239
6.12829
6.14345
7.00006
7.14246
9.75131
7.88003
7.1391
7.35613
8.308
8.2942
6.62651
6.94799
7.57961
8.76186
6.86752
7.01691
7.56636
7.57392
5.97153
6.15375
6.10736
6.21911
6.0538
6.03628
6.15805
6.1601
5.99609
6.27692
6.30783
6.22751
6.06601
6.10702
6.19871
6.23271
6.48296
6.32891
6.45314
7.26331
6.53484
6.33919
6.644
6.41794
6.5019
7.274
6.46425
6.56127
6.59856
6.78837
6.5463
6.70655
4535.35
4869.4
2184.64
1040.78
3922.4
4062.71
1690.63
1949.04
5212.59
5629.74
3523.92
1662.47
4392.74
4679.65
2323.15
2908.13
1913.91
2240.09
2476.24
1000.51
1761.54
2037.01
1245.12
1870.44
235.639
404.827
262.153
60.8272
210.66
333.178
104.567
190.587
4123.97
1937.45
920.159
1199.66
1924.4
1922.68
1370.74
1174.96
4451.99
1471.64
2960.6
2256.4
2309.62
2334.79
2726.03
2451.97
1050.69
412.218
623.587
383.525
715.218
576.637
646.817
602.311
1502.33
709.449
883.414
1910.92
1591.49
967.846
1584.01
1132.42
2265.75
2227.49
2137.64
936.479
1933.45
2201.28
1793.12
2105.51
3361.28
4376.12
3359.19
1706.66
3190.48
4294.24
3049.58
3929.38
2525.31
2785.51
2519.43
1375.6
2438.75
2738.21
2225.97
2595.48
265.103
442.929
414.906
68.4685
257.101
443.699
249.542
366.337
2247.48
2238.51
809.511
1091.2
2233.42
2055.08
1119.78
1113.15
3297.72
1687.16
3294.45
2871.83
3017.65
2803.99
2925.14
2869.55
2110.86
776.608
1073.73
1030.93
1070.03
1044.01
1108.89
978.069
2618.51
1294.88
1467.4
3033.56
2402.59
1501.69
2606.43
1518.46
3924.53
4677.82
2381.83
643.993
3289.18
3879.71
1276.29
1887.32
5031.65
5041.39
3213.25
1523.13
4202.78
4508.07
2468.57
2787.33
2268.29
2527.04
2669.96
994.851
2025.7
2328.61
1297.4
2070.33
109.182
265.339
225.532
25.3322
96.829
210.793
47.5999
164.593
3873.33
2048.36
536.399
949.317
1957.88
1935.82
1139.45
871.828
4336.76
1286.29
2934.25
2509.75
2429.85
2475.73
2925.68
2612.18
973.093
213.554
456.244
317.721
560.473
390.793
502.96
437.728
1650.5
671.249
770.313
2159.71
1799.35
883.273
1817.12
1114.37
2566.96
2440.07
2089.24
1043.23
2327.7
2316.52
2262.86
2266.05
2839.22
4112.45
2272.3
1301.71
2786.43
2756.76
2317.67
2450.16
1839.88
1833.48
1694.86
739.136
1793.03
1795.91
1651.64
1691.37
295.416
262.46
180.962
27.7884
237.35
245.073
185.592
204.633
2304.98
2063.57
919.457
924.618
2075.71
2096.06
1043.78
929.334
2290.97
934.272
2027.24
2057.74
2143.71
1995.26
2097.77
2038.89
1858.31
842.217
796.296
640.713
929.808
871.658
871.172
797.011
1918.7
724.27
842.155
1874.69
1784.85
875.075
1803.14
855.665
4876.6
5462.59
2495.95
1090.08
4126.65
4609.31
1799.39
2198.09
5650.46
5625.65
4036.54
1928.01
4649.17
5128.3
2665.75
3351.18
2332.44
3129.69
2756.51
1297.9
2160.64
2726.45
1655.48
2266.84
239.783
490.176
369.511
63.0994
211.111
396.685
104.834
255.274
4465.91
2206.57
931.054
1341.46
2185.46
2181.07
1540.1
1304.39
4931.12
1711.12
3621.67
2686.64
2654.26
2679.95
3100.05
2788.68
1336.05
427.692
790.675
544.879
947.577
721.392
849.259
769.505
1915.22
970.343
1187.85
2627.4
2034.84
1299.33
2082.51
1525.4
2648.7
3019.48
2721.38
1230.53
2468.63
2987.33
2379.97
2775.31
3772.3
4253.58
3161.76
1952.22
3497.63
4167.57
3274.38
3851.38
2637.23
2600.7
2346.43
1446.97
2477.49
2562.58
2254.29
2486.32
364.335
534.982
449.741
70.7348
337.558
534.132
315.605
423.414
2907.78
2705.38
1104.22
1388.77
2789.69
2596.86
1475.13
1463.99
3711.41
1927.64
3105.33
3115.65
3344.8
3041.8
3168.49
3001.54
2471.71
1054.97
1329.31
1226.84
1342.38
1338.39
1341.67
1217.25
2787.48
1457.28
1682.82
2927.38
2512.39
1684.53
2699.94
1704.75
4595.53
2356.8
4611.02
1483.41
3035.92
3799.35
2986.57
3523.48
2119.89
2596.15
2533.49
1241.88
1753.6
2435.64
1743.38
2267.85
4794.86
3202.46
4750.32
2174.03
3819.11
4343.16
3746.01
4108.49
401.081
416.763
662.318
100.847
248.159
508.234
250.355
439.457
1736.32
3550.27
954.528
742.167
1726.2
2783.63
988.081
1412.04
2398.83
1267.51
2947.74
4106.86
2218.29
2012.32
2691.79
2311.71
3479.65
952.823
758.305
1406.14
1798.56
1297.27
1408.08
1076.42
3866.98
1728.45
1140.44
2763.54
3175.17
1850.11
2290.61
1405.86
2195.43
2430.97
2582.3
1573.09
2228.62
2396.29
2163.31
2415.42
2859.33
3696.49
3423.16
2183.49
3361.08
3633.93
3397.67
3892.77
2608.58
2649.4
2485.76
1240.71
2582.85
2615.9
2228.41
2340.1
603.845
718.263
460.499
112.529
557.845
716.13
452.236
509.862
2651.86
2749.36
1584.04
1891.54
2649.3
2492.08
1850.9
1827.73
2807.01
2174.52
3364.14
3059.32
3016.57
3188.5
3111.18
3231.34
2503.64
1439.11
1676.43
1209.71
1561.77
1615.18
1540.03
1550.11
2710.31
1249.64
1834.19
2895.24
2622.22
1563.53
2786.8
1574.29
918.638
525.841
1165.46
374.281
941.552
975.422
934.86
1049.47
122.536
17.7343
160.012
23.1891
115.589
115.919
116.43
127.942
1497.71
840.395
1719.05
643.491
1527.92
1583.42
1533.45
1724.83
44.6846
16.1923
55.7827
11.1105
37.7834
43.0358
34.7478
39.2326
529.653
1197.62
372.151
125.792
529.994
983.498
132.727
393.38
540.915
130.975
733.27
1240.69
607.535
540.555
705.492
711.628
1196.75
359.648
123.494
496.369
508.276
427.928
508.66
376.148
1344.89
586.725
139.913
807.232
1249.94
532.491
704.665
178.218
7.15148
8.12537
7.98346
7.60545
7.49888
7.936
7.56869
7.90526
9.89757
14.3496
20.9449
19.8449
11.166
13.4834
13.582
17.2572
10.1068
25.9779
26.3929
32.1224
15.6195
20.2845
19.3936
25.1427
8.80873
27.4891
36.2406
20.6516
10.6094
18.8275
13.5189
29.2541
8.83311
8.72868
8.33014
10.6434
9.01596
8.80151
9.25516
8.98435
9.58532
15.0926
17.0138
9.43303
9.6316
13.1808
9.80031
12.9511
8.98187
8.53548
14.9326
19.2601
9.58188
9.20695
14.5167
14.716
9.75002
28.0125
21.9076
22.5179
16.3373
21.5157
16.9087
29.7385
2383.39
2370.59
2391.96
1063.91
2239.58
2388.54
2169.55
2280.43
2349.43
2349.48
2351.03
1117.2
2233.35
2345.04
2182.63
2269.96
2368.77
2356.79
2356.97
1268.94
2542.45
2358.98
2679.79
2746.9
271.256
215.86
166.808
26.4828
206.234
242.397
145.014
142.332
2252.09
2367.3
1096.65
1015.6
2213.34
2274.75
1021.37
1137
2367.54
1053.58
2351.84
2394.3
2303.56
2328.99
2371.58
2427.84
2391.21
1095.94
990.718
1026.29
1201.28
1135.21
1136.12
1100.97
2496.7
1022.89
1007.8
2441.25
2621.2
1169.92
2439.4
1142.07
7.5288
7.67768
6.75937
7.92739
7.30848
7.20721
7.31066
7.0156
8.69314
9.96432
7.25909
7.99278
8.52508
8.83226
8.15928
8.09713
6.33379
6.31905
6.08654
6.30251
6.25509
6.21786
6.22934
6.15056
8.67594
7.6777
7.04606
9.123
8.17435
7.61851
8.24608
7.51193
7.53884
6.62509
7.60251
7.53596
7.38064
7.06714
7.61145
7.28846
7.66917
7.48422
6.72714
6.57072
7.23309
7.34865
6.83305
6.72295
6.59003
7.68574
7.47043
6.69723
6.82097
7.18278
6.69455
7.26138
6.46106
6.45107
7.2053
6.52095
6.47564
6.55446
6.62425
6.77278
6.83662
14.9978
7.96361
8.19042
7.12721
7.76525
7.43186
7.79244
169.939
3416.5
1025.25
602.482
325.09
1444.62
381.662
1158.47
11.7752
141.271
16.9511
18.8372
14.6304
19.7947
15.3423
18.7349
10.8495
69.6462
15.474
15.4801
12.3078
15.8487
13.0601
15.2002
21.6856
8.57901
8.97698
66.2129
26.2794
8.81373
44.2233
11.6329
57.521
108.91
243.013
12.7118
51.2514
85.747
50.1358
68.08
9.06253
9.46506
68.1239
13.8561
10.8159
11.1167
12.9629
14.6734
11.74
19.3304
95.3339
186.78
17.6596
21.0374
73.9445
90.3333
2344.56
2337.63
2348.48
1213.82
2175.78
2345.09
2080.7
2175.97
2334.84
2333.89
2339.67
1231.36
2193.8
2334.01
2142.38
2242.07
2351.08
2341.21
2351.25
1390.48
2328.18
2348.47
2350.77
2400.96
425.43
276.68
313.97
28.6835
336.959
378.468
260.605
256.16
2172.02
2236.88
1210.7
1214.2
2083.72
2125.63
1203.73
1239.84
2336.42
1252.04
2339.09
2351.83
2183.45
2134.34
2338.66
2229.53
2185.84
1215.8
1209.07
1236.16
1291.09
1245.24
1264.76
1232.16
2270.58
1264.55
1236.64
2270.69
2236.61
1323.3
2188.87
1337.32
2337.7
2347.71
2355.78
1183.29
2159.94
2357.7
2054.52
2240.79
2355.68
2370.29
2379.44
1145.92
2476.2
2378.29
2392.27
2314.68
2355.72
2382.6
2380.89
1148.54
2186.98
2387.56
2077.17
2254
248.457
215.88
309.353
23.8179
137.209
283
140.85
269.119
2242.97
2053.19
1103.9
1088.18
2196.35
2093.84
1203.84
1214.2
2360.9
1204.09
2387.24
2364.06
2295.58
2379.82
2363.48
2348.34
1982.65
1078.03
1075.52
1029.22
1174.34
1175.28
1054.2
1059
2235.43
1157.33
1172.07
2285.87
2158.7
1194.8
2236.19
1191.08
2360.07
2385.24
2366.45
950.597
2170.19
2375
2213.36
2428.32
2427.78
2456.12
2437.16
1516.7
2706.51
2448.24
2708.03
2381.98
2377.03
2418.73
2397.01
1348.7
2689.87
2407.09
2782.02
2437.95
166.246
181.863
96.8719
20.7823
97.6787
146.704
61.3731
94.9577
2600.89
2434.84
866.854
1179.78
2610.77
2650.5
1402.03
1334.03
2420.48
1526.66
2427.99
2386.45
2451.17
2837.82
2394.97
2738.97
2406.56
788.846
1125.2
680.87
1223.24
1238.34
857.525
1073.5
2397.03
1311.23
1473.62
2376.38
2862.15
1477.93
2743.94
1530.49
876.719
529.99
498.615
357.633
779.578
571.582
798.456
527.512
184.61
39.1212
39.3304
40.9106
66.5714
44.1367
62.2268
37.6234
116.642
36.1862
16.6037
23.7303
90.5234
39.8214
91.2441
29.447
47.8711
21.8354
17.9447
11.401
31.2739
22.9578
30.9071
19.0871
301.687
420.6
280.294
67.9655
299.476
348.774
151.911
167.707
207.257
46.4789
44.0413
205.903
182.353
70.4114
183.769
74.1536
428.489
284.538
64.9589
99.1198
131.871
145.32
98.61
79.2255
165.802
36.4894
41.5254
37.5262
80.9948
47.6742
70.524
42.815
1579.68
1597.56
1588.9
663.291
1579.78
1591
1624.77
1594.99
1619.02
1641.95
1635.9
971.742
1916.67
1636.22
1978.28
1647.79
1601.28
1631.75
1626.62
803.302
2230.73
1626.55
2443.99
1738.84
89.7072
85.8274
51.5804
12.7704
42.5545
68.6884
29.3117
50.0832
1775.17
1803.59
579.835
641.754
1816.84
1841.9
862.56
830.523
1612.82
957.402
1631.37
1600.53
1621.01
2024.57
1606.81
2037.66
1879.14
540.682
609.204
416.454
787.453
780.232
489.779
579.954
1627.82
780.718
916.913
1675.05
2186.79
882.835
2158.18
947.206
5.89471
6.09926
5.93765
6.03303
5.98886
6.00494
5.97756
6.00816
7.07194
9.74053
7.84693
7.8663
8.49849
8.93221
7.89702
8.21843
6.02445
6.92884
6.17647
6.71047
6.47064
6.6007
6.41085
6.37042
6.63164
7.56806
7.46804
8.76958
7.51467
7.38776
7.8067
7.81013
6.53636
6.13047
6.32313
7.31384
6.43893
6.15865
6.54451
6.33109
6.69181
7.41992
7.34512
6.18739
6.62171
7.19508
6.40758
7.13964
6.13135
6.41392
7.29578
6.92456
6.28881
6.48867
6.85216
6.93112
6.19985
6.98796
7.4031
7.17573
6.52264
6.85119
7.01646
7.17786
67.7801
41.6453
240.145
53.9807
68.2618
63.3657
77.071
90.4612
24.8052
14.4371
80.7553
14.0414
24.0922
22.7406
26.1803
31.0715
840.018
520.049
1895.05
564.912
867.534
820.301
1005.61
1241.7
26.8827
14.2933
79.6509
15.0583
25.6513
24.2665
26.881
32.5226
41.0566
241.231
53.195
25.6315
45.4272
72.5627
26.568
49.8227
38.5744
23.8793
135.962
223.215
54.4482
42.3564
147.516
144.616
270.958
58.398
27.9243
208.042
189.259
74.9488
186.751
55.3418
318.883
267.297
32.9104
198.915
255.74
171.322
157.227
73.8014
6.4807
7.59803
7.70866
7.14928
6.5866
7.09734
6.89396
7.19566
8.8154
11.9539
11.2867
8.77457
8.91999
9.64602
9.11246
9.84914
9.82283
11.996
14.4288
12.4802
10.0348
11.8462
11.4579
12.3801
8.27563
8.42834
11.1162
10.2721
8.46573
8.69437
9.29973
9.33568
7.70801
7.8984
7.34479
7.88885
7.83765
7.38164
7.77519
7.59954
8.53488
8.59181
10.7976
8.75899
8.60432
8.90914
9.77064
9.8753
8.49306
7.77695
8.27396
10.2878
8.91909
8.00636
9.10231
8.34512
8.90857
10.2565
8.7444
10.8815
9.11106
9.46634
9.95767
9.82379
1777.29
851.85
1961.39
642.38
1801.85
1842.09
1830.7
1905.79
150.204
15.4757
152.766
20.5503
108.759
93.0889
122.454
88.9318
2176.68
1125.1
3296.58
551.464
2271.17
2345.11
2295.1
2446.62
46.7863
13.1262
40.9008
10.493
30.333
34.5478
27.167
26.3204
808.176
2004.25
563.412
115.472
833.38
1923.06
170.42
604.843
801.094
129
733.826
2051.16
786.81
742.394
839.229
761.584
2036.88
517.401
102.419
359.829
562.085
505.675
439.352
429.838
2132.1
336.576
84.1423
695.811
2171.95
507.221
798.275
138.545
7.82621
8.63189
7.84591
8.42995
7.95533
8.14453
7.94689
8.11061
10.5643
13.9257
11.9058
11.6617
11.196
12.4947
11.1227
12.2166
8.75697
11.194
11.234
8.46212
8.72437
10.4545
8.61907
10.4159
9.28081
10.6105
8.15109
10.0446
9.40384
9.17099
9.33513
8.90839
9.02066
7.93279
8.62209
9.94656
9.00644
8.35077
9.36534
8.53565
9.64107
10.1407
11.228
8.72756
9.59759
9.97223
9.19615
9.48637
7.82949
8.59509
9.93356
7.98379
7.90496
8.42409
8.09523
8.83078
8.72213
8.61024
9.91112
11.0784
8.7109
8.64425
9.24726
9.33317
855.531
575.425
523.132
355.718
615.824
591.739
595.214
576.446
216.565
53.1318
65.3445
35.86
60.6684
54.3378
44.3246
46.9069
185.061
58.5144
38.8137
41.0825
65.0967
59.823
55.7635
52.5825
50.2652
25.0014
22.2606
11.9265
24.8403
25.3637
23.349
24.5265
239.686
260.382
184.869
37.8307
198.124
219.424
174.468
179.011
221.185
36.6376
66.8939
243.991
198.876
51.5436
239.108
73.9226
235.592
177.413
31.1073
47.4968
152.995
170.54
53.7407
36.1067
225.408
46.2036
33.5981
58.0742
65.0974
50.7794
58.64
49.612
1726.76
1065.06
1706.17
949.285
1433.5
1336.08
1465.14
1356.19
566.863
205.414
523.881
173.965
334.027
311.523
333.412
308.475
1707.21
1189.13
1944.09
1015.11
1402.01
1406.34
1434.07
1434
229.794
102.537
272.322
28.1759
150.445
154.545
152.946
147.964
758.133
1390.23
709.343
280.986
766.558
1007.58
520.94
698.464
750.64
267.505
725.74
1304.63
758.637
479.534
1025.8
723.663
1425.65
719.305
280.254
737.671
954.734
699.058
722.825
434.837
1325.55
637.555
263.075
734.999
983.565
643.59
729.37
470.691
6.26218
7.03193
6.18435
6.85143
6.53056
6.61826
6.4989
6.60515
8.59929
11.6491
7.9157
10.7947
9.7104
9.69659
9.07322
9.51943
6.03497
6.43375
5.96676
6.36846
6.135
6.1363
6.06704
6.10916
7.95527
9.68457
7.34273
9.88953
8.61094
8.63994
8.18886
8.47275
7.58114
6.36935
7.26755
9.05286
7.43319
6.80977
8.2388
7.39252
7.63453
9.08293
7.14681
6.37226
7.63785
7.82949
6.80289
7.13909
6.25953
7.14254
8.52045
6.64986
6.59508
7.32932
6.88897
7.514
6.31676
6.78914
8.83934
7.05893
6.40789
6.91017
6.89966
7.52937
7.32781
8.75044
8.22054
8.39136
7.80474
7.86416
8.22325
8.25012
13.9063
25.3405
19.4903
20.9006
19.2933
19.5101
19.5571
20.469
9.91746
13.6023
17.9389
16.9132
11.1307
11.2985
16.6316
16.5208
10.398
14.42
14.7897
12.8367
12.146
12.3021
12.9388
13.3765
10.2018
8.96046
9.34374
15.0162
11.0236
9.19142
11.6799
9.47726
10.339
15.2784
13.6081
9.05118
11.1304
14.2419
10.8653
13.3692
9.80802
10.0953
14.0582
14.6871
10.1139
10.1312
11.477
11.7726
9.81724
14.8229
14.6944
13.9879
11.2425
11.7246
13.6232
14.2665
75.5508
57.3093
278.779
112.355
78.1206
71.8755
106.742
104.19
43.7105
24.8408
88.1576
42.4953
44.8424
38.9543
61.1675
66.1404
819.131
550.801
1530.76
1036.79
873.634
798.456
1184
1329.03
156.389
74.2492
531.915
112.27
166.974
150.176
230.963
300.144
60.0989
297.082
118.605
94.3295
82.7184
98.5478
89.6441
113.781
54.2962
84.5489
185.029
268.505
78.8033
74.2841
215.365
227.212
445.452
164.935
138.942
718.427
500.193
171.616
531.463
158.816
432.183
824.847
173.22
412.596
425.186
481.081
381.114
287.897
3614.63
978.904
330.036
359.573
1374.01
906.148
335.298
349.7
126.238
14.0238
10.44
11.9325
18.0881
14.3666
12.5855
10.7154
19.5485
7.82122
6.56404
7.29302
7.9919
7.51144
6.98961
6.73036
28.5329
9.93065
8.52666
9.92619
10.6793
9.73474
9.50991
8.80014
130.97
49.6443
57.4048
14.9337
74.7443
77.2534
73.403
56.3027
115.801
11.7225
10.0689
51.7039
58.4686
13.4704
55.1229
11.2463
21.9225
28.9983
10.131
7.99242
21.8042
23.5542
9.19938
10.1196
20.3934
7.58528
9.30302
8.11615
8.83709
8.52335
8.86545
8.99889
1826.08
1810.2
1083.3
1009.36
1803.85
1725.92
1180.24
1151.13
1778.18
1837.66
988.699
1163.02
1806.1
1736.61
1049.71
1059.19
579.678
618.553
256.586
197.323
519.832
534.276
266.315
288.239
226.005
330.712
110.198
40.7159
176.047
182.598
92.6406
105.433
1759.78
1002.59
940.238
952.384
959.691
993.364
963.546
915.762
1677.44
934.727
896.193
972.468
943.695
918.335
932.436
902.068
606.286
463.28
371.844
193.871
489.99
478.137
388.588
314.428
605.204
208.458
433.652
560.276
483.422
395.907
504.048
463.277
20.706
19.8151
7.13271
23.1298
18.815
13.7117
16.879
11.6483
15.1372
9.34845
6.60852
14.8288
12.5915
8.18711
10.814
7.48184
6.21605
6.12973
5.98138
6.18876
6.17316
6.10246
6.15613
6.05216
24.542
18.0162
7.07972
17.1422
18.5788
10.9509
12.1342
8.31832
17.5515
6.98954
20.0214
17.6182
14.4358
12.2907
22.4698
13.5281
10.8214
9.74856
6.4821
6.65391
9.35504
9.51645
6.84164
6.69118
6.83673
16.4472
11.7472
6.89543
7.11561
10.1958
6.97071
10.388
6.55064
6.55331
7.73203
6.35954
6.57652
6.69204
6.61729
6.81018
8.46184
7.19467
6.75657
8.81027
7.84265
7.26734
7.70291
7.30833
6.50131
6.12419
6.1081
6.64718
6.35838
6.18179
6.3865
6.23861
6.24503
6.1179
6.14144
6.42985
6.21895
6.13663
6.23039
6.17846
9.15894
7.72925
7.34201
9.82289
8.54052
7.71431
8.34564
7.95227
6.93467
6.61517
8.13387
7.11864
6.93028
7.06836
7.41244
7.48221
6.61032
6.71325
6.12552
6.38126
6.66857
6.47019
6.37086
6.26023
6.55695
8.01627
7.1232
6.79608
6.96656
7.57946
6.80016
7.23569
6.41408
6.65822
6.87045
6.17145
6.33934
6.56133
6.27326
6.56583
17.2401
15.6366
7.98106
6.91709
13.6176
14.9585
7.86504
8.47967
12.0111
8.51375
6.94341
6.51914
8.66266
8.70289
6.94951
7.12651
6.47412
6.37238
6.18721
6.09791
6.34062
6.37009
6.16905
6.19147
6.19156
6.09989
6.03618
5.98011
6.11879
6.11677
6.03267
6.02993
11.2317
7.24133
6.64147
6.47925
7.43503
7.13694
6.70477
6.69096
11.7682
6.52804
6.93137
7.27222
7.67377
6.8117
7.32542
6.88616
6.47182
6.29397
6.19677
6.09298
6.28259
6.30796
6.20377
6.18267
6.52381
6.09913
6.22467
6.42719
6.30868
6.21342
6.34857
6.20499
5.91554
5.93335
6.17155
6.2596
5.95377
6.00131
6.07148
6.07875
5.94033
5.96245
6.09606
6.14856
5.96441
5.9859
6.04159
6.03294
6.75702
6.53412
8.12186
8.58074
6.79874
6.89874
7.44677
7.31188
7.20137
6.97551
9.1689
10.4959
7.43203
7.57303
8.33797
8.20312
5.96222
6.23123
6.36674
6.2695
6.0639
6.14348
6.21899
6.48857
5.99348
6.32269
6.18775