/*--------------------------------*- C++ -*----------------------------------*\
| =========                 |                                                 |
| \\      /  F ield         | OpenFOAM: The Open Source CFD Toolbox           |
|  \\    /   O peration     | Version:  2412                                  |
|   \\  /    A nd           | Website:  www.openfoam.com                      |
|    \\/     M anipulation  |                                                 |
\*---------------------------------------------------------------------------*/
FoamFile
{
    version     2.0;
    format      ascii;
    arch        "LSB;label=32;scalar=64";
    class       volScalarField;
    location    "50";
    object      p;
}
// * * * * * * * * * * * * * * * * * * * * * * * * * * * * * * * * * * * * * //

dimensions      [0 2 -2 0 0 0 0];

internalField   nonuniform List<scalar> 
43136
(
-0.00287745
0.00901599
-0.00321819
0.0140935
0.00743789
0.00125143
0.00918226
0.00319589
0.00151683
-0.000252451
-0.00577245
0.0124855
0.00636293
-0.00263344
0.00897709
0.00171486
-0.0029461
-0.00468083
-0.000910288
0.00192749
-0.000454934
-0.0045772
0.00250242
-0.000441189
0.0190621
0.0178436
0.0101679
0.0208808
0.0191957
0.016931
0.0187622
0.0148779
0.00748626
0.00110524
0.0158246
0.0151896
0.0104294
0.00671267
0.0156416
0.0118846
0.00385233
0.0119735
-0.000189396
-0.00364448
0.00469408
0.00856681
-0.000117427
0.00351367
0.00387905
0.0158328
0.0160495
0.0104374
0.00648578
0.0113159
0.00864894
0.0136748
0.000662644
0.00670946
0.0115218
0.000797589
0.0017654
0.00559063
0.00500411
0.00593285
0.0801361
0.0890326
0.0810989
0.070292
0.0818197
0.0859697
0.0777274
0.0800519
0.085723
0.062724
0.057351
0.0596303
0.0754478
0.0741694
0.0714143
0.0643798
0.0710479
0.0559834
0.0462819
0.0506175
0.0650283
0.0608588
0.0601464
0.048993
0.0566682
0.0506699
0.0484597
0.0433867
0.051865
0.0530696
0.0497694
0.0481243
0.0867099
0.0784481
0.0675996
0.0628921
0.0792655
0.0759863
0.0694358
0.0703199
0.0897741
0.0646101
0.068871
0.0806378
0.0796109
0.0715807
0.0773619
0.0716718
0.0738543
0.063908
0.0593789
0.0553792
0.0644693
0.0634238
0.0587263
0.0581722
0.0717818
0.0518521
0.0568417
0.060547
0.06396
0.0587321
0.0658646
0.0553021
-0.00288735
-0.00104723
-0.00117262
0.00202657
0.00330279
0.00269654
-0.000551317
0.000623524
-6.19584e-05
-0.000379018
0.00129226
0.00163745
-0.000360519
0.00220153
-8.94227e-05
0.00266909
-0.00143579
0.00263988
0.00551575
-1.09777e-05
0.00304751
0.0082763
0.00117297
0.0045518
0.0104379
0.00828862
0.00652039
0.0178831
0.0133445
0.0102503
0.0135256
0.0114359
-0.00248662
-0.000365044
0.00523367
0.00271524
0.00065694
-0.00146446
0.00225297
0.00251508
0.00216676
0.00415624
0.0043683
0.0020591
0.00506424
-0.000380943
-0.000669872
0.00120031
-0.00319737
0.00602199
0.00348537
0.00321602
0.000289313
0.00539377
0.00300764
0.00461627
0.000711935
0.0037933
0.00626454
0.000675135
-0.0018068
0.00188571
0.0035858
0.00256022
-1.78625
-1.17583
-0.707725
-0.0159843
-0.580312
-0.93599
-0.0555082
-0.394028
-0.867752
-0.580762
-0.367148
-0.0918984
-0.336366
-0.509582
-0.04323
-0.274509
-0.33973
-0.230297
-0.239982
-0.169086
-0.260402
-0.271853
-0.236299
-0.18739
0.0943064
0.0645413
-0.0149393
0.0166711
0.047716
0.0365822
-0.0347798
-0.0201822
-0.502152
-0.475386
-0.0847272
-0.0671044
0.033348
-0.0607545
-0.129381
-0.122953
-0.709012
-0.0897095
-0.382205
-0.623373
-0.347036
-0.0647583
-0.633576
-0.284014
-0.338004
0.112533
0.0250077
0.0491635
-0.231627
-0.0665379
-0.09197
0.00579771
-0.316561
-0.0251142
-0.0424271
-0.224559
-0.197421
-0.183301
-0.184151
-0.161413
-2.24495
-1.69772
-0.896346
0.0573902
-0.749675
-1.49197
0.157887
-0.502963
-0.912229
-0.608803
-0.385201
-0.380126
-0.457168
-0.577854
-0.260942
-0.421796
-0.227397
-0.230887
-0.199472
-0.325432
-0.291584
-0.215506
-0.328216
-0.310372
0.0834262
-0.0438456
-0.0825851
-0.0290105
-0.0311168
-0.0358721
-0.0779261
-0.0845976
-0.501121
-0.472837
-0.126505
-0.206244
0.0141323
-0.0214737
-0.230386
-0.235729
-0.793208
-0.410239
-0.333268
-0.578048
-0.390321
-0.311746
-0.526377
-0.396565
-0.441627
-0.0284227
-0.0354637
-0.0939737
-0.379392
-0.214332
-0.247257
-0.0370892
-0.333186
-0.135661
-0.185057
-0.48162
-0.396146
-0.360833
-0.450916
-0.34431
-0.000500377
-0.00292383
-0.00159581
0.0041692
0.00455916
0.000818893
0.00374099
0.0016813
-0.00517215
-0.00243407
-0.0105573
0.00844355
0.00158605
-0.00344082
0.00369139
-0.00175351
0.00280074
-0.012238
0.00114141
-0.00137178
0.00170415
0.00134011
6.19691e-05
0.000242819
0.0098733
0.0158293
0.00786281
0.020258
0.0153761
0.0133895
0.0155449
0.0145524
0.00173205
0.000690871
0.00844379
0.011046
0.00423695
-0.00165119
0.00486039
0.00304696
-0.00139332
0.00730291
-0.00728893
0.00405796
-0.00149744
0.0022607
-0.00662353
-0.00204751
-0.000569863
0.00870562
0.0129844
0.00476223
0.000684287
0.00550833
0.00399345
0.00556642
0.00438651
0.00403253
0.00932333
-0.00477995
-0.00204796
0.000995482
0.0012161
0.00296484
0.0444672
0.042417
0.0411472
0.0375941
0.0434011
0.0433443
0.0411182
0.0401708
0.0327532
0.0106972
0.0117291
0.0191559
0.0229518
0.0179348
0.0205005
0.014262
0.030481
0.0154426
0.00610459
0.0192626
0.0227117
0.0196846
0.0218916
0.0131923
0.0304361
0.0224747
0.0229849
0.0247801
0.0269976
0.0253095
0.0255985
0.0230887
0.0380495
0.0365623
0.034706
0.025971
0.0347972
0.0360482
0.0313041
0.0338056
0.0367271
0.0234614
0.0206135
0.035834
0.0314635
0.0240599
0.0319521
0.0234316
0.0345275
0.0327375
0.0238952
0.0250339
0.0308904
0.030646
0.0258745
0.0261687
0.0312484
0.0207084
0.0199204
0.0138163
0.0247546
0.0246379
0.0219673
0.0210659
0.0714353
0.0664236
0.0626118
0.052099
0.0651872
0.0661548
0.0591057
0.0580003
0.0500476
0.0181248
0.0272833
0.0280272
0.0360343
0.0286205
0.0295744
0.0221426
0.0410561
0.019981
0.0143376
0.0281835
0.0253681
0.0210505
0.0236488
0.0160512
0.0388349
0.0287348
0.0300212
0.0291724
0.0337781
0.0328678
0.0320662
0.0290053
0.0541898
0.0482145
0.0454604
0.0364009
0.0467905
0.0488977
0.0411371
0.044618
0.0511542
0.0343772
0.0282362
0.0451048
0.0415551
0.0342447
0.0447297
0.0319758
0.0432922
0.0427025
0.033364
0.0306645
0.0410223
0.0393691
0.0333172
0.0347743
0.0372962
0.0265582
0.0282705
0.021752
0.0304928
0.0322264
0.0284498
0.027788
-0.564151
-0.673813
-0.499216
-0.208347
-0.419436
-0.580768
-0.224913
-0.373909
-1.15574
-1.68447
-0.782242
-0.228274
-0.700244
-1.11346
-0.0700375
-0.415945
-0.434843
-0.419724
-0.390027
-0.225567
-0.299568
-0.484165
-0.198335
-0.298949
-0.043924
-0.0135731
-0.056294
-0.00363546
-0.0128919
-0.0156004
-0.00930101
-0.0208777
-0.550575
-0.369274
-0.112118
-0.143016
-0.351572
-0.288459
-0.273811
-0.179164
-0.625874
-0.227397
-0.813996
-0.593441
-0.383648
-0.246381
-0.545828
-0.41144
-0.215823
-0.00779596
-0.00530267
-0.0810923
-0.245138
-0.119504
-0.141598
-0.0507127
-0.298837
-0.150762
-0.122065
-0.33189
-0.201877
-0.239765
-0.192271
-0.219529
0.069569
0.0724398
0.0595227
0.0631989
0.0689235
0.066542
0.0630556
0.0628929
0.0777149
0.0897652
0.0682149
0.0742652
0.0763128
0.0748293
0.0690723
0.0703943
0.0524637
0.0563337
0.0480496
0.0501815
0.0525721
0.0516073
0.048725
0.0498417
0.0472964
0.0532554
0.0434305
0.0217472
0.0393451
0.0434405
0.0306373
0.0385244
0.0708149
0.0593514
0.0599152
0.0625178
0.0649151
0.0623763
0.0683991
0.0602018
0.068756
0.0638621
0.0612179
0.0571818
0.0654431
0.0660472
0.0626882
0.0628369
0.0538676
0.0518232
0.0528341
0.0468816
0.0557082
0.0559517
0.0540437
0.0528369
0.0540643
0.0504723
0.0581949
0.0577232
0.0542701
0.0544552
0.0565814
0.0610476
0.0707418
0.0634675
0.0681606
0.054387
0.0634569
0.0673237
0.0616505
0.0649578
0.0576422
0.0548825
0.0604166
0.0482233
0.0546077
0.0569753
0.0540602
0.0572663
0.0556562
0.0547977
0.030082
0.0360943
0.0502972
0.0510193
0.037781
0.034936
0.0413657
0.0391407
0.0334457
0.0318546
0.037855
0.0377924
0.0333961
0.0336733
0.0584887
0.0601037
0.0487422
0.0468475
0.0571411
0.0599726
0.0503781
0.0499971
0.060914
0.0476839
0.0604511
0.0641812
0.0602238
0.0560648
0.0642673
0.058441
0.0536581
0.0444279
0.0430638
0.0361227
0.0462095
0.0459883
0.0418265
0.0428801
0.0561817
0.0360315
0.0444005
0.054592
0.0517267
0.0426497
0.0524256
0.0454337
0.153677
0.130849
0.127507
0.144624
0.149108
0.138986
0.143387
0.13669
0.0925048
0.0543449
0.082776
0.0658932
0.0779556
0.0724213
0.0723615
0.0767164
0.10399
0.091272
0.0885876
0.101279
0.0985491
0.0920835
0.0965313
0.0912825
0.11077
0.073101
0.101478
0.0799261
0.0957742
0.0930073
0.0919735
0.0932942
0.113997
0.119033
0.126501
0.084176
0.1108
0.123179
0.103708
0.118892
0.107841
0.0807881
0.0895069
0.111224
0.109144
0.0897594
0.107782
0.0952897
0.115834
0.124989
0.085301
0.104728
0.118623
0.119892
0.106433
0.102545
0.110811
0.100557
0.0856404
0.0899829
0.10116
0.0996394
0.0922285
0.0898556
0.107589
0.0912416
0.0899316
0.104146
0.107244
0.0943033
0.105213
0.0949074
0.082068
0.0782215
0.0718394
0.0783037
0.0822654
0.0766959
0.0780128
0.0750976
0.0713264
0.0642545
0.0613308
0.071595
0.0694016
0.0641498
0.0680368
0.0627225
0.0771782
0.0664594
0.0695622
0.0408261
0.0661526
0.0670764
0.0573231
0.0620575
0.0915084
0.0856504
0.0970771
0.0808274
0.0889078
0.0898641
0.0857849
0.0878365
0.0837184
0.077348
0.0697719
0.0783581
0.083295
0.0792332
0.078272
0.0754974
0.0845588
0.0926219
0.0750288
0.0727428
0.0837404
0.0869391
0.0786534
0.0774502
0.077524
0.0698788
0.0745709
0.068058
0.0724601
0.0740211
0.0725938
0.0749777
0.0598952
0.0606925
0.0891936
0.0491857
0.0514491
0.0675216
0.0616708
0.0732267
0.05201
0.0430668
0.0568725
0.0445723
0.0455458
0.0472437
0.0492827
0.0496479
0.0920881
0.0708791
0.0822843
0.080013
0.0821082
0.0783127
0.0831104
0.0791838
0.0428326
0.0442914
0.0676841
0.0418541
0.0384917
0.0500137
0.0452823
0.0543475
0.0520315
0.0808736
0.0467929
0.0459161
0.0572156
0.0668151
0.0514
0.0608145
0.0586773
0.0500192
0.0631292
0.0812759
0.0611134
0.0547657
0.0712993
0.0631359
0.0848833
0.0546562
0.0511585
0.0733851
0.077383
0.0636553
0.069293
0.0576534
0.0843062
0.0736373
0.0526183
0.0651504
0.0743023
0.0706163
0.0666665
0.0626347
0.00274817
0.00128889
0.00796914
0.00904862
0.00495009
0.00348147
0.00552356
0.00568268
0.00404991
0.0068227
0.00569963
0.00394599
0.00248066
-0.000284519
-0.000808141
0.00404273
0.0053951
-0.00261071
-0.00428037
0.0173073
0.00991206
0.0022683
0.0152834
0.0146295
0.0163416
0.0152776
0.0222263
0.02382
0.0186836
0.0178252
0.0221788
0.024264
0.00463764
0.0117512
0.011376
0.0103984
0.00454573
0.00672159
0.00848596
0.00869014
0.00456213
0.00611501
0.00285896
0.0074454
0.00195043
0.00253161
0.00456673
0.00698485
0.0110862
0.0128857
0.0118063
0.0209785
0.0137074
0.0132306
0.017406
0.0148561
0.00732391
0.0217045
0.0129056
0.00680138
0.00799007
0.0134488
0.00719108
0.00892793
0.0106383
0.0150516
-0.00194995
0.0223891
0.0155174
0.0073931
0.0162787
0.00483984
0.0173596
0.00339073
-0.0033009
0.0210248
0.0130044
0.0177203
0.014697
0.0122733
-0.0050957
0.00173236
-0.000478248
0.00155208
-0.000901879
-0.00591803
-0.00201587
0.00191048
0.0253581
0.0236376
0.0159279
0.0251131
0.0248235
0.0262592
0.0232542
0.0214697
0.0128252
0.00236742
0.022108
0.0216188
0.0159238
0.0105191
0.0212513
0.021491
0.00840784
0.0231825
0.00310003
-0.00234905
0.00766985
0.0119125
-0.00130216
0.00265934
0.0063884
0.0217246
0.0204499
0.0123578
0.0106051
0.017739
0.0130948
0.0195047
0.00105996
0.00985166
0.017474
0.00497414
0.00202673
0.0119164
0.00407586
0.00892717
0.00244394
0.00951311
0.00831157
0.00724654
0.00605853
0.00745167
0.00807775
0.0108686
0.01738
0.0249925
0.025151
0.0243549
0.0213598
0.0237968
0.0224127
0.026234
0.00752593
0.0234618
-0.0013914
0.0126341
0.01523
0.0182759
0.00971188
0.015836
0.010728
0.0213754
0.0121162
0.0152547
0.014043
0.0178378
0.0139907
0.0176431
0.0135677
0.0109221
0.01018
0.0192852
0.0142657
0.0114522
0.0151491
0.0126092
0.0153393
0.0220952
0.0231945
0.0118628
0.0175815
0.0199411
0.0154799
0.0206171
0.0104073
0.0112652
0.0191979
0.014055
0.0111388
0.0159161
0.0151067
0.0169019
0.0145781
0.0215051
0.0243632
0.025865
0.0176131
0.0190382
0.0198633
0.0243089
-0.627002
-0.651414
-0.143999
-0.151329
0.14398
-0.128056
-0.154152
-0.208397
-0.24317
-0.180726
-0.178606
-0.239999
-0.305415
-0.219545
-0.293405
-0.219245
-0.033103
-0.0432017
0.00422831
0.00477772
-0.00820128
-0.0246603
0.00476147
-0.0108701
-0.050132
-0.0469474
0.0208652
-0.00779555
-0.047864
-0.0275714
0.0281351
0.01912
-0.397661
-0.120846
-0.117612
-0.0917517
-0.301841
-0.268071
-0.248982
-0.138732
-0.176743
-0.126801
-0.116719
-0.170007
-0.207218
-0.222477
-0.183531
-0.0846794
-0.0470733
-0.0251541
-0.0635632
0.0292736
-0.0363213
-0.00719254
-0.0130547
-0.0429644
-0.0311767
0.000270267
-0.0729106
-0.0483893
-0.0205043
-0.0360887
-0.0479636
-0.0598258
-0.729731
-0.514376
-0.0650187
-0.0264479
-0.236509
-0.344113
-0.400256
-0.233284
-0.260836
-0.159363
-0.134944
-0.199481
-0.273683
-0.139438
-0.251939
-0.261152
0.0128684
-0.00333238
0.0368994
0.0386081
0.0367932
0.0224349
0.0513635
0.0371556
0.0142572
0.008884
0.0432341
0.045722
0.0103435
0.0400442
0.0459752
0.0470033
-0.335556
0.0680957
0.00568131
-0.00358883
-0.345811
-0.0531388
-0.204161
-0.0787403
-0.186441
-0.0850409
-0.0867166
-0.0676666
-0.267049
-0.0491897
-0.188905
-0.0224111
-0.0761518
0.0292579
-0.0281622
0.0324382
-0.00251669
0.0373844
0.0412961
-0.00894681
0.0425925
0.0310687
-0.0325729
-0.0543326
0.0218357
0.0164169
-0.0381007
-0.00110446
-0.828977
0.0989112
-0.221742
-0.0801856
-0.0881518
0.128986
0.184849
-0.052907
-0.0142835
0.0025648
-0.0434765
0.00841804
-0.0175599
-0.0306412
-0.0104416
-0.0250253
-0.107934
-0.258026
-0.193325
-0.162652
-0.0869559
-0.0615332
-0.156865
-0.122436
-0.00292811
-0.00410054
-0.0349477
0.00974061
-0.0234299
-0.050147
-0.00109787
-0.0214399
-0.110807
-0.0728382
-0.0850461
-0.00541246
-0.147192
-0.096422
-0.0417038
-0.0659624
-0.109987
-0.010154
-0.0997877
-0.0665039
-0.111693
-0.0424175
-0.114338
-0.134423
-0.119307
-0.0543285
-0.0107082
-0.0762562
-0.132486
-0.0784428
-0.104817
-0.0569036
-0.106793
-0.106259
-0.033202
-0.131476
-0.175778
-0.13256
-0.17843
-0.0678507
0.0868427
0.0691528
0.0720239
0.0696681
0.081134
0.0754749
0.076776
0.0741395
0.0375134
0.00827458
0.0349877
0.0162349
0.022298
0.0233074
0.0246095
0.0288511
0.0559141
0.0466657
0.0489796
0.0484805
0.0511864
0.0485669
0.0497957
0.0483941
0.0403906
0.0151384
0.037322
0.0120967
0.0246197
0.0254079
0.0278577
0.0293962
0.0532044
0.0623794
0.0521484
0.0270355
0.0496517
0.05745
0.0432498
0.0499986
0.0494869
0.0257616
0.0426759
0.0578719
0.0509312
0.0352018
0.0551593
0.0446258
0.0582937
0.0527182
0.0267813
0.0456229
0.0556852
0.0518692
0.0459194
0.0369383
0.057433
0.0452439
0.031149
0.0434172
0.0485497
0.0428282
0.0419138
0.0363105
0.00681885
0.0135887
-0.0274959
0.0139567
-0.0062614
-0.0165286
-0.0127652
0.0146518
0.0255912
0.0337112
0.0398131
0.0363662
0.0373086
0.0136128
0.0231314
0.0225203
-0.0375976
-0.042778
-0.0885768
-0.0669221
-0.00586791
-0.0329753
-2.02518e-05
0.00268453
0.0231392
0.0402362
0.0227503
0.045147
0.0291822
0.0231881
0.0274581
0.0264085
0.0171026
-0.0164887
0.0196334
0.0383383
0.00788499
0.00695025
0.01372
0.0193935
-0.0271532
0.0397688
-0.0383713
-0.0889667
0.0289424
0.0181706
0.0238751
0.0464769
-0.0443684
0.00862138
0.0312461
-0.0201479
-0.0177503
0.00514548
-0.000909181
0.00540325
0.0208951
-0.0222912
0.0324838
0.0153136
-0.0416818
-0.0160932
0.0170144
-0.0140545
0.0194506
0.0322184
0.0494231
0.0184682
0.0177592
0.0320519
0.0230027
0.0355931
0.0310919
0.0291681
0.0369978
0.0290932
0.0297366
0.0311879
0.0318412
0.0327789
0.058317
0.0466382
0.0546265
0.0532936
0.0527735
0.0527369
0.0550347
0.0540864
0.021436
0.0283923
0.0418552
0.0184761
0.0170822
0.0288973
0.0204889
0.0316216
0.0310701
0.044975
0.0235091
0.0278607
0.0350205
0.0373715
0.0315999
0.0345403
0.0334599
0.0310914
0.0411518
0.0498447
0.0365405
0.0344639
0.0438022
0.0400157
0.0516109
0.0305391
0.0313497
0.0450359
0.0483073
0.0361095
0.0405385
0.0334654
0.0528126
0.0481856
0.033484
0.0429586
0.0482869
0.0451544
0.0431433
0.0406982
0.0754237
0.0646075
0.0775652
0.0748925
0.0741175
0.0717017
0.0767996
0.0737255
0.0519089
0.0395008
0.0453678
0.043046
0.0467313
0.0444013
0.0473984
0.0439846
0.0717219
0.0503466
0.050703
0.0541567
0.0593172
0.0542133
0.0597538
0.0526014
0.0666854
0.0471511
0.0513432
0.0447398
0.059097
0.0556294
0.0585104
0.0538433
0.0606338
0.0728972
0.071145
0.0525398
0.0623596
0.0683128
0.0584789
0.0673154
0.0579976
0.0495472
0.050362
0.0697758
0.057914
0.0519237
0.0612468
0.0539394
0.0751301
0.0730556
0.0533896
0.0612554
0.0695458
0.0672478
0.0612925
0.059184
0.0692109
0.0560281
0.048526
0.0495829
0.0593723
0.0569397
0.054571
0.0497234
-1.82032
-1.21905
-0.614747
-0.281691
-0.624846
-0.906196
-0.781999
-0.894011
-0.897329
-0.965738
-1.3789
-0.552846
-0.70738
-0.887071
-0.890458
-0.588412
-0.327864
-0.941145
-0.575145
-0.283586
-0.494667
-0.99316
-0.96952
-0.906649
-0.0336615
-0.0117264
-0.133075
-0.00164087
0.0420834
-0.0344937
-0.0842041
-0.0861322
-0.795036
-0.400372
-0.126426
-0.205545
-0.801279
-0.512544
-0.466552
-0.431532
-0.824147
-0.573662
-1.3635
-0.91284
-0.902871
-0.525177
-0.914362
-0.375174
-0.717901
-0.309053
-0.357348
-0.442614
-0.263804
-0.260221
-0.285842
-0.213318
-0.622446
-0.339969
-0.337794
-0.695514
-0.364124
-0.537105
-0.638472
-0.494327
-0.657591
-0.752076
-0.63355
-0.331115
-0.629463
-0.56498
-0.409106
-0.489146
-0.842745
-0.996787
-0.537874
-0.402625
-0.297894
-1.27984
-0.283651
-0.507591
-0.35324
-0.574663
-0.800511
-0.254245
-0.362531
-0.593032
-0.226682
-0.408232
-0.131071
0.0394044
-0.0859886
-0.0150576
-0.0473774
0.119146
-0.0362766
-0.00660219
-0.473622
-0.511032
-0.235344
-0.263255
-0.286758
-0.41814
-0.381755
-0.213898
-0.8294
-0.290171
-0.457004
-0.443314
-0.415181
-0.403458
-0.491646
-0.379377
-0.22006
-0.0613985
-0.0932147
-0.186041
-0.331066
-0.145174
-0.264275
-0.168652
-0.250571
-0.227209
-0.256226
-0.37742
-0.424051
-0.272396
-0.405855
-0.381881
-1.21228
-0.880055
-0.335155
-0.133085
0.291418
-0.514665
-0.479221
-0.46493
-0.859873
-1.15099
-1.54446
-0.387786
-0.818577
-1.09668
-0.609112
-1.10454
-0.0965786
-1.33364
-0.535091
-0.904499
-0.313378
-1.24022
-1.4537
-0.703034
-0.0548368
-0.0288768
-0.157751
-0.0391269
0.0367091
-0.0696945
-0.0868803
0.0509222
-0.283058
-0.0761713
-0.0791597
-0.0774088
-0.392661
-0.0526799
-0.300607
-0.360089
-0.72054
-0.468558
-1.32614
-1.07356
-0.486634
-0.217689
-1.21543
-0.435304
-0.925433
-0.314223
-0.279106
-0.131128
-0.245336
-0.226692
-0.0848133
-0.174893
-0.487267
-0.411918
-0.262046
-0.876143
-0.0840152
-0.521255
-0.49122
-0.34551
-1.10615
-0.547714
-0.846488
-0.547522
-0.194982
-0.641988
-0.223476
-0.145394
-0.985103
-1.49
-0.8508
-0.326889
-0.846827
-1.27971
-0.507539
-0.699642
-0.824082
-0.559215
-0.850033
-0.162021
-0.26422
-0.436915
-0.271786
-0.280011
-0.449724
-0.0443147
-0.016264
0.00273366
-0.0403325
-0.157482
0.012354
0.00247747
-0.504839
-0.273923
-0.220473
-0.205063
-0.398251
0.0252944
-0.222271
-0.426462
-1.0349
-0.515432
-0.619277
-0.548899
-0.539534
-0.310488
-0.680321
-0.42541
-0.252002
-0.46938
-0.107826
0.0600199
-0.505387
-0.183794
-0.2334
-0.0201708
-0.253028
-0.125474
-0.168906
-0.415645
-0.00973172
-0.480518
-0.467128
-0.347619
-1.5978
-1.02489
-0.184668
-0.0952214
-0.162445
-0.545193
-0.816618
-0.29398
-1.01893
-1.62039
-1.50007
-0.257622
-1.08028
-1.52907
-0.884861
-1.00258
-0.234083
-1.32842
-0.517526
-0.569368
-0.434483
-1.22076
-1.39357
-1.01061
0.0362578
0.0813332
-0.10084
0.0460439
0.0830493
0.0392084
-0.0517146
-0.00365687
-0.60579
-0.221914
0.0430054
-0.0203001
-0.501464
-0.122289
-0.23866
-0.287125
-0.85319
-0.299076
-1.20594
-0.799666
-0.781892
-0.455264
-0.863601
-0.407101
-0.97057
-0.204137
-0.220054
-0.449376
-0.242639
-0.120906
-0.207131
-0.0423321
-0.783766
-0.270183
-0.080906
-1.06006
-0.418004
-0.496133
-0.919132
-0.44694
-1.01066
-1.25969
-0.921972
-0.55812
-0.457239
-0.958918
-0.392327
-0.375255
-1.53609
-1.45104
-0.703348
-0.0826401
-0.823778
-1.58673
-0.418288
-0.883112
-0.435359
-0.442876
-0.429628
-0.181236
-0.383428
-0.469798
-0.526076
-0.229274
-0.11693
0.122445
-0.0234912
0.0417031
0.0376376
0.207336
-0.0229553
0.0793681
-0.825275
-0.728718
-0.0332258
-0.0325374
-0.26073
-0.475973
-0.213845
-0.0135114
-1.48206
0.068585
-0.772645
-0.727836
-0.718369
-0.344722
-0.754169
-0.591467
-0.711329
0.0232152
0.108931
-0.134669
-0.199689
0.032031
-0.100837
-0.0181567
-0.405278
0.00429244
-0.0852984
-0.404745
-0.411168
-0.191648
-0.361542
-0.311879
-1.66627
-0.350674
-0.941279
-0.0277388
-0.157584
-0.604646
0.079538
-0.255594
-0.376359
-0.644866
-1.10975
-0.428805
-0.925527
-0.952036
-0.94374
-0.765211
-1.03864
-0.948989
-1.49789
-0.433627
-0.863082
-1.57062
-0.447549
-0.951448
0.0494339
-0.0620355
-0.167809
0.0757544
-0.0164969
-0.0589953
-0.0305092
-0.0342162
-0.295129
-0.600638
0.0709428
-0.172511
-0.254413
-0.382091
-0.249923
-0.157352
-0.136052
-0.241705
-0.904247
-0.951201
-0.0745478
-0.504475
-0.295313
-0.674511
-0.421465
0.064581
-0.18806
-0.0586542
-0.272321
-0.0513786
-0.0671776
-0.144625
-0.654277
-0.188107
-0.235466
-0.675479
-0.544665
-0.256016
-0.493969
-0.424587
-0.474324
-0.434619
-0.386575
-0.272688
-0.314487
-0.43497
-0.352919
-0.467283
-0.789609
-1.22831
-1.09545
-0.353422
-0.582167
-1.23669
-0.44158
-1.23319
-0.811199
-0.881092
-0.647186
-0.437237
-0.442813
-0.58329
-0.343733
-0.360042
-0.0182914
-0.151037
-0.0435769
0.0489144
0.0222364
-0.0522489
0.0365182
0.0145539
-0.436988
-0.26448
-0.31475
-0.196403
-0.482909
-0.368244
-0.347211
-0.309569
-0.865347
-0.0723416
-0.830112
-0.624454
-0.693601
-0.356986
-0.660061
-0.460188
-0.460186
-0.120141
0.0284081
-0.0816695
-0.418623
-0.22772
-0.258334
-0.0610112
-0.735161
-0.135088
-0.256168
-0.826455
-0.289635
-0.31833
-0.37038
-0.530036
-0.0623356
-0.0594812
-0.0644875
-0.0747926
0.011143
0.0153589
-0.0238672
-0.00212732
-0.0526769
-0.00686683
-0.0771279
-0.0118365
-0.0182
-0.0151447
-0.0532865
-0.0263195
-0.0590955
-0.177938
-0.341795
-0.20159
-0.0888971
-0.130484
-0.270393
-0.12645
-0.0530239
-0.00363294
-0.0687219
-0.0122978
-0.0260341
-0.0178891
-0.0264524
-0.0184695
-0.0394438
-0.0525321
-0.0414855
-0.0282293
-0.0528174
-0.0752989
-0.0527849
-0.0618059
-0.0532662
-0.0441151
-0.0891125
-0.0927364
-0.0323865
-0.0571487
-0.0796363
-0.0447533
-0.0788412
-0.0557816
-0.0247894
-0.0718119
-0.0960503
-0.0506439
-0.0598076
-0.0333878
-0.0911929
-0.0479411
-0.0307093
-0.0694912
-0.163699
-0.102085
-0.111743
-0.111204
0.00220736
0.00513475
0.002265
0.00533429
0.00485506
0.00523649
0.00429277
0.00506247
0.00142658
-0.0185797
-0.00796151
-0.0011123
-0.000481875
-0.00599356
-0.00173165
-0.0124508
1.83048e-05
-0.00143873
0.00069046
0.00123114
0.00164333
0.00502811
0.000639048
0.00384569
0.00668336
-0.001668
0.00452976
0.00272012
0.00867358
0.00920493
0.00643782
0.0073172
0.00443488
0.00319772
0.00628997
0.00663287
0.00465167
0.00606986
0.00629119
0.00542134
0.00361796
0.00473989
0.00235092
0.00329903
0.00169543
0.00481034
0.00119043
0.00192686
0.00204386
0.00527012
0.00608895
-0.000610949
0.00206732
0.00459479
0.000953195
0.00906333
0.00201904
-9.12151e-05
0.00206097
-0.0024757
0.00242155
0.0025304
-0.000869313
0.000823726
-0.201712
-0.0947035
-0.114521
-0.226253
-0.165
-0.0761646
-0.173714
-0.160038
-0.0884494
-0.331975
-0.877358
-0.257825
-0.191688
-0.288104
-0.0402273
-0.314201
-0.656931
-1.56079
-2.27952
-0.170184
-0.498019
-1.26306
-0.124499
-0.854379
-0.0166304
-0.0262712
-0.0209269
-0.0126054
-0.0401856
-0.0220172
-0.0453043
-0.0284279
-0.276268
-0.183186
-0.127214
-0.148284
-0.249674
-0.225225
-0.271646
-0.279029
-0.0898357
-0.235833
-0.711029
-0.381288
-0.160347
-0.115688
-0.308545
-0.260416
-0.22482
-0.0663245
-0.108735
-0.0270935
-0.292029
-0.213355
-0.139651
-0.121767
-0.281149
-0.128423
-0.201448
-0.493099
0.0468373
-0.107549
0.135943
-0.155363
0.00879136
0.0169863
0.0161904
0.0142257
0.0112383
0.0148926
0.0121496
0.0165598
0.0276819
0.0415231
0.0399108
0.0443103
0.0319454
0.0358036
0.0403448
0.0413356
0.0251872
0.0386409
0.0337634
0.0361124
0.0317254
0.0343169
0.0335097
0.0356
0.0201963
0.0413446
0.0368162
0.02851
0.032965
0.0366633
0.0352258
0.0378261
0.023539
0.0220613
0.0206878
0.0354482
0.0253595
0.0244845
0.0286105
0.0254293
0.0264629
0.0406472
0.0361994
0.0236937
0.0279821
0.0395122
0.026844
0.0347828
0.0245829
0.0200745
0.0398533
0.0352729
0.0258675
0.026036
0.0334209
0.0369933
0.0262303
0.0377394
0.0430002
0.0393471
0.0348179
0.0371377
0.03798
0.0415867
0.18011
0.202701
0.148906
0.158018
0.177552
0.17891
0.158496
0.146022
0.272818
0.158689
0.100983
-0.0282496
0.21203
0.254854
-0.00917053
-0.0657883
0.0918485
0.0359573
0.0499146
0.0514395
0.0668122
0.058516
0.0649081
0.045174
0.109109
0.0589252
0.0634415
0.0634582
0.090806
0.0738099
0.0794132
0.0582211
0.198722
0.129386
0.137132
0.073181
0.135621
0.14183
0.120495
0.144472
0.187726
0.0323721
0.117483
0.144818
0.0839858
0.0147772
0.15196
0.0818792
0.108199
0.117413
0.0842573
0.0712523
0.107793
0.09919
0.0862205
0.0961204
0.0927581
0.0446387
0.0632882
0.0660781
0.0931345
0.085354
0.0847018
0.0650327
-0.300741
-0.290477
-0.264496
-0.319064
-0.314117
-0.280644
-0.308299
-0.290441
-0.331729
-0.525949
-0.828823
-0.380223
-0.397039
-0.491628
-0.343008
-0.445152
-0.667849
-1.40767
-2.14193
-0.108878
-0.464759
-1.2658
-0.225303
-0.836513
-0.0937825
-0.0473302
0.0572868
-0.0367827
-0.0974181
-0.0704876
-0.0834318
-0.033203
-0.335046
-0.332559
-0.239525
-0.247506
-0.356724
-0.349119
-0.361774
-0.397447
-0.31126
-0.411459
-0.734177
-0.475709
-0.369969
-0.351956
-0.454187
-0.395027
-0.381595
-0.156886
-0.0879003
-0.063244
-0.401716
-0.287465
-0.268921
-0.114661
-0.431108
-0.207284
-0.226798
-0.555078
-0.189594
-0.33575
-0.188466
-0.332484
-0.576451
-0.731692
-0.440429
-0.289654
-0.47591
-0.594621
-0.345012
-0.413002
-1.2836
-1.80911
-0.793338
-0.373346
-0.915983
-1.30486
-0.379831
-0.558516
-0.340735
-0.340113
-0.266061
-0.222211
-0.285139
-0.351752
-0.269828
-0.249275
-0.0129128
0.00587075
-0.0447166
0.0240811
-0.00360828
-0.0114338
-0.00866252
-0.0273965
-0.643741
-0.395466
-0.138909
-0.150207
-0.507798
-0.40228
-0.34178
-0.21393
-0.671001
-0.338026
-0.767884
-0.570041
-0.434299
-0.406788
-0.53913
-0.491686
-0.247672
-0.00160301
0.0564164
-0.0711879
-0.269017
-0.110457
-0.162272
-0.0161467
-0.294121
-0.172456
-0.129849
-0.32865
-0.287395
-0.303924
-0.39013
-0.320938
-0.390905
-0.538575
-0.709652
-0.239554
-0.326184
-0.410614
-0.322283
-0.427556
-0.456412
-0.383722
-0.502753
-0.151129
-0.217667
-0.405304
-0.187462
-0.322489
-1.27001
-0.890558
-2.3223
-0.169736
-0.675819
-1.22447
-0.287976
-0.812452
-0.095228
-0.0194884
-0.0686999
0.00179995
-0.0518298
-0.0246178
-0.031368
-0.03354
-0.263271
-0.499947
-0.204083
-0.206084
-0.245072
-0.29845
-0.210725
-0.287286
-0.390124
-0.213222
-0.640911
-0.647634
-0.352242
-0.208738
-0.522763
-0.342814
-0.287548
-0.148559
-0.174134
-0.257791
-0.191556
-0.22101
-0.217498
-0.142269
-0.542791
-0.25981
-0.180934
-0.467971
-0.137109
-0.241791
-0.200836
-0.179542
-0.00833814
0.00635481
-0.0463926
-0.0532565
0.0248903
-0.0205789
0.0531706
-0.0198832
-0.00161081
-0.00369048
-0.00325499
-0.00206403
-0.000250863
-0.00805139
-0.00357306
-0.0099536
-0.042288
-0.00573571
-0.0127298
0.00449934
-0.021238
-0.0160656
-0.000925602
-0.0117136
-0.0411982
-0.00886619
-0.0110871
-0.00707882
-0.0244951
-0.019565
-0.0122506
-0.0161805
0.00969322
-0.00904506
-0.0350922
-0.0125741
0.0128752
0.0167433
-0.0178876
-0.0434634
-0.0129953
-0.0125825
-0.0100471
-0.0274292
-0.0204883
-0.00903485
-0.015588
-0.00848263
0.00660402
-0.0100814
-0.00582177
-0.00602631
-0.0326853
-0.0345774
-0.0172183
-0.00656199
-0.0241039
-0.00885432
-0.0106775
-0.00869519
-0.0114998
-0.0135756
-0.00263213
-0.00229999
-0.619805
-0.693342
-0.799291
-0.230791
-0.464726
-0.552517
-0.417898
-0.524891
-0.597325
-0.619617
-0.576369
-0.277769
-0.362914
-0.521343
-0.314037
-0.428116
-1.10485
-0.792774
-1.5536
-0.28117
-0.588769
-0.955703
-0.238902
-0.602546
-0.0891527
-0.0846044
-0.064139
-0.0139866
-0.0625085
-0.0622242
-0.0241905
-0.0348357
-0.421918
-0.53488
-0.162452
-0.199874
-0.32543
-0.346233
-0.227295
-0.264203
-0.53542
-0.275412
-0.608681
-0.670074
-0.449203
-0.305273
-0.629818
-0.403243
-0.309242
-0.101947
-0.159106
-0.15165
-0.148993
-0.175564
-0.131697
-0.0992315
-0.526546
-0.146488
-0.180832
-0.430369
-0.197976
-0.176113
-0.241855
-0.16518
0.0829881
0.0875638
0.0961902
0.0840862
0.0843847
0.0875953
0.0862771
0.0901607
0.0806635
0.0559678
0.0912801
0.0623294
0.0766232
0.0755795
0.0736233
0.0747058
0.116819
0.11912
0.139021
0.122689
0.123685
0.12657
0.126813
0.129678
0.0769283
0.0617377
0.0917217
0.0530959
0.0728702
0.0739456
0.069325
0.0733937
0.0860461
0.100661
0.0828874
0.0755919
0.0864794
0.0909788
0.0792422
0.0848738
0.0878509
0.074834
0.103479
0.104188
0.0906348
0.0842022
0.102373
0.101682
0.103064
0.0843125
0.0732265
0.100026
0.0993153
0.088079
0.0989359
0.0829726
0.107863
0.10401
0.0748313
0.104925
0.108948
0.101107
0.102204
0.0896762
-0.00950629
-0.010592
-0.0286235
-0.0107424
-0.0129047
-0.00888119
-0.00786217
-0.00851449
-0.00920054
0.00353616
-0.0458571
-0.00048051
-0.000428946
-0.00162096
-0.0168651
-0.0142403
-0.131798
-0.103444
-0.0833894
-0.110963
-0.0720643
-0.129585
-0.0744635
-0.0850997
-0.0109772
-0.00259245
-0.051841
-0.00827851
-0.000241047
-0.00758223
-0.0149415
-0.00818193
-0.00038575
-0.0331954
-0.01077
-0.00368352
-0.00903668
-0.0246067
-0.0121103
-0.0180512
-0.0021737
-0.0143935
-0.0503045
-0.047987
-0.0198499
-0.0337329
-0.0444692
-0.0298515
-0.0514186
-0.0195335
-0.0214199
-0.0900922
-0.0553335
-0.0121505
-0.0283568
-0.0191122
-0.0400956
-0.0934686
-0.0195546
-0.0559885
-0.0549281
-0.059669
-0.0417937
-0.0483708
0.14676
0.117837
0.129229
0.124735
0.138115
0.131227
0.137301
0.12351
0.084369
0.0527542
0.0562895
0.0573926
0.0670956
0.0583667
0.0621192
0.0546314
0.0901498
0.0608266
0.0601545
0.0566608
0.0705928
0.0672239
0.0671478
0.0583367
0.087666
0.0581317
0.0510827
0.0451039
0.065938
0.0603095
0.0545475
0.0510885
0.105188
0.10985
0.103748
0.0700894
0.100519
0.106538
0.0888883
0.0970672
0.0982538
0.0633341
0.0637619
0.10393
0.0928954
0.0728422
0.093716
0.0723259
0.107256
0.0963336
0.0642515