/*--------------------------------*- C++ -*----------------------------------*\
| =========                 |                                                 |
| \\      /  F ield         | OpenFOAM: The Open Source CFD Toolbox           |
|  \\    /   O peration     | Version:  2506                                  |
|   \\  /    A nd           | Website:  www.openfoam.com                      |
|    \\/     M anipulation  |                                                 |
\*---------------------------------------------------------------------------*/
FoamFile
{
    version     2.0;
    format      ascii;
    arch        "LSB;label=32;scalar=64";
    class       surfaceScalarField;
    location    "1300";
    object      phi;
}
// * * * * * * * * * * * * * * * * * * * * * * * * * * * * * * * * * * * * * //

dimensions      [0 3 -1 0 0 0 0];

oriented        oriented;

internalField   nonuniform List<scalar> 
86544
(
0.365264
-0.22051
-0.118291
-0.0264657
-0.327822
0.560036
-0.275025
0.0428113
-0.11689
0.196066
-0.0861803
0.00700384
0.0116786
0.345462
-0.137127
-0.220018
0.541057
0.144281
-0.320077
0.166955
0.0462779
0.293691
-0.137735
0.343755
0.594119
-0.402525
-0.243152
0.0515627
-0.475232
0.731511
-0.335031
0.0787543
-0.182054
-0.23994
0.40797
0.0140256
0.0357071
-0.349537
0.60902
-0.295188
0.675628
0.172051
-0.253561
0.150311
0.0500818
0.528046
-0.320293
0.496304
0.106098
-0.0659323
-0.0384713
-0.00168615
-0.0926284
-0.115317
0.19438
0.0135741
-0.0369223
-0.0191274
0.0508735
0.00518845
0.0112138
-0.0428628
-0.0348107
0.0664621
0.128922
0.0513857
-0.0742072
0.0180613
0.01823
0.100341
-0.0377413
0.0814831
0.17834
0.00737141
-0.119509
-0.0662025
-0.170461
0.0144226
0.29903
-0.142985
-0.0396431
0.00912868
-0.0412148
0.0717323
0.00151628
-0.0679235
0.0876738
-0.0212626
0.24008
0.0458719
-0.107611
0.0257694
0.0438497
0.109697
-0.06231
0.0958228
0.181321
0.668078
-0.289365
-0.163895
0.282828
0.0771277
0.371092
0.0961762
-0.121811
-0.471196
0.518259
0.160204
-0.207269
-0.224913
-0.0202966
0.42652
-0.0450532
-0.258309
-0.233186
0.0677293
0.194676
0.0708722
0.0390557
0.129665
-0.369623
0.111605
0.0180776
0.166686
0.0904401
0.0256999
0.458715
0.162478
0.177479
0.315884
0.013276
0.123741
-0.000266853
0.128037
-0.0506429
0.21318
-0.109635
-0.153144
0.327773
-0.0466717
0.109336
-0.0535373
-0.0866853
0.143555
-0.0571381
0.194225
-0.0849299
0.181815
0.152546
-0.0202559
0.0867334
0.137874
0.319568
-0.262115
0.258412
-0.0337979
0.112139
0.127762
-0.0262347
0.239404
-0.00313642
-0.155925
-0.0614507
-0.0189928
-0.0419783
-0.0252101
0.0798474
-0.00788881
-0.0421
-0.0298613
-0.0294231
-0.0664546
-0.0412513
-0.0433705
-0.0975027
-0.0326126
-0.029754
-0.0367684
-0.0901592
0.0104652
-0.0273144
0.00797272
-0.0191304
-0.000194624
-0.0080613
-0.0108654
0.0309773
-0.0100632
-0.00892379
-0.0119907
-0.0121849
-0.0136977
-0.00892633
-0.03088
-0.034174
-0.0165781
-0.0144979
-0.025732
-0.0206267
-0.011332
-6.86766e-06
0.0602002
-0.0366617
-0.0235345
-0.0219695
0.037383
-0.00253922
-0.012877
0.0494298
-0.0374861
0.00226506
-0.0142113
-0.0238573
0.0585297
-0.0323028
-0.00237226
-0.0210796
-0.0368697
0.0579413
-0.0251423
-0.0179086
-0.0236043
-0.0371241
0.000682351
-0.0125725
-0.0333292
-0.0736087
-0.0222024
-0.0161237
-0.00288852
0.0516928
-0.0191543
-0.029789
-0.00275129
-0.0277022
-0.0419211
0.00169837
-0.0281374
-0.0467464
-0.0322903
-0.0180504
-0.0229755
-0.0514742
-0.00357421
-0.0388372
-0.0537862
0.0656958
-0.0302533
-0.0433373
-0.0887848
-0.0873056
0.025193
-0.0343136
-0.0444153
-0.0407168
0.0302467
-0.0283695
0.0354439
-0.0016987
-0.0550402
-0.0302381
-0.0155757
-0.0195087
-0.0285031
0.0231153
-0.0205226
-0.0126579
0.0252952
-0.0315791
-0.0239724
-0.00951639
-0.0490927
-0.0496512
-0.00558244
-0.0182153
-0.0321186
0.0388319
-0.0343755
-0.0477963
-0.0437586
-0.0768773
-0.0325963
-0.0279432
0.0447119
-0.0270864
-0.0367815
0.0800014
-0.00671486
-0.0344561
-0.0187976
0.0694443
-0.0314479
-0.00575451
0.0355013
-0.00405853
-0.0505562
-0.00588959
0.022438
-0.00557818
0.0224983
0.0296882
0.026552
0.0200078
-0.00399628
-0.134106
-0.0277845
0.114286
0.0476031
-0.00500138
-0.0288156
0.0155076
0.0183113
0.114267
-0.145079
-0.0405764
0.071385
0.0287269
-0.0673831
0.017444
0.0212111
-0.0648462
-0.135366
0.0661065
-0.108525
0.0386777
-0.0839789
-0.0226608
-0.078237
-0.00244146
0.00595406
-0.011813
0.00830955
0.0144497
-0.0311875
-0.00545301
0.0222006
-0.00528214
0.0188699
-0.0475354
0.033952
0.0194229
0.0282475
-0.0422316
-0.00543322
0.0043808
0.00305511
-0.00987475
0.000930801
0.0179016
-0.00388423
0.0263635
-0.00822445
-0.139102
0.0637482
-0.0320713
0.107419
-0.0447078
0.0189252
-0.0549524
0.0807335
0.071233
-0.125277
-0.0552308
0.109258
0.117769
0.0202861
-0.220783
0.0827248
-0.019017
-0.155174
0.0350799
-0.142617
0.0788896
-0.0399374
0.00252932
-0.111322
-0.0262725
0.00916906
0.0326281
-0.0155273
0.0375731
0.0158718
-0.0457988
-0.0076426
0.00758552
0.0394768
-0.108581
0.0615145
0.0122758
-0.0441742
0.0436557
-0.0117534
-0.0259374
0.0166319
-0.0169623
0.00350609
0.00812909
-0.00392516
0.032832
0.00716319
-0.00157282
-0.028383
0.0011286
0.0347414
-0.0427293
-0.137091
-0.0493032
-0.0239639
0.00587478
0.00157513
-0.00857543
0.0242801
-0.0172767
0.0358423
-0.00636351
-0.0310514
-0.00765412
0.0192751
-0.02407
-0.0376843
-0.0418969
0.0194694
0.0136579
0.00602118
0.042754
-0.076396
0.0525128
-3.01403e-05
-0.111392
0.0686901
-0.0397498
-0.0332001
0.000271292
-0.0778971
0.0446677
-0.0348725
-0.0454202
-0.0756855
-0.0159883
-0.0397299
0.0249291
0.0355267
0.00463035
0.051768
-0.0651591
0.052863
0.0348383
-0.114746
0.0344819
-0.0425774
-0.00107831
-0.0619033
-0.123329
0.0603477
-0.105223
-0.000772951
0.0114328
0.0430705
-0.10054
-0.0465195
-0.0417308
-0.0480747
-0.0335324
-0.0823794
0.00554861
0.014149
0.107936
0.0827698
0.00368445
-0.127779
0.0602567
0.0199929
0.00501675
0.0192178
0.0460673
0.0409732
0.146527
0.00748622
0.0377702
0.0565212
0.222652
0.212354
-0.0270339
0.357316
0.364541
0.00964927
-0.557411
0.252755
0.292473
0.0121757
-0.0448804
0.336348
0.317558
0.248055
0.470901
0.618061
-0.0126915
0.221519
0.204503
0.282164
0.0843066
-0.186408
0.047156
0.147879
-0.380671
0.174026
0.0587586
-0.191153
-0.033371
0.0992409
-0.00619127
-0.303855
0.0892667
0.127083
0.174156
-0.216932
0.180861
0.0940928
0.056642
0.0463377
0.0377664
-0.0118323
0.149279
-0.0157017
0.165453
-0.182061
-0.0152251
0.0887088
-0.024417
0.0679197
0.0770221
0.0565653
0.238666
-0.0123623
0.0393139
0.0959186
0.228588
0.112597
-0.188501
0.0827959
0.16597
0.0649178
0.0410367
-0.105006
0.148325
0.276255
0.132409
-0.000322267
0.0965107
0.000429738
0.134077
0.199425
0.334445
-0.00948715
-0.0160246
0.500698
-0.196879
0.42367
0.0259632
-0.135084
0.205213
0.0126725
0.156211
0.274746
0.344691
0.135592
0.00407192
0.283409
-0.00116616
0.0665985
0.0406377
0.139184
0.121369
-0.171677
0.0512254
-0.165303
0.0817567
0.0747606
-0.201583
0.111662
0.0854059
-0.358994
0.106363
0.422367
0.1997
-0.130286
0.173277
0.0125904
-0.144115
-0.234741
0.0090092
0.196633
0.039239
-0.00286698
0.112857
-0.14932
0.139746
-0.0503963
0.0139691
-0.103498
-0.255848
0.120368
-0.0780934
0.213983
0.0816293
-0.149842
0.0533872
0.01469
0.034666
0.165811
-0.161447
0.172516
0.00203773
0.101874
0.1455
0.0185452
-0.147974
0.25245
-0.0183727
-0.0865737
0.0526086
-0.579518
0.345824
0.180937
-0.0940037
0.616986
-0.246712
-0.276499
0.164814
0.049442
-0.400633
0.185998
-0.115061
0.0301769
-0.0638487
-0.183422
0.120539
-0.170311
0.365102
-0.447769
0.909779
-0.585855
-1.09272
0.769261
1.32422
-0.730992
0.212193
-0.804874
-2.61776
1.06413
-3.52156
5.07538
1.30711
-0.972533
-1.11618
0.781881
-0.561951
1.94467
-0.472484
2.34929
-1.58624
0.785074
2.46684
0.516728
-0.242875
0.00465468
0.331911
-0.0936385
0.287632
0.0317424
-0.376197
0.056858
0.0548316
0.343504
-0.556675
0.158351
0.173915
-0.0985758
0.060033
-0.135122
-0.220401
0.141288
-0.163542
-0.315673
0.383142
-0.00338594
0.318662
-0.26422
0.0154319
0.0360336
-0.102152
-0.269114
0.0136107
0.376294
-0.215232
0.0394288
0.0259179
0.042828
-0.168033
0.277829
-0.152873
0.0541051
-0.137132
0.0984066
-0.196441
-0.0362256
-0.0580755
-0.447864
0.327207
-0.0387011
0.0736456
-0.192829
-0.00667635
1.0246
-0.400529
-0.618607
0.62626
0.00669373
-0.0138609
0.439465
0.4252
0.219815
-0.398666
0.639325
0.418235
-0.266912
0.22526
-0.24305
0.287136
0.448353
-0.138801
-0.51879
0.665645
0.196839
0.285032
-0.340993
0.474164
-0.405875
-0.42562
-0.434034
-0.226248
-0.446172
0.140193
0.0932701
-0.424794
0.136598
0.15717
0.0047419
-0.702745
-0.875275
0.073403
-0.708578
-2.36187
1.86549
0.54576
-0.0491239
0.0461797
0.776191
-1.26813
0.445478
3.789
-5.39563
3.08755
-1.48007
-0.907583
-1.5362
0.938598
1.50528
-2.98267
-2.51714
3.13855
-2.2
-0.736236
-6.97139
3.54765
-5.38228
0.200391
-0.0756469
-0.0746983
-0.0526541
0.125235
-0.021675
-0.101686
-0.00262637
-0.246325
1.18065
-0.497839
-0.436821
0.00927717
-0.261702
0.26939
-0.01763
0.00890877
0.38227
-0.192356
0.328479
-0.194426
0.308915
0.0823975
0.391092
-10.4419
11.1598
6.82983
-7.54762
3.09037
-2.14027
0.303426
-1.25398
2.52981
2.50295
-5.87575
0.843107
0.275001
0.470334
-0.596747
-0.148605
-7.86694
-1.66913
-0.905774
-1.53407
-3.24246
-2.41689
1.02252
-1.42125
0.970759
1.13017
-0.857163
-1.24398
-0.41372
0.144572
0.228409
0.0407532
0.0323583
-0.0613451
-0.261669
0.290607
0.0660893
0.0822914
-0.28615
0.137749
1.11135
0.24969
-0.390245
-0.173095
0.870709
0.283509
0.0320288
0.142801
0.588332
0.47928
-0.292278
4.5594
-7.82659
-2.12792
-2.12235
0.550441
0.0353912
-1.11941
1.14483
0.582852
-0.608695
2.3931
-0.0670409
-1.73729
1.57021
0.11303
-1.29967
-0.439143
0.71751
-0.313719
0.502379
0.380759
1.65571
0.0114937
-0.486872
-0.380972
-4.178
-3.26748
-0.328082
-0.691707
0.256526
-0.919773
-0.153051
0.992454
1.27466
-6.32921
2.92706
2.68182
-1.00152
-0.308393
1.03589
1.25802
-1.42351
0.104448
-0.570614
0.698116
1.14714
1.67207
-2.23438
4.19073
0.652641
-0.11785
-0.835139
0.437522
0.979305
-4.9427
2.81378
-3.39442
3.1413
0.678516
-0.808913
0.307414
-10.9986
10.6024
2.26175
11.5483
-11.339
2.87846
-1.49265
-0.814462
1.9215
0.385245
1.45062
1.29517
-1.80755
-8.59434
1.14348
0.898259
2.05573
-3.92158
6.51565
-4.51604
-5.48288
10.3398
1.97301
3.72518
-0.158099
0.888166
-0.171186
-0.50466
-0.508746
-1.2039
-3.77838
-0.681932
0.217319
-0.270547
-1.62221
0.432509
0.208784
0.31004
-0.344282
-0.174789
-0.420538
0.367537
-0.193866
0.382268
-0.768608
-0.193192
-0.209573
0.348071
-0.539177
0.121231
-0.185636
0.273053
-0.177017
-0.122349
0.242518
-0.63778
-0.112815
-0.0663081
-0.678315
-0.52548
-0.292901
0.371842
-0.224594
-0.52347
0.119256
-0.135593
-0.10294
0.0220372
-0.15683
-0.471594
0.0492069
0.0920032
1.18736
-9.59926
-0.855448
0.344154
-0.303251
0.857416
-0.563903
0.165595
0.433603
-0.494774
4.58997
-1.7113
-1.69134
-0.781551
-0.398868
-0.323012
0.327435
0.413076
-0.0902804
-0.679843
0.685865
-0.463213
-0.393812
0.630951
-0.324978
0.0381138
-0.237367
-1.12601
0.104966
-0.920599
0.42564
-0.129781
0.715337
0.360996
-1.3797
-0.067969
-0.562317
-0.800681
0.0130736
0.281137
0.314625
-0.820422
0.839751
0.989108
-1.11361
0.448751
0.823525
0.446718
0.345935
0.237904
-0.526554
0.0613994
0.28401
0.334818
0.968673
0.266459
-0.127434
0.043314
0.214122
-0.130114
-0.0906386
0.121986
-0.0883993
0.0567807
0.0512451
-0.0766997
0.127495
-0.102243
0.175617
-0.103381
-0.0157259
-0.0564336
0.0915379
-0.186441
-0.0326889
-0.151795
0.152461
0.066042
-0.0768915
-0.034532
0.464017
-0.055575
-0.199138
-0.208276
0.899049
-2.1648
-2.25565
-0.918631
-0.122061
-0.0511054
-0.216845
0.0579476
-0.645714
0.946671
0.392539
-0.874397
2.0678
-0.221137
0.437073
-0.261114
0.047129
-0.0431723
0.086429
-0.0904441
-0.0821861
0.0411428
-0.0363615
0.00872873
0.0761754
-0.0877916
0.0885331
0.0115987
-0.0861301
0.089455
-0.0911399
0.0489045
-0.102534
0.109856
0.0917674
-0.0943944
-0.189294
0.240008
0.0138234
-0.0644847
-0.0794157
0.00495353
-0.202252
-0.0808367
0.13811
-0.0758494
0.322283
0.0826602
-0.0591308
0.144215
-0.233515
-0.100073
-0.137706
0.202238
0.0980035
-0.00927895
0.16535
0.217039
-0.26005
-0.0607447
0.143546
-0.159604
0.125527
-0.162919
-0.0657271
-0.18637
0.354307
0.230697
-0.398587
-0.0436183
0.0322341
0.176856
-0.138825
-0.092611
-0.0613514
-0.105758
0.158171
0.00387803
0.000343348
0.412567
-0.133314
-0.187785
0.200205
0.10138
-0.131583
0.173741
0.190133
0.145151
-0.0703001
0.156907
0.0900399
-0.0458767
-0.188767
0.125255
-0.0961119
0.105096
-0.0280161
-0.073371
0.309079
0.128517
0.123383
-0.113884
-0.0567731
-0.0330336
-0.0989892
-0.057459
-0.0714084
0.166892
-0.0494159
0.0964831
0.321213
-0.139879
-0.188161
0.187823
0.0752859
0.00216672
0.00270385
0.00726342
-0.00278474
-0.00718951
-0.00346603
0.010712
0.0206567
-0.0279066
0.0276105
-0.00247718
-0.016883
-0.00825175
-0.0319918
0.000139788
0.0302164
0.00163436
-0.0163153
-0.00437125
0.0233884
-0.00276389
-0.0170197
-0.0261952
-0.0101688
-0.00134951
0.00770714
0.001744
0.0204389
-0.0298934
0.0050237
-0.00701202
0.0167161
-0.014729
0.0158577
0.00646931
0.00314323
-0.0254723
-0.0282471
0.0125087
-0.00839811
0.0241339
-0.0216965
0.00810412
0.0212963
0.00708882
-0.0237635
-0.0270285
0.00688376
-0.00408243
-0.00528164
0.0292478
-0.0192511
-0.00471718
0.00550608
0.0182847
0.00251129
-0.0263051
0.0224747
-0.0070216
-0.0141962
-0.00126018
-0.0214203
0.0240798
-0.0104896
0.00782579
-0.0251564
-0.00466582
0.0245382
0.000488116
-0.0201398
-0.0273379
0.0012498
-0.00437637
-0.0151466
-0.0381084
0.0451771
0.00807434
0.0184898
-0.0325613
-0.0150612
0.0291287
0.0277479
-0.0255725
-0.017092
0.0149135
-0.031906
-0.0235546
0.0361793
0.0192815
-0.0491612
-0.000224332
0.0342381
0.00332261
-0.0339953
-0.0481646
0.0160318
-0.0170957
0.00938621
-0.0211143
0.0224362
0.0293508
-0.0263924
-0.00543549
-0.0383337
-5.2673e-05
0.0385219
0.0031823
-0.036658
0.00475948
0.0287115
0.00271832
0.0341477
-0.0274828
0.0307177
0.0060954
0.0312323
-0.00152233
0.0108819
-0.0302557
-0.0325862
0.00843506
0.0241145
0.010466
-0.0281135
-0.000383085
-0.00366131
-0.0223496
0.00468076
-0.021285
-0.0210229
0.00539301
-0.0270621
0.00848383
0.0273344
-0.0301293
-0.00264236
-0.0404914
0.00232628
0.0126041
-0.0404073
0.000810563
-0.036697
0.010309
0.0325447
-0.00834888
0.00313503
-0.00946964
0.0308609
-0.0384009
-0.00454346
-0.00241536
-0.0102048
-0.0230865
-0.00888802
0.0290276
-0.000279014
0.02805
-0.00805656
-0.0127672
0.0294539
-0.00640101
0.0742026
0.0798013
-0.0827565
-0.0599931
0.0976239
0.0645439
0.0364915
0.0468108
-0.0362008
-0.0924088
0.10678
0.0469159
-0.0612897
0.00482802
0.0256159
0.0437583
0.030413
0.0104867
-0.0772802
0.0773906
0.0214953
-0.0723278
0.078743
-0.0826549
0.0656685
0.0424629
-0.0372973
-0.0558342
-0.0389493
0.0535308
-0.00279441
-0.0206885
0.0449755
0.0590771
-0.0113808
-0.0651432
0.0282021
0.0183268
-0.0199636
-0.024494
0.0221226
0.017472
-0.0210928
-0.0283012
0.0157157
-0.0197186
0.00359187
0.00737169
0.0172356
0.0162154
0.00343668
-0.0243673
0.0747887
-0.0708952
0.029762
-0.0336572
-0.0448128
-0.0590984
0.0303017
0.0170389
-0.0258297
-0.0209992
-0.0466062
0.0244078
-0.0197216
0.0178179
0.0284736
0.0284971
0.027277
-0.0542722
0.00715821
-0.0252913
0.0335066
0.00951308
0.054603
0.026132
0.00761318
0.0130635
0.0195848
0.0447648
0.0424293
-0.0702105
0.00960049
0.029278
0.0313292
-0.0439283
0.0654133
0.0120208
0.0595942
-0.0445923
0.0397945
0.0345863
0.0655031
-0.0755058
0.0461563
2.7358e-05
0.0275406
0.0327609
0.0256129
0.110942
-0.0334197
-0.0297084
0.0226971
-0.00698648
0.0324499
0.00725679
-0.0266443
0.0204609
-0.0465923
-0.0391881
0.00936674
-0.00797811
0.0055573
-0.0234116
0.0215873
0.0328196
-0.0219596
0.0766339
0.0168264
0.00801329
0.0511954
-0.0155093
-0.0213548
0.00186533
0.0343239
0.0341052
0.0268273
0.0289836
-0.112516
0.0847311
0.0770659
-0.117644
0.00895637
-0.126698
0.11774
0.0217727
-0.045115
0.0407817
-0.108835
-0.0263437
-0.0317693
-0.075543
0.0709699
-0.0983577
-0.0942679
0.0621922
0.015913
-0.0711523
0.0341624
0.0662993
-0.100474
0.0512073
0.0882196
-0.056702
-0.0639397
-0.0278043
-0.0480265
-0.046461
0.0698607
-0.0603282
-0.105981
-0.0219592
0.127935
0.119159
-0.0320073
-0.0871688
-0.0401567
-0.091567
0.131712
0.0316724
-0.059014
-0.029803
0.0571319
-0.0955131
0.0203074
-0.0307901
0.0236417
-0.0429656
0.0949374
-0.0594878
0.00636071
0.0162457
0.010018
0.0313292
0.052341
-0.0221563
-0.045124
0.0281652
0.00752941
0.00942388
0.0279975
-0.000276315
0.0159368
0.0274534
0.0117385
0.0195192
0.0392624
0.029549
0.0101859
0.00394749
-0.0337288
-0.0999077
-0.0052475
-0.115478
-0.00597914
-0.0268526
0.0066628
0.0656248
-0.0187512
0.00598472
0.0679129
-0.0327999
-0.0688463
-0.0356929
0.0673052
0.00475806
-0.037716
0.0574153
0.0120514
0.0769222
-0.0106297
-0.0997192
-0.0157618
-0.0910714
-0.0154957
0.0362015
-0.115216
-0.00209355
-0.0377541
-0.042956
0.0747275
0.00169877
0.0212036
0.060553
-0.00223042
-0.0231318
0.0219264
0.02936
-0.0457234
-0.0498423
0.0578039
-0.0392687
-0.0605467
-0.0124321
-0.080679
-0.0187381
-0.0183519
0.0480667
-0.0382453
0.0339286
-0.0765787
-0.0387507
-0.072721
-0.069923
-0.0408867
-0.0627413
0.291627
0.0162213
-0.228048
-0.0985694
0.266629
0.0375639
-0.205622
-0.00869798
0.0830843
-0.0098459
-0.120373
0.147953
0.019332
0.111963
0.150442
0.029221
0.226415
-0.213021
0.0738272
0.291544
0.404703
-0.12504
0.0206034
-0.300267
-0.162184
0.0325349
-0.205373
0.0257275
-0.115063
-0.15381
-0.248485
-0.119528
0.0728273
0.121941
0.249329
0.0334446
0.116545
-0.156773
0.111289
-0.110442
0.373474
-0.0132631
-0.281468
-0.119402
0.00206225
-0.157689
-0.0191639
-0.0334618
-0.174825
0.00833648
0.139461
0.216847
0.0171631
0.252244
-0.232186
0.0869972
0.069026
-0.0596324
0.020367
-0.0756342
-0.124093
0.0567469
0.00189021
-0.0377924
-0.0224136
0.0255609
0.037201
0.0114043
0.0204212
0.0882335
-0.126668
0.0174875
0.169403
0.0682469
0.028978
-0.0226284
0.051724
0.0539867
0.064379
0.0627941
0.020778
-0.225374
0.0678571
0.0942717
0.0632516
-0.0857259
0.173109
0.0820194
0.18319
-0.0851244
0.0328594
0.162443
0.177248
-0.234044
-0.1898
0.138126
-0.122882
0.196818
-0.189002
0.100277
0.0960008
-0.144556
0.273872
-0.014607
-0.0263714
0.362202
-0.276534
0.212945
0.0448907
0.0636984
0.0455906
-0.0778523
0.0480299
-0.0415056
0.0350384
0.00191473
0.0827674
0.209948
-0.00542735
0.046688
0.146435
-0.0784418
-0.0211149
-0.0904858
0.0909663
0.0726305
0.0592116
0.195089
-0.0615136
-0.0430267
0.0242679
0.0183089
0.131431
0.0308258
-0.0599544
-0.0713608
0.00190086
0.0306559
-0.0295654
0.0143509
-0.00193455
-0.00337831
-0.0441066
-0.015222
0.0576876
0.019902
0.214867
0.0369024
0.0428779
0.284717
-0.283531
0.0279172
0.0547407
0.200868
0.199951
0.0695724
0.0480365
0.243017
0.096817
0.0867327
0.193179
0.243617
0.0531416
0.0468147
-0.014805
-0.00187009
-0.0705759
0.0512498
-0.18326
0.0532539
0.0787198
-0.0610076
0.0396526
-0.0702606
0.0129362
-0.0892073
0.0464429
0.00237718
0.0786904
-0.0959324
0.0604618
-0.00684975
0.032099
0.0315369
0.0212874
0.0452685
0.0267383
0.09531
0.0434058
-0.0801429
0.0500884
0.0375887
0.0355393
0.0321108
0.0880484
0.0291632
0.0390998
0.0756888
0.0686543
0.027611
0.069249
0.122305
-0.13294
0.0206147
0.052332
0.100842
0.036177
-0.0246383
0.167399
0.0569361
0.0580556
-0.120213
0.131394
-0.0901071
0.0517807
0.0625173
0.0398102
0.10239
0.157925
0.0790432
-0.185257
0.0755937
0.137561
-0.0493943
0.0390461
0.0309238
0.023135
0.148053
0.234195
0.0243137
0.0743313
0.0732488
-0.0190711
-0.00529622
0.0432093
0.0135694
0.138675
-0.0475189
0.0792489
-0.0811571
-0.000649826
0.024571
-0.113829
0.0656492
0.0318481
-0.0436457
0.0336816
0.174762
0.0429531
-0.155526
0.0478424
-0.0441807
-0.0199095
-0.0221784
-0.102187
0.0503941
-0.744788
-0.170733
0.883688
0.0314817
0.752292
-0.70066
-0.121103
0.069304
-0.114384
-0.551209
0.444676
0.221018
0.144342
-0.377622
-0.137703
0.370795
-0.614039
-0.16232
0.031452
-0.0625955
0.200806
-0.5086
0.490364
-0.685641
-0.45527
0.672823
0.0221775
-0.23973
0.38526
-0.147978
0.22801
-0.465264
0.0685047
0.309678
-0.0972246
-0.280958
-0.0782301
0.530646
-0.478616
0.0262361
-0.680966
0.0754552
0.150266
0.0943236
-0.390021
-0.482487
0.479783
-0.319656
0.361277
-0.0345007
0.0243525
-0.35106
-0.121647
0.394259
-0.0872075
-0.185481
0.183871
0.250911
-0.255103
-0.179729
-0.333856
-0.0906116
-0.548917
0.973368
-0.0173181
0.0368901
0.341666
0.0160877
-0.155073
-0.483627
0.186655
-0.283683
-0.449567
0.1624
-0.123078
0.410096
0.41708
0.131356
-0.455958
-0.0925476
0.242347
-0.445442
-0.303153
0.506166
-0.173359
-0.306359
0.0884289
0.391215
-0.329597
-0.0555843
-0.0644763
-0.0799277
0.167379
-0.532674
0.303533
-0.37028
0.0293655
-0.718321
-0.0117323
0.0810522
-0.582174
-0.0500963
-0.393781
0.0403765
-0.0243257
0.467536
-0.52044
0.0833156
-0.030413
0.626603
-0.00716561
-0.590143
0.0220076
0.522823
-0.0624911
0.151036
0.0886798
-0.134182
-0.00548264
0.0156953
0.611864
-0.18226
-0.119911
-0.665968
0.0862008
-0.00235234
-0.444722
-0.0566965
0.0295887
-0.656197
-0.0664415
-0.0147374
0.421073
-0.478092
0.00713808
-0.486268
0.688912
0.74748
-0.532878
0.0312673
-0.710284
0.233401
-0.393407
-1.17402
1.98848
-0.728678
-0.186182
-0.956588
-0.426357
-0.220352
-0.580569
0.1747
-0.691895
0.185294
0.0267456
0.321716
-0.406365
-0.855241
-0.235815
-0.916357
-1.39062
0.166973
-0.941078
0.0873451
-0.308825
0.0223764
0.870492
-0.971841
0.244342
-0.142908
0.286443
-0.641807
-0.290372
-0.83949
-1.42552
-0.874182
0.122137
-0.681593
-0.45748
-0.68526
-0.150044
0.00839403
0.0531037
0.0815781
0.0393094
-0.0776457
-0.0309531
-0.0692277
0.159806
-0.0598823
0.123166
-0.0865963
-0.0523129
-0.0611405
-0.121917
-0.0136794
0.0336243
0.0654598
-0.0643846
0.0207168
-0.584691
0.591028
-0.0265647
0.0203203
-0.000434439
0.222182
0.059337
-0.280939
0.329841
-0.00504895
-0.28788
-0.0368284
0.106219
0.278394
-0.305541
-0.0790509
-0.415844
-0.543959
0.375238
-0.32495
-0.0912514
-0.30602
-0.131708
-0.301097
-0.275254
0.238838
-0.165864
-0.0795947
0.14763
-0.0542058
0.0894786
0.113523
-0.150814
-0.0522936
0.255796
0.0189791
-0.192147
-0.0482863
-0.327134
-0.220258
0.0923089
0.0574533
-0.128818
-0.0733273
-0.2166
-0.352336
0.672131
-0.838832
-0.805083
-0.375969
-0.664496
0.205755
-0.0490077
-0.222255
0.0165253
-0.137399
-0.0957509
0.00338906
0.00698834
-0.365626
-0.345691
0.0016987
0.117567
-0.253084
0.148067
-0.280174
0.0631233
-0.0027308
-0.65302
-0.182973
-0.197947
-0.243399
-0.144651
-0.282439
0.036406
-0.278907
-0.212361
-0.337538
-0.255171
-0.154187
-0.271489
-0.0710706
-0.00353077
0.390303
-0.176059
-0.100713
0.232158
-0.365286
-0.0792565
-0.287658
0.266419
-0.241391
-0.399464
0.378479
-0.276098
-0.142662
-0.113914
0.133737
-0.191638
-0.0619617
0.0377664
0.0751281
-0.107401
-0.1749
0.112853
0.385521
0.168581
-0.666826
0.10877
-0.367337
0.0162626
0.24224
-0.209818
-0.58676
0.959982
-0.163027
0.270755
-0.174595
0.156358
-0.251572
0.391982
0.116753
-0.395396
0.658754
-0.1579
0.074728
0.313324
0.523877
-0.172252
0.136487
-0.029727
0.0653595
0.0765481
0.0230871
0.0131809
0.0881379
0.1529
-0.0271277
0.0445541
0.00367625
0.00532175
-0.185488
-0.0699528
0.0829748
-0.0844308
-0.0245569
-0.149207
0.123623
-2.82312
1.23864
1.96596
-0.381191
0.180386
0.508889
0.0804891
3.26696
2.61769
-0.809177
-0.829462
1.23904
0.372239
-0.332572
-2.35217
-0.137772
0.281958
-0.434086
-6.01575
2.8342
-0.199082
-0.0911786
0.19889
0.0913053
0.080871
0.0095357
0.241579
0.0478186
-0.292499
0.403029
-0.0198329
0.095489
-0.0155207
-0.36537
-0.0201303
0.186606
-0.251967
-0.0325411
-0.114513
0.074583
-0.330091
-0.237102
0.20002
-0.630499
0.108436
-0.0642165
-0.405243
0.0114144
0.219571
0.134226
0.0168763
-0.276464
0.125922
0.105562
0.0316638
-0.466999
-0.0010516
0.273051
-0.107064
-0.133259
-0.114119
0.0136082
0.0491421
-0.0285905
0.311159
-0.268936
0.110955
-0.235251
0.585828
-0.241992
-0.338864
-0.242211
-0.166016
-0.44708
-0.0302434
-0.301756
0.429477
-1.99644
1.50318
-0.367161
0.28741
0.22898
-0.495966
0.403533
-1.36957
0.673263
0.362011
-0.618228
0.685343
-0.138613
-0.057825
-0.15767
-0.171464
0.0662178
-0.237468
0.465687
-0.266363
-0.0427748
-0.357845
0.121148
0.031447
-0.030877
-0.00672468
0.00615247
0.00342671
0.0187423
-0.016466
-0.00570253
-0.0216811
0.0221422
-0.00440745
0.00394322
-0.00864538
0.027352
-0.0260378
0.00733211
0.0195938
0.0315022
-0.019652
0.0300515
-0.00703311
0.0190744
0.00378186
0.0274437
0.0194922
0.00466233
-0.0160403
-0.00811292
0.00359804
-0.00432618
0.00655799
-0.00582616
-0.0184719
0.0054864
0.0237233
-0.010736
-0.00547111
0.00232591
-0.00288554
0.00604107
0.0132908
0.0193038
-0.0130987
0.0261668
-0.00927669
0.0107877
0.00304592
0.0184831
0.0207249
-0.0212049
-0.00384548
0.00432585
0.00579726
-0.0219468
0.0275372
-0.0113856
-0.0219121
0.0220414
-0.00447822
0.00435097
-0.00527713
-0.0146965
0.0168819
0.00309424
0.0169223
0.0240171
-0.0202127
0.0302056
-0.00748482
0.0154228
0.00331751
0.0237167
0.00479373
-0.0071227
0.000897678
0.00143364
-0.00206835
-0.00145449
0.00342129
0.000111706
-0.00293541
-0.00537148
0.00863018
-0.000321039
0.000203488
0.0180522
-0.0118595
-0.006395
0.00305009
-0.00533134
0.00707877
0.00664306
-0.00565834
-0.000829259
-0.00429685
0.00287985
0.0201605
0.0133971
-0.014811
-0.0224792
0.0181827
0.0264353
0.0138704
0.0234235
-0.00993954
-0.00524937
0.00456771
0.000208738
0.000498759
0.00336069
0.0052421
0.0115581
0.00832542
0.00202607
-0.00202843
0.0242227
0.0273686
-0.00930871
-0.00845641
0.0153505
-0.0148286
0.0308432
-0.0105254
-0.00403493
0.0290735
-0.00685604
0.0221825
0.0167475
0.016774
0.0212953
-0.00858142
0.0232422
0.00651195
0.0163008
0.00362265
0.0131157
0.00318627
-0.00085367
-0.000390388
-0.0202735
0.0118676
0.00303624
-0.0179978
0.0209749
0.00353648
0.0193414
-0.0128294
0.0135319
0.0241694
-0.0213465
0.0185187
0.00586083
0.00910377
-0.0136435
0.0225406
0.00663343
-0.00267648
-0.00118095
0.00692261
0.0116048
-0.02709
-0.0137997
0.0100114
0.0286972
-0.0270375
-0.0102065
0.00854622
-0.00850371
-0.0103716
0.00240944
0.000889557
-0.0178903
-0.00903643
-0.0176891
0.00240608
-0.0118074
0.00297055
0.00803694
-0.0163568
-0.0218901
-0.0325524
0.0348888
-0.0112736
0.00893734
0.0462684
-0.016598
-0.0421327
0.0124628
-0.0060399
0.0187953
-0.0154688
0.00271429
0.00291466
0.0208802
-0.00440231
-0.0193905
-0.0261344
0.00364469
-0.0100627
0.00491409
0.0152196
-0.0188876
0.0254467
-0.0200134
-0.0132726
-0.00468367
0.00191708
0.0173126
-0.00324788
-0.0168531
0.00279095
-0.000726585
-0.00750371
0.00390703
0.000239781
3.21786e-05
-0.00314836
-0.0126722
0.0032872
-0.00388641
0.00156373
0.00307698
-0.00957066
-0.00873139
0.00521413
-0.00463811
0.000326159
-0.00150144
-0.0011883
0.00208842
0.000608833
0.00125044
-0.00463667
0.00681036
-0.00646421
0.00541849
0.0190989
-5.39187e-05
0.00224449
0.00302797
0.000783307
-0.00233792
0.00285987
0.00489462
0.0031443
-0.0212848
-0.00889674
-0.0029591
-0.0126228
0.00521037
-0.0149145
0.0035221
-0.00649721
0.0169533
-0.0176219
0.00285747
-0.0021866
0.0241805
-0.00385798
-0.0171782
-0.000668627
0.0187089
-0.00561281
0.00312583
0.00315008
0.0104535
0.00145987
0.00179849
0.0137107
0.00332382
0.00176129
-0.0205757
0.00443389
0.00351938
-0.0195337
0.00550612
0.00737292
-0.0169685
0.00189939
0.00411509
0.00171897
-0.0113187
-0.0110554
0.00948372
-0.00781405
-0.00211369
-0.00202138
-0.00179868
0.00149515
-0.0097275
0.0025817
-0.00319895
-0.0115677
-0.00211671
0.000131277
-0.00162391
-0.00439133
0.0125458
-0.0124684
0.00108473
-0.0165382
-0.00422817
0.000123114
-0.00572793
0.892224
-0.756616
0.250243
-1.64961
2.33837
0.271966
-0.0642094
-0.693612
0.59842
0.159939
0.493598
-0.323344
-0.0133009
1.47711
-0.271327
-0.460241
0.287865
0.36827
-0.145061
-0.155764
4.24292
-3.21555
0.93932
-5.12251
1.86461
0.131144
-0.189043
0.360545
0.901307
-0.677735
6.54644
0.530892
-0.379234
1.80343
1.66934
-0.237378
0.871882
0.070031
-0.812056
-0.129786
-0.954142
0.51194
-0.0556976
0.05055
-0.126454
0.0539446
0.132028
0.205463
-0.0680806
0.847704
-0.265159
0.289429
-0.367678
0.261187
-0.0739641
-0.0591467
-0.28103
0.183533
0.29646
0.352577
0.341157
-0.0772294
0.21721
0.0884964
0.0478651
-0.238464
-0.123822
-0.0825144
-0.033327
0.262187
-0.0322449
-0.00226592
0.0477932
3.79399
0.212046
-0.579045
-0.326208
0.110347
-0.14603
-0.481898
1.53231
-0.37719
-0.362798
-0.504939
0.91595
-0.306486
-0.301423
-0.49753
-0.359353
0.938005
0.61835
0.236246
-0.605801
-0.556961
0.973625
0.0304867
-0.355973
-0.253576
0.221943
0.334722
0.602914
-0.429744
0.794795
-0.432634
0.0512669
-1.92231
1.54497
-0.152682
0.190918
-0.315994
0.28067
0.339072
-0.627404
0.505711
0.483695
-1.08368
0.651486
-0.166244
0.220051
-0.964276
-2.20831
0.557383
-0.318072
2.76873
0.140373
-2.05923
-0.266269
0.276927
0.132209
0.121201
0.0153372
0.0945967
-0.068884
0.135732
0.09296
-0.0889385
0.130202
0.0861966
0.0453967
0.239215
0.0943737
0.0503255
0.0999299
0.0758567
0.0933247
-0.278899
-1.58295
-0.505414
0.960744
-0.851872
0.136053
-0.00844875
-0.22186
0.179478
0.19246
-0.31946
-1.26797
0.100412
-0.428316
-0.206639
0.0258377
0.0986722
-0.0649481
-0.540918
0.653704
-0.138911
0.404834
-0.138329
-0.271389
0.118971
0.172608
-0.110106
-0.18143
0.0661215
-0.211877
0.171712
-0.565879
0.0412568
-0.134096
-0.119771
0.124518
-0.0989254
0.0608397
-0.0506991
-0.0606483
0.0749501
-0.0411073
-0.0654696
0.103803
0.0026133
-0.066389
0.0924893
0.0500802
0.0526022
0.181777
0.0577228
-0.0559746
0.0454158
0.0699549
0.0620473
0.058703
0.0400924
-0.0109936
0.0116167
0.135284
0.0559006
0.24802
-0.163873
0.0784897
0.285618
-0.0511732
0.0722357
0.0378396
0.0136625
-0.00167235
0.0676649
-0.236716
0.117128
-0.260345
-0.0928114
-0.941678
0.178557
-0.103532
0.0214309
-0.220254
-0.289791
-0.00530375
-0.387891
0.0827454
0.0221386
0.0303642
0.0319451
0.117129
0.104797
0.120165
-0.169982
0.0672329
0.0371875
0.00183962
0.0731153
0.0075013
0.101434
-0.150256
0.0533732
0.0172758
0.334008
-0.0940708
-0.1852
0.0450774
-0.0427705
-0.245114
-0.095899
0.284919
0.291508
-0.145735
-0.0394414
0.000243618
-0.0196825
0.0271864
-0.00775182
0.0256472
-0.00414937
-0.0142849
-0.00721305
-0.013086
-0.0172335
0.0280553
0.00226054
-0.0106604
0.0065769
-0.0247152
0.0287946
-0.0101727
0.0280262
-0.0176112
0.0211169
-0.00564302
-0.0114254
0.0287893
-0.00339675
-0.00680628
0.0191484
-0.00654973
-0.00579598