/*--------------------------------*- C++ -*----------------------------------*\
| =========                 |                                                 |
| \\      /  F ield         | OpenFOAM: The Open Source CFD Toolbox           |
|  \\    /   O peration     | Version:  2506                                  |
|   \\  /    A nd           | Website:  www.openfoam.com                      |
|    \\/     M anipulation  |                                                 |
\*---------------------------------------------------------------------------*/
FoamFile
{
    version     2.0;
    format      ascii;
    arch        "LSB;label=32;scalar=64";
    class       volScalarField;
    location    "1900";
    object      p;
}
// * * * * * * * * * * * * * * * * * * * * * * * * * * * * * * * * * * * * * //

dimensions      [0 2 -2 0 0 0 0];

internalField   nonuniform List<scalar> 
45440
(
1.69098
1.85275
2.19464
1.73698
1.86022
1.91382
1.91308
2.02555
2.15002
2.42728
2.51618
2.11413
2.3705
2.44173
2.34086
2.41559
2.54013
2.66479
2.83077
2.65291
2.53809
2.65508
2.83462
2.77681
1.36955
2.01126
2.03246
0.994485
1.82915
2.19122
1.28218
1.75353
2.01677
2.32016
1.89889
1.93542
2.11411
2.16677
2.03402
2.11803
2.1523
2.16399
2.5018
2.35849
2.21066
2.20381
2.29322
2.33477
2.3962
1.75976
2.12342
2.68043
2.21217
2.10956
2.42239
2.17747
2.44705
2.72555
2.20272
2.54992
2.4818
2.48398
2.55087
2.45206
-0.264931
1.11315
1.31986
-0.718669
0.741807
1.10565
-1.19078
1.12075
1.90552
2.39003
1.97566
2.21571
2.04257
2.2737
2.14504
2.31413
1.24501
1.71397
1.49494
1.53861
1.54516
1.56953
1.61911
1.75158
-0.0103571
1.84243
1.01293
-0.180007
1.28093
1.42747
0.186576
1.94093
1.58392
1.8077
0.863584
1.28329
1.79808
1.34893
1.25003
1.21237
1.54125
1.91415
1.83934
1.40033
1.90922
2.01249
1.74247
1.91172
1.51512
0.24448
1.83836
1.66772
1.11168
1.59749
1.53768
1.41277
1.57832
1.79321
1.84511
1.9621
1.64488
1.65941
1.98382
1.82311
2.85717
2.91945
2.66109
2.74363
2.89718
2.82598
2.74813
2.74357
2.63121
1.16526
2.01513
2.02571
1.02635
1.28763
2.85328
2.64642
2.55561
2.41437
2.56932
2.48181
2.45155
2.47238
2.4613
2.36094
2.51709
1.77601
2.25709
2.13313
2.411
2.24691
2.32565
2.04551
2.62074
2.64163
2.66889
1.72692
2.66945
2.75427
2.38402
2.62185
2.50144
1.56131
1.9999
2.61607
2.56653
1.8142
2.51205
1.88877
2.55432
2.60795
2.06972
2.35999
2.59859
2.53515
2.44508
2.48303
2.5828
2.18264
1.89465
2.69885
2.6385
2.49113
2.74043
2.20438
0.0898215
1.07029
-0.825157
0.654147
0.17253
1.13727
0.0185643
0.287035
2.04189
2.66092
2.71763
2.50387
2.18921
2.4104
2.14764
2.28391
-0.127353
1.65477
0.271443
1.47321
1.34148
1.29626
1.09956
0.841985
0.78958
2.13042
1.68853
2.07681
1.6928
1.73447
1.47795
1.52853
1.59406
0.230931
0.721971
1.88182
1.36625
1.07153
1.70936
1.38328
1.98309
2.17035
1.72352
0.832058
1.36527
1.57443
1.38927
1.92175
0.132463
0.263959
1.72738
1.27444
0.370483
0.366813
1.04097
0.921552
0.276013
0.598179
1.72051
0.921858
-0.0224712
0.743105
1.00264
2.23532
4.37594
2.57543
2.94526
5.49677
4.52477
3.97028
4.82572
3.40462
2.04781
0.703059
1.23213
1.37977
1.12902
0.913855
1.02629
0.853128
1.45987
1.13275
1.61726
1.15211
1.18377
1.34235
1.18278
1.16515
4.03152
2.84856
1.17413
2.38369
3.07581
2.20106
2.98233
-0.301117
1.85058
1.28877
4.79384
1.65474
1.96837
2.44578
2.36295
2.56868
1.91005
1.09499
1.46024
1.78567
1.26672
1.02484
1.2659
1.34066
1.37251
3.92056
0.966142
1.06873
1.52181
2.80073
1.50297
2.03081
1.21672
0.888274
0.715732
1.08976
1.13681
1.31163
1.23102
1.3917
0.984435
1.16534
0.845108
0.961027
1.21546
1.10067
1.03586
1.03442
1.20768
0.782839
0.522852
0.411973
0.864773
0.644869
0.691099
0.398399
0.690446
0.504314
0.128384
0.618347
0.561935
0.442454
0.585604
0.508013
0.830877
1.51206
1.1907
0.0445483
0.705662
1.40653
-0.431599
2.3309
1.2266
1.04792
1.00649
1.67085
1.10898
1.19021
0.99615
1.00756
1.209
1.01654
0.677952
0.933494
1.12241
0.751689
0.932813
0.755756
0.892434
0.668259
1.16717
1.23949
0.944644
0.975063
1.32232
1.44058
0.907908
0.731845
0.936175
0.455505
0.63554
0.938243
0.473973
0.109342
2.82013
2.62026
2.59713
2.65027
2.65659
2.625
2.64369
2.63468
2.25817
1.80522
2.07294
2.04258
2.03704
1.9941
2.04856
2.03028
2.51976
2.25631
2.3694
2.40575
2.41938
2.34949
2.41852
2.36808
2.5357
2.27178
2.44702
2.48614
2.48323
2.39228
2.51809
2.42075
2.40906
2.56217
2.52281
2.20946
2.41273
2.51501
2.39881
2.45755
2.34668
2.14786
2.21381
2.5275
2.35549
2.19506
2.39475
2.25331
2.5373
2.54492
2.25305
2.45486
2.54571
2.48164
2.43477
2.3733
2.51634
2.38634
2.17681
2.22702
2.39216
2.36568
2.24395
2.2479
0.347337
0.72925
0.575471
1.07833
0.732417
0.617765
0.804069
0.678686
1.1105
1.50486
1.51854
1.76905
1.37646
1.29567
1.45734
1.41925
0.484638
2.03462
0.81852
2.06541
1.3196
1.09172
0.688088
0.805266
1.73238
2.0644
2.28643
2.37618
1.88834
1.74491
2.04629
2.09965
1.11015
0.99977
1.35856
1.67713
1.15743
0.863198
1.37459
1.31332
1.05214
1.60423
1.22572
0.625727
1.13841
1.31633
0.995502
1.47471
0.837342
1.56091
1.72771
1.32809
1.30061
1.51226
1.52219
1.66485
0.695359
1.48186
1.73516
1.48111
0.873305
1.22766
1.31527
1.94368
2.36008
2.21568
2.48602
2.35768
2.36163
2.34836
2.44686
2.42103
1.96081
1.73355
2.18315
1.88984
1.94652
1.94676
2.01763
2.0158
2.66969
2.52757
2.78143
2.74986
2.72146
2.67605
2.86896
2.83107
2.84829
1.99202
2.69017
0.999626
2.8106
3.21232
1.52374
1.85868
2.18588
2.49237
2.3767
2.1195
2.28604
2.44449
2.12865
2.35525
2.17133
2.14873
2.36023
2.47599
2.28493
2.19605
2.40078
2.39818
2.55447
2.50582
2.08438
2.99474
2.85252
2.39809
2.84541
2.20131
2.52376
2.95733
2.12817
2.46623
2.54842
2.82922
2.52289
2.43657
0.143374
0.214051
0.723677
0.219374
0.297724
0.267394
0.625701
0.644904
-0.132893
-0.363023
1.04119
0.165777
0.230944
0.17715
0.472953
0.3942
1.25355
1.02616
1.41867
1.51762
1.12918
1.27009
1.41322
1.50614
-0.388517
0.942299
1.15675
0.863841
0.0593563
-0.284698
0.92962
0.900453
0.293495
0.745859
0.319404
0.571069
0.589112
0.584103
-0.299589
0.183425
0.199685
0.223734
0.883792
0.822484
0.648443
0.0474359
0.930874
0.842878
1.16694
1.31137
1.05767
1.44807
1.08989
1.08339
1.19011
0.28037
1.24729
1.70156
1.06132
1.40924
1.25386
1.20019
1.55046
1.48478
0.362697
0.531149
0.426178
-0.0873679
0.424158
0.670961
0.855692
1.22649
0.643098
0.586434
1.3345
1.22013
0.651941
0.676286
1.09438
1.28139
0.942712
1.17144
0.49569
0.860287
0.928793
0.947806
1.30007
1.82235
0.523732
1.02896
1.72545
2.02883
1.85787
1.00974
3.07133
3.04082
0.500627
0.783228
-0.582517
0.75943
0.693788
0.0130479
0.109304
0.0127778
0.678882
1.22404
1.27609
1.0162
1.14306
0.866268
0.909061
1.21387
0.78592
0.597013
1.83465
1.19785
0.715607
0.898839
1.05128
0.689598
0.891307
1.86324
2.12538
1.8923
0.597623
1.21211
1.44417
1.50372
1.10994
1.2728
1.63143
1.78136
0.756132
1.42638
1.11813
1.36583
1.36926
0.586544
1.20822
1.66838
1.2783
0.780989
1.22164
0.711282
3.40667
3.29082
6.14937
2.90121
1.62762
4.08066
3.30358
4.63297
1.87431
1.86451
2.58624
2.22778
2.19219
2.43118
2.46552
2.68879
1.59687
2.48526
1.36998
1.65872
2.02101
2.08152
1.66747
1.23289
1.42078
1.73168
0.925517
1.80805
1.50867
1.29366
1.45824
1.26405
2.78482
1.6734
1.70014
2.50984
2.37836
1.85089
2.09197
2.74084
1.74206
3.14953
1.79491
1.2794
1.9243
2.80395
1.64515
1.94674
4.25496
2.97197
3.8216
3.2493
4.20457
3.08913
3.97701
2.85532
0.445763
0.549387
0.896386
0.517469
0.692589
1.05232
0.510214
0.497346
6.0053
3.06838
9.62869
5.06577
5.91769
3.76898
4.6375
5.80179
1.57691
0.934727
2.13117
1.68116
1.04416
1.27617
0.4125
1.25426
2.4342
5.77976
1.54018
0.678611
1.78763
2.16374
-0.0128651
0.763277
1.64517
0.659381
2.40895
3.27366
1.3027
0.459332
2.13319
2.31786
3.87572
1.10776
0.59666
-0.473521
2.01396
1.22494
0.107808
1.80667
3.56457
0.17692
0.478327
1.33115
3.35377
0.0483883
0.403447
1.17601
-0.0982843
0.0278696
-0.0628768
-0.199497
-0.0381848
0.0413394
-0.0937244
-0.026694
0.00344624
0.0487811
-0.0245449
0.110807
0.00937711
-0.0173171
0.0493432
0.194362
-0.361366
0.0166719
0.10443
0.326491
-0.303258
-0.152953
-0.137722
-0.139013
0.383502
0.429902
0.588902
0.843012
0.622596
0.449884
0.719007
0.678324
0.0519493
-0.0797822
0.08175
0.252979
0.0169224
-0.0173205
0.166312
0.0742704
0.0310365
0.111991
0.0159693
-0.116149
-0.0122801
0.027375
-0.00770744
0.0161461
-0.128744
0.0805874
0.321362
0.307468
0.126909
0.185294
0.251615
0.255082
-0.108538
0.207547
0.209625
0.0369072
0.0261531
0.157928
0.0385395
0.177537
2.34659
2.37345
2.18794
2.27251
2.37096
2.3222
2.34707
2.29648
2.44781
2.53026
2.24953
2.47228
2.50731
2.47178
2.50585
2.44195
1.98353
1.97717
1.72623
1.90697
1.92665
1.88434
1.8576
1.82789
2.57238
2.26289
2.02704
1.15455
2.31862
2.29684
1.95162
2.37926
2.40728
2.18438
2.44496
2.49236
2.40442
2.32824
2.48342
2.36345
2.34785
2.47259
2.16039
2.13559
2.33757
2.38828
2.21946
2.2013
2.13902
2.27445
2.47398
1.81995
2.11636
2.21189
2.01607
2.32671
2.12252
1.86524
2.41888
2.09785
2.04892
1.96681
2.1284
2.11995
-0.0151025
0.708287
0.214362
0.0410739
0.521276
0.530462
0.490198
0.538115
1.24415
1.47495
1.14484
1.67026
1.35535
1.28847
1.23662
1.17901
0.245674
0.598811
0.0387969
0.190877
0.464036
0.469447
0.265521
0.390129
-0.536241
1.06275
0.206761
0.127416
0.705287
1.03974
0.314291
0.594795
1.07795
0.57144
0.840265
1.68781
0.962659
0.708992
0.912911
0.883466
1.05016
1.73
1.02461
0.505823
1.06187
1.28221
0.633238
1.02195
0.570623
0.77337
1.11357
0.131484
0.603504
0.763711
0.615103
0.646969
0.587099
0.350044
1.34969
0.908522
0.677479
0.621735
0.828763
0.786954
3.46201
2.41041
2.26796
3.4206
3.19048
3.24709
3.03194
2.73863
2.04189
1.85979
1.1085
1.10558
1.85489
1.8727
1.34291
1.34863
0.269358
0.0839022
0.220204
0.431831
0.146549
-0.71182
-0.0245191
-1.12158
1.38339
1.78562
0.751461
2.16751
1.71925
0.940079
0.957207
1.01775
2.42067
2.13087
3.2344
1.44286
2.4725
1.79899
2.06787
2.12314
2.44285
0.926378
0.763354
1.79165
2.02312
0.731519
2.08782
1.52341
1.25864
2.60468
0.831774
1.04435
1.06156
1.52834
0.942516
0.0346033
1.39441
0.92547
-0.998165
-2.02586
0.23784
0.773784
0.047435
0.495465
-0.517537
-0.0501992
-1.75141
-0.590235
-0.476386
-0.665366
-0.820483
-1.32582
-0.876767
-1.08901
-2.60559
0.336609
-0.398273
-1.52555
-0.0984012
-0.900786
0.143879
1.857
1.81031
1.30769
0.512476
0.539801
0.588077
0.654716
0.184664
0.653041
0.603981
0.66546
0.915058
1.04871
0.284522
1.35137
-0.189826
-0.216141
-0.144954
0.285647
-0.202498
-0.0649231
0.204991
0.203663
-1.04138
0.416359
-1.42824
-0.57932
-1.44085
0.232338
-1.81287
0.11829
-0.0969884
-0.575253
0.368918
0.286749
-0.691536
-0.877902
0.266144
0.608047
0.108741
0.496204
-0.161004
9.82296e-05
-0.218309
-0.230316
-0.688114
-1.0393
0.0529014
0.0301652
-0.063406
0.247754
0.177268
-0.0072751
0.16228
-0.0578934
0.0643929
0.0553581
-0.00128872
0.463625
0.171239
0.0483244
0.0892843
0.115667
-0.105395
-0.0728155
0.121538
0.00844399
-0.272091
-0.156402
-0.129178
0.190518
-0.292039
0.118802
0.18045
0.674085
0.18103
0.256805
0.552693
0.577611
0.0562355
0.0483818
0.272931
0.354841
0.207256
0.44471
0.507296
0.0690292
-0.0960132
0.220015
-0.0233041
-0.0166513
0.0777993
0.136492
0.109757
0.0554817
-0.0795828
-0.00582951
0.458104
-0.0116185
-0.334634
0.00134681
-0.129458
0.228915
-0.0698608
0.57533
0.379593
-0.0550569
-0.245834
0.0761446
-0.207538
-0.0354296
2.34612
2.57499
2.3972
2.46948
2.44295
2.50888
2.37827
2.43336
2.8195
2.83497
2.78744
2.68975
2.74035
2.75273
2.80474
2.86075
2.53204
2.68292
2.5754
2.64735
2.6086
2.64401
2.56343
2.64452
3.23933
2.47843
2.46081
0.580515
1.97159
2.03782
2.1706
2.352
2.5687
2.45792
2.43208
2.62398
2.5353
2.40292
3.16492
2.63954
2.62028
2.77448
2.67174
2.46464
2.63771
2.6263
2.56331
2.6353
2.55429
2.54916
2.65823
2.31338
2.57493
2.59414
2.67057
2.53381
2.5591
2.62682
3.02987
2.75004
2.62487
2.74586
2.67165
2.76733
9.58513
0.738939
3.19328
6.96595
7.19957
-0.347623
5.56045
0.476271
0.558104
1.26598
-0.25159
0.985178
1.24001
1.41361
0.814115
0.724726
0.442494
0.445543
-0.173397
0.135026
0.320627
0.186593
0.176243
0.132486
3.02658
0.0948481
0.149054
1.60633
-0.445591
-3.27954
-0.261433
1.29853
0.243851
1.85639
0.654826
1.1577
0.232172
0.326694
1.2532
-0.0076428
-0.189266
0.471265
0.450063
0.761909
0.658505
0.364511
-0.74957
0.761212
1.61495
2.34453
0.037308
0.921192
1.4917
0.911337
0.210216
-0.917029
0.617305
0.337392
0.279383
0.350371
0.804924
0.633266
0.259516
0.378025
0.202954
0.0515226
0.172724
0.0819319
0.0988651
0.0985839
0.0915034
0.166652
-0.0422961
-0.0799662
0.40789
0.268111
-0.0101227
0.126695
0.20466
0.272223
0.470596
0.329183
1.44989
0.824496
0.768103
0.623433
0.813649
0.818874
-0.684784
0.647171
-0.536652
1.67051
1.2618
1.10303
-0.366994
3.03763
-0.0155512
0.261643
0.0400245
0.582746
0.134299
0.29211
0.192215
0.301294
0.0714265
0.258358
0.222827
0.261051
0.20411
0.122804
0.201853
0.139219
0.288927
0.100127
0.229416
0.34732
0.256202
0.892783
-0.0144741
0.997298
0.401831
0.567016
0.243399
0.387633
0.415699
0.345167
0.305792
0.174154
4.83117
6.01465
4.49481
5.24865
4.8278
5.15201
4.23289
4.79578
9.52684
11.5302
7.67972
3.10627
7.55856
6.63106
5.99491
5.93129
3.82892
5.4688
4.21188
2.64666
4.09752
4.10109
3.63497
4.08268
1.03029
0.237141
0.0312728
-0.628065
0.626739
0.122105
1.93309
0.664268
5.66438
4.63511
4.61439
3.22487
4.67379
5.31542
4.74473
2.92171
6.16081
3.7441
5.34902
4.63418
5.46567
6.14713
5.44959
5.43433
3.87332
5.03052
3.45689
3.9479
3.58876
4.05348
3.01951
2.21507
4.20502
2.96751
2.89419
5.04391
4.61297
2.79001
5.37975
2.40643
-0.369172
-0.0386194
-0.0505054
-0.0678193
-0.102065
-0.0683217
-0.039591
-0.0338462
0.05129
0.0724004
0.0138655
-0.0743396
0.0513123
0.204875
0.00357685
0.0329923
-0.00726259
0.00888667
-0.18018
-0.23721
-0.0165457
-0.0316723
-0.208706
-0.0981876
-0.463244
-0.110406
-0.440838
-1.07607
-0.396694
-0.279851
-0.612173
-0.519981
-0.0313952
-0.0212924
-0.118304
-0.0857757
-0.0357382
-0.0198517
-0.0804886
-0.118891
-0.00876949
-0.146687
-0.0461406
-0.0454329
-0.027764
-0.00634699
-0.0169053
-0.0289056
-0.0844686
-0.228015
-0.182315
-0.423043
-0.202274
-0.172954
-0.14705
-0.0549195
-0.0295625
-0.261
-0.0339375
0.00441145
-0.027602
-0.171762
-0.0486044
-0.108972
2.24495
2.0835
2.28781
2.31505
2.20032
2.16384
2.27654
2.25063
1.92911
1.70746
1.84204
1.82057
1.87595
1.84069
1.84689
1.89424
2.15708
1.89702
2.0564
2.18183
2.0851
1.94722
1.78537
2.17107
2.34209
2.05846
2.08238
2.29283
2.19252
2.13638
2.17161
2.12799
2.04508
2.2333
2.27299
2.05973
2.11678
2.18233
2.10786
2.23318
2.0097
2.02844
1.91735
2.20458
2.05418
1.91536
2.09663
1.95403
2.19249
2.25899
2.01092
2.10174
2.27701
2.22387
2.28021
2.16189
2.06578
2.18721
1.91454
1.93736
1.99837
2.17497
1.92413
1.99642
0.0665037
0.463877
0.721873
0.714949
0.285286
0.304308
0.513832
0.598091
0.815824
0.933028
1.42224
1.76837
1.3611
1.32685
1.39243
1.4862
1.22821
1.40939
1.50982
1.67366
1.41474
1.48433
1.57619
1.5754
1.23432
1.82225
1.79173
2.02573
1.85958
1.84747
1.80705
1.88854
0.799609
0.95415
1.02383
1.80029
0.9256
0.959843
1.22118
1.03079
0.931845
1.62791
1.39671
0.982752
1.04004
1.5366
1.06454
1.54972
1.08154
1.17871
1.9169
1.76742
1.16336
1.18699
1.60303
1.93433
1.1163
1.78279
1.87098
1.4685
1.5116
1.6455
1.64546
1.85118
0.131902
0.125792
0.655426
0.61478
0.155056
0.196128
0.271951
0.397428
0.254187
0.137738
0.3889
0.481454
0.29485
0.224778
0.112101
0.174093
0.790168
0.56342
0.868892
0.767718
0.809609
0.746184
0.925813
0.921803
0.454209
1.5866
0.0622993
0.55494
1.23954
1.68843
-0.0716366
0.844314
0.21152
0.678582
0.100035
0.111681
0.232359
0.355229
0.490708
0.267103
0.244087
0.519445
0.474477
0.640407
0.232788
0.377218
0.489416
0.425853
0.776784
-0.0149634
0.279911
0.609379
0.763907
0.32046
0.558699
0.674296
0.722521
0.880315
0.684633
0.622338
0.767195
0.656393
0.564323
0.475143
6.76441
2.37443
8.81445
6.69978
5.7881
5.02448
6.73143
3.8752
2.05963
1.56664
2.01598
1.15801
1.08917
1.32488
1.33526
1.30493
10.5879
2.84491
11.3067
5.12044
3.18034
5.26664
6.54784
7.22415
4.3327
1.09496
3.53933
0.973905
3.37919
2.51746
0.819964
2.26865
1.47817
7.13767
4.10732
1.40186
1.93195
5.51908
1.54803
2.96532
1.79085
1.48342
2.46258
6.66952
1.94627
2.02136
3.11157
1.46835
9.25827
5.76273
0.785831
4.18952
5.10035
3.31037
3.03106
2.13488
6.25627
3.08029
1.09109
1.86234
2.53713
2.55134
1.14531
0.760078
2.33838
2.15461
2.3586
2.16711
2.27715
2.2713
2.25109
2.24188
1.91
1.52894
1.72361
1.57745
1.79105
1.77391
1.75425
1.68486
2.3438
1.88603
2.18495
2.00292
2.13592
2.08153
2.07047
1.98642
1.96521
1.57697
1.80192
1.66152
1.82031
1.75217
1.77116
1.68899
2.0548
2.23379
2.04807
1.76893
2.02542
2.10083
1.89017
2.00152
2.04496
1.73531
1.91985
2.21604
1.98595
1.83418
2.13794
1.94685
2.20505
2.02886
1.70846
1.91188
2.14707
1.97757
1.94984
1.82312
2.18322
1.84541
1.67427
1.81723
1.98977
1.89961
1.88114
1.7466
0.518752
1.0196
1.00316
0.933429
0.743893
0.787554
0.974157
1.0154
1.54647
1.99725
1.81473
1.8311
1.76345
1.82107
1.82282
1.8931
1.28193
1.66062
1.4771
1.45371
1.44235
1.46037
1.50495
1.56444
1.21627
1.64636
1.48549
1.51396
1.3901
1.4804
1.47668
1.50956
1.36285
1.21056
1.08163
1.56949
1.40292
1.19176
1.46242
1.23831
1.38702
1.67299
1.66708
1.22055
1.47231
1.62857
1.36996
1.64408
1.27191
1.25503
1.61937
1.47988
1.26175
1.30162
1.4305
1.44047
1.33802
1.51132
1.64554
1.7007
1.42659
1.51922
1.62597
1.6364
3.6625
3.49363
3.48389
2.6953
3.37164
3.66033
3.27898
3.92491
3.7016
3.83805
3.94609
3.23496
3.92634
3.97151
3.49849
3.36702
0.569027
2.20553
-0.586582
-0.446941
1.36861
1.17325
0.809349
-0.516399
2.21103
2.67474
1.79212
1.81858
2.3228
2.26408
2.02603
1.76763
3.79526
2.82813
2.89148
2.05903
3.75878
3.06925
2.57556
2.23353
3.91021
2.82204
3.76107
3.38032
3.98389
3.59272
4.24006
2.74138
1.1307
2.63768
2.52674
1.31139
2.00946
2.75412
1.92137
2.37069
0.879068
0.892254
2.73025
2.4464
1.57765
1.69297
2.09187
2.66943
-0.0408324
-0.118471
-0.0986635
-0.196859
-0.0564701
-0.141891
-0.0631846
-0.14668
-0.583568
-0.723033
-0.334516
-0.25602
-0.451245
-0.543123
-0.662188
-0.571594
-0.174918
-0.262777
0.0125133
-0.0465035
-0.256034
-0.279534
-0.161235
-0.232974
-0.11482
1.55391
-0.183534
1.27721
1.13773
0.910752
1.22503
1.41153
-0.407033
-0.28997
-0.378018
-0.509944
-0.431741
-0.444915
-0.135349
-0.200064
-0.214371
-0.351342
-0.484529
-0.164604
-0.422302
-1.19973
-0.309735
-0.559162
-0.178693
-0.41037
-0.451323
-0.622282
-0.399406
0.0636917
-0.358728
-1.18219
-0.200422
-0.113219
0.152303
-0.414425
-0.66776
-0.48568
-0.404776
-0.0491381
2.21974
2.24659
2.12608
2.3313
2.24045
2.20302
2.22275
2.16363
2.29364
2.34162
2.22543
2.39179
2.34241
2.30949
2.35563
2.30568
1.97456
2.02262
1.76333
1.85
1.96726
1.93684
1.878
1.82544
2.4052
2.35879
2.10401
2.31302
2.31858
2.29836
2.19266
2.14238
2.29676
2.12148
2.33824
2.37619
2.29762
2.22284
2.35063
2.30218
2.25916
2.34602
2.15221
2.07974
2.23837
2.29053
2.15315
2.18442
2.05809
2.27289
2.31999
2.05087
2.15545
2.20997
2.14557
2.23759
2.00069
1.98567
2.27482
2.08292
2.05259
2.11243
2.12979
2.1819
0.0458918
0.441813
0.195516
0.503585
0.292164
0.22554
0.395099
0.350864
1.03178
1.39005
1.22824
1.55258
1.31856
1.29467
1.36864
1.36742
0.333404
0.943376
0.484945
1.00735
0.62476
0.603671
0.649537
0.636916
0.980765
1.70581
1.51401
1.95921
1.69963
1.66628
1.71646
1.70244
0.892826
0.48901
0.972866
1.41242
0.886782
0.696655
1.03834
0.975258
0.868005
1.39826
1.02481
0.477283
0.923125
1.14514
0.704978
0.975587
0.575706
0.936893
1.49233
1.22478
0.945758
0.973161
1.13495
1.17509
0.518811
1.21412
1.48523
1.1095
0.848607
1.16338
1.09557
1.31211
2.17123
2.07436
2.20362
1.97093
2.08925
2.1133
2.09734
2.117
1.8869
1.62954
1.94949
1.59694
1.72649
1.7752
1.79857
1.80424
2.25523
2.1743
2.30918
2.14037
2.21488
2.22683
2.24005
2.25342
1.84819
1.62428
1.97089
1.71436
1.79668
1.80558
1.85088
1.86239
1.96013
2.14603
1.92663
1.75351
1.96442
2.06361
1.79216
1.94387
2.0182
1.77105
2.03782
2.16974
1.98489
1.89756
2.1046
2.01802
2.144
1.96155
1.78557
2.05569
2.06448
1.97002
2.01293
1.89835
2.16228
2.06371
1.8013
2.04409
2.11289
2.02097
2.04519
1.90634
0.175044
0.157122
0.711115
0.585885
0.278114
0.378316
0.619668
0.651478
0.240468
0.326066
0.933133
0.776654
0.41746
0.512598
0.769549
0.789691
1.11306
1.21339
1.45726
1.47073
1.11176
1.24812
1.26807
1.3225
1.03075
1.13119
1.42126
1.41848
1.15459
1.19523
1.26208
1.29644
0.281895
0.790101
0.721759
0.793354
0.652976
0.837869
0.68288
0.772324
0.436126
0.84943
0.92278
0.898501
0.661832
0.866096
0.849212
0.824789
0.981725
0.922009
1.0302
1.24123
0.952015
0.958426
1.13266
1.16232
1.02823
1.28109
1.05081
1.12412
1.13257
1.17196
1.11187
1.16079
3.44272
3.15551
4.07439
2.95238
3.1882
3.35701
3.2718
3.43017
2.69762
1.58202
2.40944
2.27751
2.6422
2.39563
2.80375
2.76669
4.90683
4.14773
5.99002
3.93492
4.35279
4.31746
4.31762
4.48942
2.69038
1.91331
2.90811
2.49919
2.594
2.55342
2.58264
2.51275
2.87844
3.73545
2.81494
2.64192
2.85626
3.22837
2.71851
2.90192
2.96309
2.60413
3.54048
3.98231
2.9641
2.73912
3.38146
3.37376
3.77288
2.80932
2.65574
3.2355
3.26118
2.90968
3.08172
2.62567
3.96006
3.17694
2.66128
3.4631
3.26369
3.11013
3.03924
3.0958
0.162639
0.35797
0.384911
-0.483907
0.415803
0.453644
0.437314
0.554801
0.700755
0.808921
1.25623
1.86955
0.670618
0.969272
1.01444
0.844351
-0.0164322
0.621705
-0.0277196
0.423006
-0.0497481
0.129834
-0.055771
0.0388751
-1.41055
1.72944
0.205532
1.67166
0.688767
0.998307
1.51712
1.05062
0.565134
0.597675
0.416736
0.442025
0.605522
0.33193
0.14449
0.270595
0.488311
1.01006
0.322449
0.450129
0.322696
0.702303
0.198945
0.0473064
0.56846
0.50965
0.891156
0.45861
-0.737542
0.0105523
0.221997
1.25859
0.443045
0.184424
0.96743
0.326808
0.232451
0.287243
0.194419
0.710176
1.00364
0.117045
-0.0877031
-2.9571
-1.23054
-1.27453
-1.55066
-0.906006
0.150343
0.443497
0.800162
0.670117
0.233829
0.430153
0.487025
0.472624
-0.249576
2.89813
19.2916
10.6183
2.78162
3.51739
9.35648
14.5513
-4.60434
0.770265
2.86202
4.08743
-3.43893
1.54098
-1.96591
-0.56509
-0.0324924
-0.69019
-2.15846
0.534856
-0.398369
-1.20817
-0.544857
-1.26409
0.0699119
0.822783
0.83244
-0.694158
0.0678866
0.578651
0.380741
0.328842
-1.39155
-5.37089
0.0853165
1.79065
-4.38323
-3.94834
-1.41857
-0.606297
-0.773948
5.86857
0.896633
2.94703
0.122814
0.998988
1.05537
1.39087
-1.41973
0.51705
-0.287673
0.207874
4.4328
5.11161
3.31235
6.22841
-0.95459
0.10903
-0.0554551
0.442514
-0.206235
0.0840397
-0.346457
0.170449
-1.90654
-0.517834
1.01309
-3.69328
-1.07919
-0.925207
-1.31286
-0.970891
0.656997
-0.696338
-4.40539
1.52907
0.948142
-5.76695
3.16337
-2.42876
-0.456912
-1.66185
9.3196
1.38658
-3.08511
-3.33518
-1.23128
3.62049
-1.03486
-0.0643713
-0.298262
-3.3627
-1.90109
-1.43573
-4.05124
-3.6507
-0.772613
10.8811
0.321623
-5.33575
-4.00772
7.70494
-4.58833
-2.3006
-4.01539
-3.35704
0.269689
-0.0539599
-5.55328
-2.9819
-3.93016
-1.17966
-0.020022
-0.0844264
0.0984605
0.313842
0.291478
0.160388
0.556319
0.278347
0.14569
0.0202755
-0.301804
0.415761
0.185559
0.109358
0.238554
0.0898601
0.0376388
-0.048083
-0.180474
0.272995
0.1204
0.0531542
0.28441
0.0936288
0.66822
0.649738
0.547499
0.878354
0.822667
0.617979
1.01854
0.707712
0.214493
0.201568
0.55324
0.477063
0.301493
0.328462
0.353036
0.351615
0.112427
0.450788
0.0830503
0.0640458
0.212536
0.279575
0.0788967
0.190864
0.281185
0.607515
0.623554
0.582382
0.374673
0.495871
0.470911
0.593796
0.18629
0.413074
0.531874
0.181878
0.290717
0.377686
0.277638
0.370936
7.41019
5.8731
9.53148
3.61279
6.39077
7.49801
6.25887
7.23485
4.53207
3.77582
5.0405
3.27826
4.06959
4.26608
3.97012
4.17106
10.4513
7.96038
14.0234
4.94173
8.56615
10.0131
8.26834
8.76428
2.68099
2.81764
2.24468
1.96528
2.32973
2.1574
1.58421
1.49506
5.06252
7.45863
2.60646
3.39653
5.09643
5.00128
4.54054
3.81873
5.39955
3.62385
6.05663
8.1864
5.39678
4.46799
6.30302
5.58896
7.86035
2.52449
3.24502
2.28681
4.80495
3.27709
3.65994
3.67722
8.24746
2.40438
3.64426
5.63186
5.84946
4.36797
5.11952
4.03378
3.43794
2.88262
2.59598
2.57354
3.37609
3.10456
2.61107
2.58159
1.6436
-1.03832
-0.863058
-1.63695
0.659339
-0.884444
-1.16422
-1.92482
2.1477
1.13329
1.6923
1.82153
1.63007
1.24717
1.78704
1.60984
1.84771
1.42608
1.70303
1.71989
1.88213
1.71329
1.89836
1.68818
2.07018
2.7875
2.72482
0.334388
2.18886
2.62712
0.529372
2.51589
1.261
0.203027
0.286999
2.37975
0.944165
-0.540436
1.87363
0.749335
2.29912
2.25304
1.93397
1.87391
2.17583
2.07157
1.5812
1.67722
2.08611
1.62261
1.44541
1.09555
1.35578
1.32632
1.29596
1.70103
1.49625
1.25058
0.464606
1.28524
1.32238
1.16702
1.21979
0.839404
-2.31401
-0.867645
-0.827335
0.294731
0.214683
-0.729822
-2.03319
-0.601091
-1.76409
-0.194099
0.0853497
-0.394014
-0.773396
-0.385651
-0.331703
-0.0554563
1.20551
-0.0235009
0.263055
1.37313
1.20422
1.42873
1.37782
1.46315
0.778078
0.402827
1.23796
0.522022
0.741663
0.912195
1.48425
1.22103
-0.40866
-0.563914
-0.979966
-1.05719
0.684992
-1.41499
-1.97802
-0.620978
0.111709
1.07528
0.583063
-0.0186667
0.287651
0.988598
-0.0757446
0.793872
-0.361167
-0.425147
-0.183412
-0.798558
-1.67778
-0.895625
-0.982474
-0.217744
1.85491
-3.54534
-0.773683
-0.201736
-1.43735
-1.90637
0.245469
-1.02468
-5.11499
1.10144
1.27451
-4.88689
-4.08649
-4.65916
-6.30221
-8.93105
-0.89353
6.9582
17.5104
-1.00103
-1.15728
8.00755
0.123177
11.8931
1.52657
-1.67156
0.0330054
0.993265
-0.365613
1.13459
0.336937
1.67582
-4.09978
-3.58994
-0.876705
-5.57293
-5.29319
-3.26982
-3.46247
-1.01416
-6.88804
-7.01885
-1.87008
-3.10549
-7.29203
-6.81204
-6.70975
-6.41127
-1.80067
-0.0181661
-4.79419
-2.73988
-2.92602
-0.836257
-6.28983
0.568359
-1.32185
-2.64505
-6.55902
-0.0533413
-2.70758
-3.99641
-4.93111
-5.76168
-0.0604423
2.90484
0.785183
3.6248
2.76574
2.97983
2.27892
2.95346
-0.109999
-5.12496
-4.9232
-5.77993
3.74076
-1.58323
-7.09906
-6.53158
-1.3343
-4.04874
1.91074
0.935608
0.61994
-0.871493
1.95868
1.56949
2.96886
-1.82133
1.03452
0.585072
3.13998
1.29231
0.746108
0.330497
7.66347
1.62487
5.13389
-2.34694
1.41834
1.67248
-0.22268
2.14896
5.78912
-5.68986
-5.53174
-1.37379
-0.871926
-2.59585
-3.57156
-1.94171
0.632478
3.69149
-2.91309
2.31112
1.20612
3.37228
2.69187
0.59125
0.416396
1.9524
-3.79866
-2.93779
-0.728872
1.33235
-2.23651
-2.4031
2.0852
2.21298
1.97123
2.36117
2.14442
2.25463
2.29979
2.19426
2.24385
2.34104
2.2046
2.39599
2.33781
2.31739
2.324
2.30258
1.80134
2.00807
1.77501
1.94444
1.88259
1.89768
1.82466
1.85932
2.27328
2.46376
2.19906
2.41866
2.39321
2.32631
2.31321
2.28585
2.27787
1.97071
2.28469
2.37276
2.27155
2.14197
2.35451
2.25267
2.26129
2.34785
2.16743
2.05323
2.25933
2.24456
2.07746
2.18432
1.90467
2.23349
2.33335
2.0424
2.0676
2.20229
2.13491
2.21597
1.93609
2.06206
2.31219
2.13519
2.02651
2.1039
2.12524
2.2249
0.536689
1.04592
1.02806
1.11384
0.7076
0.916571
0.922935
1.05578
1.46585
2.13967
1.61168
2.10266
1.56521
1.59459
1.62192
1.63884
1.34878
1.63826
1.65959
1.83921
1.4448
1.45944
1.55726
1.58224
1.71868
2.16073
2.10001
2.31442
1.93649
2.02459
2.11481
2.12863
1.14284
1.16773
1.40815
1.83927
1.29722
1.35957
1.5895
1.49664
1.35302
1.75653
1.42723
1.17801
1.48932
1.62808
1.48003
1.56349
1.37387
1.5394
1.94589
1.85564
1.53533
1.58697
1.73663
1.90064
1.31466
1.82516
1.89497
1.52635
1.54991
1.7306
1.65793
1.8792
1.97388
1.90638
1.89388
1.93836
1.95911
1.93181
1.94771
1.91186
1.89277
1.01374
1.30735
1.57714
1.4874
1.08819
1.53593
1.10912
1.72802
1.3715
1.53241
1.5577
1.59088
1.48698
1.54748
1.48381
1.83186
1.57853
1.57385
1.65511
1.73861
1.71131
1.67787
1.56683
1.86544
1.80966
1.87631
1.71976
1.80522
1.87624
1.71847
1.83903
1.79115
1.54635
1.35544
1.73018
1.68578
1.49834
1.69182
1.5481
1.77655
1.8471
1.62999
1.60394
1.76195
1.79618
1.65248
1.73926
1.69999
1.49355
1.45827
1.32451
1.60742
1.5952
1.49632
1.49442
0.26475
0.649427
1.01851
0.713834
0.548338
0.750979
0.73487
0.790568
1.10236
1.43894
1.23042
1.45438
1.23087
1.31259
1.29036
1.29221
1.21454
1.10954
1.36572
1.10321
0.950467
0.67756
1.0204
0.900345
1.14401
1.4564
1.40541
1.50238
1.35796
1.4136
1.41734
1.52083
0.908497
0.821801
0.970834
1.26743
0.956222
0.94507
1.10492
1.05774
1.02821
1.33005
1.13791
0.81046
1.11301
1.22119
1.1564
1.1592
0.878954
0.964218
1.32472
1.25514
1.07394
1.15669
1.26378
1.2922
1.12483
1.24419
1.40743
1.13512
1.15653
1.20811
1.12754
1.28241
2.58966
2.79824
2.39519
2.41465
2.55462
2.69158
2.48488
2.47482
2.53884
2.15546
2.68514
2.21323
1.80526
2.65853
2.57005
2.24403
2.41759
2.57143
2.82514
2.52304
2.4297
2.70374
2.66631
2.38777
2.24759
2.13703
2.17803
1.91689
2.14409
2.10897
1.95633
1.87357
2.55197
2.36579
2.2947
2.31449
2.55613
2.48735
2.46921
2.40303
2.67757
2.40964
2.9106
2.74254
2.48854
2.36023
2.69239
2.33025
2.35004
2.26827
2.32141
2.36648
2.40883
2.37512
2.3562
2.2126
2.37803
2.2562
2.1705
2.27787
2.60843
2.41441
2.51655
2.33819
0.498823
0.752639
0.795935
0.936543
0.840926
0.559143
0.835055
0.806232
1.34085
2.45041
2.16861
1.9575
2.09927
1.90714
1.86903
2.15788
0.584129
2.32676
2.06094
2.09078
1.45605
1.61289
1.099
1.46907
1.26602
1.81922
2.06765
1.70536
1.64799
1.5785
1.72817
1.69643
1.53856
1.2782
1.14999
1.73811
1.42435
1.14886
1.43225
1.25291
1.42807
1.82443
1.80337
1.32804
1.62694
1.90891
1.55192
1.7268
1.18829
1.28713
1.70901
1.77751
1.30385
1.31216
1.65516
1.58645
1.27859
1.84249
1.89423
2.08256
1.599
1.71923
1.77834
1.89974
3.13503
5.26157
1.16664
2.61542
3.19852
3.48072
2.69921
3.11088
4.36019
8.95554
1.99039
4.51099
3.92661
4.2782
1.74047
3.16464
-0.970506
0.113574
-0.968249
-1.65534
-0.55662
-0.258831
-0.875263
-0.635336
1.76256
0.528213
-0.716347
1.47046
1.42513
0.0119933
0.939455
-0.525793
4.88937
1.4329
2.35304
0.63189
2.36053
2.58312
3.12119
1.61787
2.928
0.269095
0.597999
0.878357
1.57065
1.52468
-0.223155
0.510588
-0.224588
1.22634
-0.310384
-0.781202
-0.652044
0.00233442
-0.287146
-0.203119
-0.481672
-0.827496
-0.61577
0.46212
-0.478851
-0.40701
-0.0309695
-0.0580065
1.37621
1.19361
-0.808587
1.70393
0.977073
0.918199
0.491507
0.105374
-2.5607
-3.06832
-2.66991
-2.53956
-2.62189
-3.34651
-2.50412
-2.80865
-0.315639
0.109021
0.536027
-1.75684
-0.525601
0.0567632
-0.527934
-0.516859
0.860729
-1.56221
-1.53634
0.884333
-0.649085
-0.571242
0.71501
-0.623158
0.902597
0.288453
1.63277
-2.34239
-0.973756
0.210886
-1.74381
0.0637513
-0.245956
-2.1271
-2.66115
0.35663
-2.17861
-2.41562
-2.42193
-2.14229
-0.0858943
0.744848
-1.9387
-0.890454
-1.87352
-1.26871
-2.32534