/*--------------------------------*- C++ -*----------------------------------*\
| =========                 |                                                 |
| \\      /  F ield         | OpenFOAM: The Open Source CFD Toolbox           |
|  \\    /   O peration     | Version:  2506                                  |
|   \\  /    A nd           | Website:  www.openfoam.com                      |
|    \\/     M anipulation  |                                                 |
\*---------------------------------------------------------------------------*/
FoamFile
{
    version     2.0;
    format      ascii;
    arch        "LSB;label=32;scalar=64";
    class       volVectorField;
    location    "1400";
    object      U;
}
// * * * * * * * * * * * * * * * * * * * * * * * * * * * * * * * * * * * * * //

dimensions      [0 1 -1 0 0 0 0];

internalField   nonuniform List<vector> 
54912
(
(-232.447 490.02 34.7315)
(-253.989 321.384 40.2761)
(-223.692 529.53 27.6409)
(-203.76 372.235 44.2767)
(-221.5 433.945 50.9741)
(-207.75 341.145 46.4241)
(-195.8 391.499 41.7785)
(-197.369 381.826 39.2216)
(-260.928 358.09 94.099)
(-224.271 314.257 270.742)
(-291.801 424.832 181.017)
(-247.418 310.889 179.933)
(-216.65 282.397 152.262)
(-234.481 339.766 199.997)
(-260.391 329.193 179.022)
(-274.99 368.322 189.909)
(-169.978 563 36.2428)
(-302.497 521.515 72.4221)
(-204.606 652.419 0.985845)
(-247.914 433.111 72.51)
(-210.82 517.411 62.3293)
(-205.994 509.208 76.1604)
(-192.183 447.503 57.8186)
(-212.024 481.233 32.0118)
(-214.311 311.225 44.7439)
(-246.197 276.125 95.6961)
(-219.665 326.766 69.4002)
(-213.172 284.031 80.4771)
(-207.433 272.586 72.9307)
(-247.168 278.038 101.924)
(-207.356 293.334 77.1853)
(-238.348 308.196 80.2977)
(-233.308 282.817 54.8384)
(-228.97 476.822 43.2755)
(-207.159 320.863 48.6935)
(-218.606 255.251 121.317)
(-235.729 305.463 53.4903)
(-250.249 376.043 53.4903)
(-214.928 259.79 73.7695)
(-223.294 300.429 55.5215)
(-241.433 320.785 74.1967)
(-237.911 269.626 110.012)
(-247.08 388.336 107.79)
(-207.549 386.837 63.4477)
(-253.868 351.833 75.4541)
(-256.731 291.334 112.632)
(-253.171 412.731 35.985)
(-224.084 312.864 72.7844)
(-192.813 411.34 40.7639)
(-196.773 316.887 46.5325)
(-251.288 285.568 93.2883)
(-208.278 342.242 74.3805)
(-197.155 410.788 31.0046)
(-223.24 345.602 56.6647)
(-204.097 342.207 74.0024)
(-268.73 302.368 97.2545)
(-173.937 401.838 56.416)
(-244.385 367.954 64.2828)
(-276.121 306.273 98.0224)
(-276.679 419.693 94.4754)
(-274.252 374.799 93.0466)
(-239.543 336.131 86.6367)
(-255.073 354.23 100.35)
(-271.435 325.848 87.6336)
(-215.75 475.114 26.0033)
(-216.991 511.809 23.9035)
(-198.697 453.772 17.2087)
(-209.71 393.509 32.0106)
(-178.191 417.98 21.4047)
(-208.45 478.024 21.2465)
(-191.057 388.947 34.224)
(-202.98 461.405 18.0848)
(-184.009 545.27 32.7576)
(-198.274 637.961 7.02269)
(-205.541 536.152 18.9041)
(-243.77 391.476 68.6418)
(-186.562 461.983 19.291)
(-197.494 601.779 3.59726)
(-180.465 405.156 39.4416)
(-198.362 564.719 14.6836)
(-166.368 402.87 8.70981)
(-188.131 466.312 14.8363)
(-163.562 404.905 14.5624)
(-184.703 313.823 22.1938)
(-133.342 346.719 28.8431)
(-178.414 441.371 14.9448)
(-136.15 317.154 17.0142)
(-169.635 419.999 15.4803)
(-210.754 301.731 38.8434)
(-218.303 313.091 80.9127)
(-195.303 268.223 45.5902)
(-207.197 271.672 74.3786)
(-199.837 276.71 60.3192)
(-203.732 294.551 65.4382)
(-192.787 266.732 65.8495)
(-198.896 289.931 71.6881)
(-176.154 419.682 24.2984)
(-166.344 380.659 3.36274)
(-185.649 334.874 27.5096)
(-208.02 344.734 54.6349)
(-173.341 371.973 14.3657)
(-176.3 359.617 16.4959)
(-188.941 385.501 25.539)
(-205.345 384.677 8.5692)
(-187.573 499.261 21.8691)
(-218.918 381.986 61.156)
(-200.162 508.604 15.5186)
(-178.55 428.146 14.0198)
(-178.836 467.561 18.2404)
(-155.101 389.384 34.109)
(-179.836 453.296 18.5319)
(-153.931 387.316 22.9948)
(-164.696 350.378 2.47154)
(-185.139 303.308 29.7893)
(-196.215 342.69 54.3654)
(-184.652 295.161 46.8207)
(-202.47 358.615 13.0347)
(-201.462 369.971 11.165)
(-180.365 310.284 42.6913)
(-201.45 325.273 49.9771)
(-171.397 413.813 10.8879)
(-187.647 328.438 27.7715)
(-220.782 368.849 59.6814)
(-191.778 482.418 15.5114)
(-142.419 341.12 21.3461)
(-193.71 345.054 28.0262)
(-132.98 350.448 31.0353)
(-195.788 356.625 36.1449)
(-271.664 574.591 9.03105)
(-250.943 595.16 0.0799105)
(-246.245 617.435 8.53919)
(-396.299 393.235 37.0784)
(-255.6 579.782 1.01403)
(-259.746 604.698 -1.26279)
(-255.958 579.807 4.30615)
(-246.647 597.617 4.27744)
(-269.887 651.664 11.0721)
(-348.281 744.33 12.7514)
(-342.922 702.619 7.25122)
(-469.104 534.73 57.3413)
(-300.157 705.962 18.8336)
(-330.203 738.859 6.24255)
(-285.35 708.092 34.886)
(-288.371 725.119 6.09433)
(-201.87 632.007 12.2267)
(-275.787 727.701 1.67309)
(-162.158 742.061 -6.21362)
(-308.575 483.709 2.59263)
(-206.614 668.846 5.8715)
(-235.741 706.342 6.27452)
(-154.975 600.676 28.0202)
(-198.332 625.516 33.0506)
(-481.395 411.134 60.2463)
(-507.708 435.665 130.355)
(-450.168 470.303 21.1698)
(-513.602 403.802 97.8623)
(-483.703 410.093 84.81)
(-499.669 437.397 95.8328)
(-465.976 420.385 91.4041)
(-460.9 449.419 93.3503)
(-264.082 636.667 5.16675)
(-246.42 638.153 6.60396)
(-399.28 407.413 46.2512)
(-432.182 469.777 42.4768)
(-266.832 639.226 16.3464)
(-266.057 619.488 6.14708)
(-426.827 454.039 47.2338)
(-386.526 411.156 33.9772)
(-276.129 667.385 5.15106)
(-456.07 532.174 61.048)
(-311.377 746.951 -3.93315)
(-255.449 667.088 5.95623)
(-258.359 647.044 14.1696)
(-270.557 681.489 27.5627)
(-268.594 679.637 3.65491)
(-270.619 709.234 1.06319)
(-213.937 608.498 -2.24202)
(-377.135 400.509 22.7303)
(-402.914 506.761 72.4936)
(-303.384 403.319 20.7296)
(-357.368 440.045 20.2611)
(-360.456 425.976 27.4793)
(-362.124 464.214 25.9614)
(-376.35 431.849 21.0066)
(-197.48 618.852 10.7237)
(-321.314 447.682 17.566)
(-402.646 535.878 54.8469)
(-214.856 697.668 -15.2909)
(-203.239 644.711 2.33396)
(-388.76 485.959 20.4481)
(-204.495 677.277 8.86061)
(-412.077 486.149 12.0249)
(-170.55 143.297 189.455)
(-248.459 180.762 179.06)
(-214.832 165.211 237.268)
(-249.594 206.518 183.577)
(-189.26 157.284 187.404)
(-201.752 167.46 192.912)
(-193.527 156.503 199.946)
(-200.116 166.097 210.951)
(-262.998 189.201 134.512)
(-266.006 173.207 96.2793)
(-275.71 205.1 153.871)
(-316.83 213.854 107.413)
(-257.727 191.586 116.237)
(-217.308 190.513 130.02)
(-292.843 213.226 117.605)
(-239.702 209.355 116.274)
(-220.417 184.897 256.53)
(-240.256 202.2 204.079)
(-245.901 209.656 280.481)
(-301.36 297.737 281.457)
(-238.071 216.103 257.32)
(-214.239 233.521 244.982)
(-283.12 243.419 279.404)
(-255.728 283.498 269.328)
(-342.437 263.791 165.674)
(-371.822 261.816 119.723)
(-384.359 372.424 258.899)
(-505.56 362.858 159.804)
(-372 291.668 160.033)
(-293.008 304.409 168.512)
(-426.017 295.628 178.354)
(-337.997 307.34 194.068)
(-245.108 186.703 152.26)
(-207.968 175.191 214.054)
(-268.833 231.333 181.7)
(-299.637 234.344 134.854)
(-281.448 213.252 160.722)
(-226.621 195.691 189.74)
(-306.477 235.266 142.17)
(-257.015 246.954 197.707)
(-223.815 172.631 160.846)
(-295.408 256.41 149.238)
(-214.343 199.085 180.386)
(-217.885 184.726 219.158)
(-247.701 198.646 170.064)
(-263.903 233.727 122.329)
(-281.259 199.439 220.655)
(-255.918 212.624 169.397)
(-245.666 194.302 240.301)
(-286.317 221.55 190.741)
(-333.261 254.363 143.12)
(-353.546 327.128 270.771)
(-304.307 250.427 253.991)
(-276.383 238.768 209.815)
(-297.551 281.471 226.49)
(-272.606 278.165 183.489)
(-209.963 193.212 235.009)
(-309.704 317.722 240.78)
(-302.34 253.899 146.985)
(-240.246 228.147 168.801)
(-273.373 248.701 222.12)
(-282.131 293.435 216.988)
(-321.632 257.111 188.919)
(-346.264 282.743 181.55)
(-292.027 331.761 488.975)
(-343.125 439.591 581.561)
(-322.129 381.552 604.122)
(-394.225 400.829 491.728)
(-301.891 358.989 537.169)
(-270.364 398.66 579.011)
(-399.478 343.509 459.544)
(-351.739 409.261 586.187)
(-370.092 564.005 571.947)
(-434.649 738.446 491.543)
(-516.643 748.865 629.426)
(-442.286 676.534 462.793)
(-411.8 594.936 465.513)
(-404.074 666.129 534.16)
(-451.498 676.277 529.491)
(-470.753 695.542 504.032)
(-482.223 493.671 775.978)
(-701.823 780.187 793.208)
(-1171.51 757.467 1007.09)
(-738.226 739.876 711.029)
(-661.271 678.013 750.015)
(-645.459 699.12 893.376)
(-864.006 640.55 760.81)
(-917.47 761.911 826.784)
(-503.106 488.882 431.024)
(-495.385 641.491 417.029)
(-535.98 678.53 526.235)
(-574.212 426.602 309.194)
(-552.2 511.308 349.76)
(-498.58 630.292 406.192)
(-547.702 544.155 381.663)
(-527.843 597.212 401.354)
(-365.387 466.274 524.03)
(-417.53 491.379 613.267)
(-451.213 457.419 429.454)
(-500.909 623.607 442.352)
(-449.087 503.594 578.292)
(-464.93 496.046 564.636)
(-445.511 593.737 527.36)
(-420.283 517.844 520.928)
(-345.297 522.136 579.464)
(-433.976 690.389 484.467)
(-497.034 692.153 685.355)
(-374.079 512.628 716.114)
(-427.118 541.903 553.042)
(-519.717 635.474 563.038)
(-432.493 583.522 680.814)
(-496.126 641.095 591.868)
(-555.288 476.667 588.3)
(-523.671 474.986 487.341)
(-524.362 682.016 479.469)
(-648.285 682.386 579.176)
(-502.116 544.551 639.972)
(-511.801 537.897 487.671)
(-597.74 645.313 530.426)
(-594.926 638.295 480.66)
(-515.219 553.668 697.513)
(-624.273 748.412 588.391)
(-485.554 700.583 469.255)
(-595.635 724.546 611.054)
(-674.989 675.951 699.956)
(-585.3 749.349 612.55)
(-605.815 691.641 632.657)
(-502.637 764.587 589.896)
(-207.594 220.737 302.926)
(-186.56 153.16 263.06)
(-150.166 189.588 248.057)
(-192.725 224.814 201.654)
(-193.016 188.456 229.16)
(-172.221 155.546 249.525)
(-191.297 231.796 219.767)
(-174.512 175.93 219.617)
(-152.368 116.917 219.76)
(-135.182 102.205 161.948)
(-113.682 94.9412 169.374)
(-135.969 114.222 123.754)
(-135.49 111.15 171.52)
(-134.205 103.746 198.981)
(-135.162 112.859 135.307)
(-132.079 101.017 152.125)
(-120.203 159.939 215.914)
(-110.566 102.915 167.872)
(-107.265 132.251 174.4)
(-146.017 170.472 154.855)
(-125.968 135.798 173.591)
(-115.651 118.874 193.755)
(-134.427 160.884 154.7)
(-124.136 125.101 158.364)
(-212.757 222.769 133.459)
(-168.331 148.034 97.0236)
(-185.5 194.83 132.706)
(-210.808 222.138 97.8174)
(-200.168 187.206 98.7037)
(-202.206 180.602 115.272)
(-206.686 207.804 103.882)
(-188.624 169.932 108.94)
(-162.533 138.936 195.984)
(-147.859 165.155 203.675)
(-180.622 186.47 154.812)
(-148.69 134.681 136.733)
(-168.053 157.952 174.869)
(-172.561 174.979 189.626)
(-164.008 157.37 150.682)
(-175.75 191.654 183.529)
(-149.938 124.197 228.986)
(-151.015 129.523 151.411)
(-117.991 100.992 199.018)
(-137.723 145.388 220.696)
(-146.052 129.98 176.018)
(-155.887 129.638 164.214)
(-126.782 125.188 210.675)
(-124.457 113.968 175.66)
(-162.906 194.238 185.926)
(-205.097 209.939 138.937)
(-163.903 149.479 103.217)
(-172.805 181.075 136.014)
(-172.607 205.575 180.705)
(-168.051 177.763 156.555)
(-160.321 168.162 146.779)
(-180.195 150.728 116.411)
(-144.472 153.84 191.343)
(-154.884 150.924 140.317)
(-142.844 126.377 125.016)
(-127.503 105.537 155.12)
(-158.649 149.332 164.429)
(-159.651 158.798 142.644)
(-139.101 126.632 139.057)
(-142.31 126.355 131.341)
(-152.102 280.248 101.112)
(-155.174 320.3 114.585)
(-143.29 245.349 127.123)
(-163.824 230.16 102.899)
(-153.431 290.832 98.8028)
(-150.026 305.408 103.597)
(-144.655 248.444 105.637)
(-134.21 249.567 107.206)
(-176.831 370.964 132.925)
(-183.17 443.006 150.685)
(-159.666 290.169 134.121)
(-221.806 338.632 114.258)
(-184.71 396.605 147.849)
(-182.239 421.813 150.652)
(-174.323 334.399 143.551)
(-174.587 338.201 149.88)
(-131.394 183.83 149.937)
(-150.792 214.863 157.273)
(-119.791 147.479 167.328)
(-166.44 186.415 160.552)
(-138.103 185.047 173.445)
(-139.966 195.261 151.357)
(-136.79 172.678 177.481)
(-132.53 174.89 176.048)
(-197.197 228.544 108.504)
(-214.818 257.679 106.563)
(-204.527 209.163 138.268)
(-225.297 252.814 116.365)
(-194.167 238.242 106.704)
(-210.754 249.249 119.416)
(-197.638 217.902 120.823)
(-190.974 233.961 120.708)
(-169.242 343.421 125.714)
(-152.262 244.743 132.46)
(-183.449 251.544 116.714)
(-199.259 300.561 132.267)
(-165.143 282.943 117.508)
(-155.733 266.661 121.732)
(-196.879 271.2 111.021)
(-173.477 257.252 118.427)
(-174.319 359.01 129.206)
(-219.321 318.783 135.398)
(-156.844 280.837 139.393)
(-155.448 263.23 134.802)
(-154.452 297.848 132.935)
(-171.493 296.517 143.616)
(-156.66 273.126 138.103)
(-160.644 263.3 140.404)
(-151.667 207.879 149.734)
(-169.49 222.521 115.045)
(-194.557 276.136 133.409)
(-168.082 195.869 149.958)
(-182.002 223.191 141.356)
(-173.58 235.421 119.129)
(-184.735 228.874 149.494)
(-199.482 254.844 132.844)
(-148.753 215.102 144.04)
(-163.726 211.113 151.391)
(-218.193 286.674 144.704)
(-152.161 249.755 154.504)
(-146.761 214.692 157.818)
(-181.272 245.663 162.914)
(-155.717 233.046 156.172)
(-202.274 250.855 144.079)
(-232.387 352.826 570.933)
(-355.099 494.262 698.545)
(-316.229 391.046 655.673)
(-415.747 459.901 590.282)
(-330.403 416.49 619.485)
(-302.587 472.996 719.985)
(-314.395 420.036 657.954)
(-352.988 450.714 691.577)
(-580.486 641.771 924.809)
(-885.124 704.705 981.191)
(-550.683 621.372 860.479)
(-582.527 761.808 695.902)
(-789.353 699.567 987.447)
(-795.087 710.636 1006.48)
(-668.13 694.356 917.857)
(-728.814 691.917 859.744)
(-347.185 329.15 594.363)
(-333.828 452.563 600.547)
(-281.096 309.95 524.93)
(-445.929 413.283 417.222)
(-363.863 384.175 613.238)
(-260.822 349.215 557.642)
(-349.848 346.639 556.878)
(-280.729 342.356 491.003)
(-481.785 463.999 417.503)
(-602.306 629.951 507.617)
(-490.148 435.7 345.335)
(-562.355 379.523 228.828)
(-545.512 529.391 403.015)
(-531.119 558.13 490.065)
(-570.403 439.167 358.723)
(-598.67 467.601 382.667)
(-470.076 578.119 821.1)
(-376.764 468.777 713.385)
(-441.867 478.481 549.529)
(-522.623 646.504 677.317)
(-452.515 560.441 771.222)
(-430.712 527.002 711.596)
(-499.323 563.259 621.193)
(-459.346 528.276 640.328)
(-504.537 610.784 856.875)
(-567.72 669.893 745.721)
(-485.214 541.066 774.354)
(-377.417 443.81 696.677)
(-528.077 581.184 729.504)
(-607.544 656.396 853.074)
(-461.633 482.544 703.037)
(-500.684 574.094 798.447)
(-356.988 374.722 603.391)
(-407.615 420.405 513.759)
(-535.395 606.46 550.844)
(-394.228 361.921 409.884)
(-421.185 324.081 563.526)
(-441.723 454.165 457.79)
(-345.867 383.11 455.852)
(-483.158 545.569 457.376)
(-382.944 362.158 607.458)
(-426.233 392.076 405.942)
(-585.03 621.082 581.128)
(-453.855 504.629 634.877)
(-403.555 453.883 614.002)
(-422.061 446.054 435.329)
(-451.318 543.016 681.561)
(-447.339 513.273 453.235)
(-140.619 389.323 -6.62103)
(-167.432 341.846 22.6123)
(-139.175 301.105 21.5123)
(-192.905 334.745 19.1098)
(-170.937 329.051 14.154)
(-159.647 329.63 22.3296)
(-163.33 317.769 7.20699)
(-151.007 318.416 19.028)
(-220.724 424.306 75.1924)
(-215.045 420.924 145.064)
(-172.488 356.343 118.386)
(-261.815 356.94 110.137)
(-242.57 403.249 89.8488)
(-197.255 408.606 127.971)
(-207.511 382.002 88.5709)
(-188.673 359.434 107.713)
(-161.907 313.064 56.024)
(-136.238 299.758 105.75)
(-107.774 259.027 82.3332)
(-173.334 257.027 80.5539)
(-161.447 271.844 78.8483)
(-128.927 292.602 86.9309)
(-149.319 263.801 76.1112)
(-124.189 268.505 79.5425)
(-199.698 288.681 51.7126)
(-237.265 275.791 105.761)
(-187.753 242.46 94.5053)
(-215.944 243.908 76.8362)
(-204.666 252.955 81.6115)
(-211.988 263.281 91.6883)
(-206.45 245.588 67.4516)
(-205.517 258.183 97.5057)
(-209.185 359.185 43.2693)
(-183.35 302.141 32.6087)
(-192.708 293.856 37.2496)
(-234.43 304.49 97.151)
(-197.173 328.989 38.7005)
(-200.156 325.626 37.5802)
(-199.184 325.854 66.1906)
(-191.445 303.952 53.1723)
(-204.138 394.626 54.1422)
(-224.233 327.452 98.1879)
(-162.459 344.248 111.016)
(-168.473 351.244 46.59)
(-199.344 378.526 58.1999)
(-188.027 353.248 79.5768)
(-196.348 360.302 59.0745)
(-196.088 338.861 76.284)
(-177.834 293.704 32.5427)
(-187.781 294.957 32.3506)
(-213.784 283.986 86.5418)
(-168.658 245.787 87.3552)
(-178.855 272.613 54.8226)
(-177.914 292.197 70.7186)
(-180.251 256.035 79.4497)
(-202.096 286.977 82.4347)
(-168.802 331.605 54.5608)
(-173.212 273.875 88.6403)
(-221.964 325.192 88.4581)
(-150.539 306.849 93.4252)
(-169.156 306.757 79.6423)
(-170.342 279.357 85.8014)
(-170.926 304.389 82.8725)
(-205.337 290.845 83.2795)
(-336.865 705.186 42.4547)
(-441.843 806.099 261.901)
(-351.387 636.854 158.594)
(-463.353 570.433 92.371)
(-410.31 712.747 114.157)
(-444.54 831.889 209.172)
(-398.612 687.025 122.86)
(-337.166 743.011 166.909)
(-685.643 964.521 466.821)
(-1236.69 879.454 851.598)
(-751.363 899.213 682.438)
(-664.152 830.062 617.308)
(-733.87 853.107 570.717)
(-993.196 870.516 744.465)
(-678.022 858.186 608.467)
(-792.85 813.054 698.654)
(-439.125 746.635 292.697)
(-598.671 835.741 541.113)
(-458.231 735.58 434.526)
(-529.35 711.526 455.171)
(-473.638 735.791 421.212)
(-503.652 772.355 459.883)
(-460.851 680.304 399.373)
(-479.007 768.197 448.067)
(-512.578 499.242 162.341)
(-609.871 701.157 424.602)
(-546.61 605.81 327.127)
(-576.7 441.873 239.659)
(-532.826 474.598 239.606)
(-524.15 655.162 355.67)
(-523.39 478.892 231.688)
(-566.294 660.259 375.717)
(-487.356 795.962 355.99)
(-411.181 681.081 286.83)
(-471.629 589.114 162.654)
(-619.015 746.489 389.214)
(-455.799 823.06 373.538)
(-455.584 793.899 347.422)
(-547.084 692.08 320.878)
(-469.311 708.843 315.657)
(-584.633 989.541 421.212)
(-587.669 826.719 543.319)
(-636.128 801.232 593.262)
(-494.02 879.898 338.456)
(-552.719 955.981 413.42)
(-630.491 877.878 551.696)
(-544.472 893.283 398.79)
(-595.407 829.399 504.789)
(-410.704 689.897 247.629)
(-468.583 567.447 169.203)
(-550.737 731.681 425.771)
(-478.972 610.379 325.451)
(-480.182 650.2 261.752)
(-502.922 677.789 297.86)
(-479.182 623.656 326.093)
(-533.367 693.938 366.973)
(-456.925 817.498 326.042)
(-521.312 742.663 454.959)
(-565.981 837.218 528.573)
(-582.788 834.393 583.692)
(-529.037 805.18 466.43)
(-486.347 753.259 433.563)
(-550.826 771.881 479.856)
(-578.33 760.707 484.3)
(-44.6207 37.6858 28.6241)
(59.4921 -23.5193 7.3519)
(-85.8622 73.0117 32.2655)
(-74.6494 51.2452 27.4786)
(-68.8693 35.5303 33.3132)
(-38.6623 40.1173 6.30058)
(-75.8642 48.7827 42.4802)
(-69.6725 57.5609 27.1654)
(42.6944 -16.663 21.59)
(-14.3799 -24.8641 41.9155)
(-82.2421 27.7159 16.9445)
(-48.8558 -7.57946 30.6203)
(-7.14013 22.3279 40.4672)
(-22.0026 25.6689 -1.03504)
(-22.552 11.1291 39.6103)
(-60.8607 28.4605 5.3405)
(-203.383 177.924 14.4043)
(-153.769 122.693 4.43122)
(-310.44 308.386 6.01526)
(-113.685 107.639 1.1587)
(-214.995 180.894 14.4536)
(-221.753 196.799 4.93839)
(-196.06 193.928 26.7474)
(-252.362 230.504 18.2627)
(-118.713 56.7366 49.0826)
(-124.561 65.6633 54.558)
(-133.677 78.109 41.4621)
(-186.388 62.8732 84.0563)
(-135.502 63.0792 53.4538)
(-115.545 66.1679 32.6495)
(-154.031 71.7414 67.6962)
(-126.911 82.5394 35.0419)
(26.5762 -13.1539 13.002)
(-97.723 73.8697 23.948)
(-61.6217 65.3492 30.7)
(-64.7508 50.3075 32.9178)
(33.4157 7.91961 28.1638)
(-53.205 46.0441 19.4927)
(-24.0596 42.8762 40.1824)
(-59.2943 73.2016 31.8451)
(33.3094 -14.7045 20.1983)
(-59.4173 49.4919 24.4892)
(-71.4531 56.1818 -14.7188)
(-45.4454 34.4036 15.3169)
(35.9125 -16.6651 10.7037)
(-12.5699 7.90708 -1.43489)
(-33.1012 39.0863 7.02042)
(-44.346 34.9508 14.6452)
(-124.296 88.9284 22.5888)
(-93.5538 51.21 28.1478)
(-101.873 64.7367 22.5177)
(-141.53 117.744 22.7305)
(-135.081 93.5273 5.14422)
(-87.2242 57.6062 19.5288)
(-145.354 95.7574 7.08385)
(-97.2425 66.4841 30.9059)
(-118.589 63.4177 15.7257)
(-144.347 143.529 7.38656)
(-105.83 72.79 28.9513)
(-113.591 85.9946 -0.624567)
(-108.448 65.3673 8.45594)
(-112.852 101.946 5.06821)
(-71.319 41.7769 45.6034)
(-21.8099 33.8725 10.3034)
(-72.9156 6.11661 113.781)
(-54.8198 -5.12814 82.6333)
(-68.9675 13.7972 87.9939)
(-110.653 17.0219 97.1077)
(-89.8092 11.098 109.812)
(-44.592 4.98693 103.972)
(-99.0368 17.6634 95.2007)
(-76.2895 20.8786 87.7755)
(-11.3387 -16.2011 59.6713)
(14.7198 -22.4144 70.6253)
(23.9396 -34.7092 36.4401)
(-20.4714 5.88955 39.2616)
(1.02613 -6.975 44.4007)
(15.2766 -30.6383 58.8577)
(-8.4299 -4.36392 40.6506)
(17.9835 -14.3559 45.4315)
(-59.5538 23.6084 55.058)
(29.0043 -23.1341 13.0946)
(-43.9983 28.0917 33.9136)
(-70.5045 63.0426 49.2247)
(-53.6048 45.1939 49.5367)
(-30.3046 4.91501 33.4582)
(-74.2641 59.5973 43.6734)
(-74.7474 37.2732 29.1113)
(-125.337 29.7402 89.8312)
(-101.377 48.6717 51.8967)
(-107.411 56.3794 51.366)
(-160.255 49.8978 75.5244)
(-130.107 39.0964 86.4118)
(-113.765 44.4961 61.4427)
(-156.431 47.503 82.3299)
(-128.421 53.9244 65.3475)
(-71.1996 4.21176 76.1634)
(-75.6516 17.5028 77.1705)
(-117.256 20.825 100.708)
(-82.8291 28.1493 60.8344)
(-67.4334 15.3607 67.361)
(-82.9054 23.8307 84.9999)
(-83.6694 28.3008 61.1153)
(-94.3157 30.4221 76.1529)
(-19.9849 -9.19596 76.4369)
(-54.1468 35.2287 60.0355)
(3.11966 -24.4098 28.0876)
(-27.644 15.2338 81.6478)
(-36.8594 15.2432 56.0955)
(-43.8103 33.1834 56.4845)
(-40.1747 -2.21328 68.5133)
(-56.412 15.6793 54.1287)
(-94.2596 36.0474 65.0015)
(-124.987 27.0992 89.329)
(-101.509 43.7501 47.0322)
(-103.131 43.5279 53.3262)
(-93.4672 32.5319 68.2825)
(-92.4261 35.9688 74.498)
(-102.561 37.9242 65.3326)
(-111.899 42.5572 65.105)
(-64.6043 35.9619 58.7161)
(-69.9498 74.2428 56.9544)
(-73.2101 47.3178 44.5197)
(15.2362 -21.9191 17.0771)
(-69.4374 50.5323 54.49)
(-75.0544 55.4506 53.5707)
(-38.0409 35.2309 56.0433)
(-49.9346 41.1128 48.783)
(-193.991 151.04 225.543)
(-212.846 176.712 270.078)
(-223.992 168.882 265.048)
(-268.59 207.121 228.609)
(-219.658 163.619 258.295)
(-213.621 175.422 279.682)
(-259.463 191.379 240.022)
(-237.203 195.691 260.339)
(-215.357 197.231 286.297)
(-215.484 228.175 312.596)
(-234.343 205.513 309.063)
(-308.393 332.496 320.641)
(-245.403 247.68 312.269)
(-218.864 218.165 312.256)
(-283.246 277.853 350.407)
(-269.29 247.724 311.84)
(-238.35 212.683 305.515)
(-225.897 210.205 313.249)
(-265.275 242.234 375.464)
(-361.45 314.271 338.782)
(-254.804 240.257 336.661)
(-218.419 215.338 338.122)
(-312.325 294.189 348.027)
(-259.694 298.219 355.217)
(-328.745 273.651 218.729)
(-382.922 395.485 289.495)
(-464.659 364.624 276.917)
(-589.767 353.07 217.08)
(-383.79 324.209 242.679)
(-363.031 354.588 277.873)
(-447.196 309.111 192.331)
(-425.971 365.679 254.301)
(-234.016 201.234 302.863)
(-237.624 189.552 287.876)
(-291.06 233.097 251.967)
(-292.028 298.276 307.003)
(-258.708 224.254 309.986)
(-264.491 214.141 273.089)
(-275.317 250.711 272.736)
(-274.94 253.534 260.228)
(-238.421 211.647 315.131)
(-307.226 304.023 303.439)
(-224.232 196.06 306.741)
(-223.436 186.951 302.053)
(-266.356 242.196 324.55)
(-270.826 258.041 310.897)
(-225.523 186.754 303.401)
(-236.909 210.429 297.998)
(-263.681 219.351 272.128)
(-311.467 254.364 233.736)
(-322.267 298.046 305.949)
(-368.7 313.841 282.931)
(-282.194 241.239 263.444)
(-305.957 276.268 271.683)
(-302.286 250.87 278.374)
(-322.924 292.968 261.674)
(-230.983 205.844 275.336)
(-308.449 303.722 307.597)
(-323.514 302.118 314.979)
(-250.905 220.061 292.816)
(-255.071 231.789 290.068)
(-275.405 250.314 283.91)
(-265.909 246.777 309.796)
(-298.638 280.622 286.886)
(-159.718 -7.63804 222.738)
(-137.204 -10.6686 223.928)
(-124.559 8.99344 229.45)
(-78.8361 27.5047 220.787)
(-142.738 -6.20433 214.735)
(-134.504 -6.0765 218.283)
(-149.269 12.6062 214.724)
(-130.552 6.56721 216.444)
(-133.839 -15.6136 232.866)
(-157.623 10.3389 207.192)
(-138.315 -0.457246 231.685)
(-67.2069 36.0749 221.612)
(-112.166 -8.76436 222.184)
(-138.948 1.95468 236.409)
(-88.926 -0.894243 215.107)
(-137.115 0.828299 241.034)
(-119.781 4.18223 231.83)
(-112.712 -1.23888 251.236)
(-113.31 2.44554 251.72)
(-68.6693 16.1141 231.691)
(-110.241 10.3798 227.112)
(-102.446 4.49278 240.107)
(-77.9216 32.4827 249.153)
(-115.066 17.8344 260.889)
(-82.021 53.8346 185.271)
(-71.3942 57.8369 196.052)
(-81.0056 35.8824 182.642)
(-57.9198 70.2144 95.2719)
(-94.86 79.5825 163.976)
(-63.1057 50.9824 187.317)
(-89.5621 77.326 142.464)
(-80.3832 55.73 174.027)
(-135.158 -8.66176 217.231)
(-128.687 2.48394 229.629)
(-71.7411 42.5667 214.339)
(-75.6684 38.2169 216.849)
(-133.269 7.8609 212.535)
(-137.204 0.43436 229.835)
(-71.7907 33.1711 222.844)
(-70.5218 23.2923 235.461)
(-128.186 -8.71577 232.906)
(-66.2622 33.5347 232.282)
(-121.432 -0.972213 255.664)
(-126.584 4.74729 238.168)
(-123.022 2.92932 225.973)
(-121.375 -11.9697 231.852)
(-118.755 0.444622 228.04)
(-114.508 -11.677 223.457)
(-128.637 2.67019 232.954)
(-77.9565 46.7377 216.067)
(-73.0289 44.4109 214.003)
(-67.7618 19.2505 234.924)
(-77.7803 15.1253 238.802)
(-70.7789 24.3268 227.225)
(-64.0163 22.1609 228.093)
(-69.6132 28.5037 223.731)
(-119.367 4.74343 230.729)
(-70.924 15.9343 232.596)
(-64.7809 28.8376 226.227)
(-113.677 9.2702 252.319)
(-110.027 7.4591 231.256)
(-66.5387 18.3007 223.66)
(-104.641 9.77191 219.433)
(-73.8773 28.5519 228.869)
(-284.48 288.465 10.6368)
(-179.246 120.197 26.814)
(-129.442 126.199 8.70166)
(-58.6926 82.3295 -8.01891)
(-237.13 229.593 33.0676)
(-155.447 143.639 36.38)
(-76.7371 91.7852 35.2569)
(-73.1964 82.9806 7.38701)
(-101.159 85.2017 43.1404)
(-106.058 83.0769 47.1668)
(-123.661 73.8947 42.1097)
(-149.07 70.4904 48.148)
(-103.958 85.1571 56.4173)
(-101.098 83.7067 49.8906)
(-137.21 80.5317 56.0431)
(-125.136 78.5085 50.3567)
(-67.8644 70.4579 33.0697)
(-84.7133 45.2974 27.355)
(-56.3303 34.1577 27.8773)
(-68.9654 57.4456 25.2686)
(-66.9359 61.1589 24.2835)
(-62.5053 48.101 16.8363)
(-59.7861 46.8941 35.9478)
(-65.1146 34.9934 25.2728)
(-156.397 79.9657 53.6839)
(-157.021 92.9506 52.4342)
(-126.788 69.1364 43.804)
(-190.765 79.4756 77.8338)
(-150.367 68.6055 41.9537)
(-138.312 66.5248 43.2827)
(-173.513 74.4762 71.479)
(-145.43 73.1635 61.4782)
(-140.135 109.077 33.9101)
(-146.939 106.052 10.9228)
(-179.461 136.518 33.8867)
(-138.176 76.8459 39.9123)
(-119.084 91.5137 30.3977)
(-154.446 118.772 18.5469)
(-117.231 98.0056 36.979)
(-171.313 127.285 36.7967)
(-105.477 91.8072 25.9339)
(-148.194 74.4618 29.0391)
(-150.171 81.0282 26.1967)
(-129.937 93.3165 9.39204)
(-100.948 99.7033 35.0009)
(-145.268 81.3425 27.6775)
(-105.953 94.3544 29.9583)
(-144.297 84.2707 23.2459)
(-91.2326 79.4682 20.2227)
(-132.039 96.3391 10.7435)
(-142.042 76.9675 50.131)
(-97.207 63.3022 37.1265)
(-105.244 87.5492 6.03382)
(-106.133 79.6045 17.2096)
(-89.3796 55.7814 23.3694)
(-109.39 54.8416 48.8906)
(-82.814 87.3608 24.5313)
(-73.8751 63.5831 34.321)
(-135.111 79.9739 40.84)
(-106.466 62.7539 30.9529)
(-69.3528 59.0181 23.0076)
(-79.8167 44.4128 28.1106)
(-97.5988 66.4476 38.7402)
(-103.517 63.5248 36.7315)
(-27.3422 41.5172 24.6337)
(-88.0626 55.6586 35.3286)
(-68.3313 40.9363 62.5613)
(-72.5291 40.4153 38.8233)
(-56.4095 35.5459 30.337)
(-53.7851 52.2549 25.6442)
(-64.8239 38.8441 52.356)
(-79.7923 44.4251 56.6116)
(-106.179 69.934 31.5)
(-110.739 74.4626 44.9908)
(-123.362 48.3661 64.1095)
(-147.887 68.7112 57.9059)
(-109.213 69.3921 48.5418)
(-121.642 59.0225 59.7839)
(-141.249 59.4148 58.231)
(-137.636 55.0306 72.6754)
(-82.3186 34.3055 97.0374)
(-106.932 32.7401 94.2251)
(-88.8477 19.9692 120.137)
(-124.316 27.8586 103.316)
(-99.7336 26.5053 98.43)
(-87.6113 18.6375 89.1981)
(-114.638 26.1998 114.972)
(-94.7259 23.2514 106.963)
(-125.946 54.5563 58.0829)
(-182.091 81.105 65.8336)
(-159.231 41.8688 95.2386)
(-174.562 62.1852 78.6387)
(-149.186 59.6095 76.2265)
(-137.866 52.9348 72.6116)
(-174.012 58.4601 88.6772)
(-152.523 54.6488 82.6096)
(-99.7914 65.5369 38.4805)
(-82.6955 30.3961 67.1078)
(-95.5532 52.2459 54.2801)
(-155.724 77.2551 56.3817)
(-120.687 65.6681 54.6034)
(-101.227 51.0064 51.3188)
(-134.312 69.842 53.6569)
(-102.008 50.6977 57.5318)
(-96.4184 66.08 31.2213)
(-143.814 55.8252 69.2794)
(-124.692 37.8588 81.6049)
(-96.3849 37.3936 57.6833)
(-118.22 56.0539 61.0669)
(-137.061 58.2276 63.0763)
(-102.389 45.5438 62.6564)
(-115.934 40.0768 77.8992)
(-100.86 35.9114 87.7215)
(-122.873 53.3707 61.6075)
(-171.835 78.4115 64.2344)
(-152.559 38.7143 99.6511)
(-109.886 36.9376 70.1431)
(-114.567 50.6662 63.9009)
(-135.623 37.479 82.5089)
(-132.033 53.4361 70.1306)
(-94.4108 32.4698 78.5914)
(-139.762 35.6883 99.0671)
(-154.571 57.0478 72.2388)
(-124.518 36.9256 89.9464)
(-118.09 26.9765 79.2607)
(-120.978 29.449 89.3829)
(-135.494 45.5882 87.5819)
(-149.737 50.71 85.7741)
(-363.763 1359.38 -1.27813)
(-454.864 1192.49 198.538)
(-336.376 1201.91 46.7677)
(-695.314 1238.99 210.13)
(-479.984 1304.26 113.707)
(-462.559 1177.64 139.608)
(-478.013 1214.07 108.158)
(-407.629 1180.44 150.854)
(-492.65 1057.54 318.852)
(-449.616 876.028 426.766)
(-384.063 843.723 308.707)
(-604.577 907.591 496.308)
(-501.4 985.614 387.459)
(-464.019 901.553 383.661)
(-517.409 893.564 396.405)
(-481.083 892.183 364.742)
(-325.991 1047.25 31.7337)
(-352.479 843.536 187.375)
(-362.407 868.746 49.8784)
(-522.465 1020.54 257.959)
(-334.471 992.868 152.039)
(-354.578 860.963 104.726)
(-371.698 940.064 124.277)
(-372.253 907.61 113.251)
(-908.102 1074.09 457.706)
(-789.643 941.972 688.012)
(-766.181 1032.56 464.165)
(-1324.72 1157.76 856.786)
(-858.576 1066.84 613.184)
(-809.292 1027.04 578.641)
(-985.851 965.899 685.66)
(-778.901 982.985 582.478)
(-523.816 1164.38 288.443)
(-351.079 1112.58 108.597)
(-743.131 1216.62 358.745)
(-653.663 1010.79 505.08)
(-563.013 1088.19 290.545)
(-554.808 1137.86 241.011)
(-705.306 1169.33 413.902)
(-733.688 1184.82 351.448)
(-487.228 1074.01 293.263)
(-573.384 935.821 469.61)
(-407.876 864.729 228.148)
(-393.882 1072.06 144.502)
(-502.603 1025.64 274.91)
(-545.986 994.124 396.336)
(-375.311 998.032 107.221)
(-426.868 969.691 275.388)
(-402.551 1107.9 101.052)
(-718.365 1157.4 327.122)
(-690.622 943.625 534.954)
(-598.312 1131.51 338.442)
(-556.282 1154.18 162.82)
(-648.731 1112.5 361.48)
(-558.544 1093.97 334.613)
(-706.72 1093.65 474.64)
(-393.436 1035.15 113.154)
(-553.899 1079.47 335.675)
(-622.053 913.782 490.506)
(-418.792 921.587 229.336)
(-450.299 1056.55 203.41)
(-515.882 1055.73 292.052)
(-443.285 977.426 232.683)
(-548.237 940.203 435.77)
(-106.526 222.673 69.528)
(-86.3899 158.441 89.8732)