/*--------------------------------*- C++ -*----------------------------------*\
| =========                 |                                                 |
| \\      /  F ield         | OpenFOAM: The Open Source CFD Toolbox           |
|  \\    /   O peration     | Version:  2506                                  |
|   \\  /    A nd           | Website:  www.openfoam.com                      |
|    \\/     M anipulation  |                                                 |
\*---------------------------------------------------------------------------*/
FoamFile
{
    version     2.0;
    format      ascii;
    arch        "LSB;label=32;scalar=64";
    class       surfaceScalarField;
    location    "800";
    object      phi;
}
// * * * * * * * * * * * * * * * * * * * * * * * * * * * * * * * * * * * * * //

dimensions      [0 3 -1 0 0 0 0];

oriented        oriented;

internalField   nonuniform List<scalar> 
105360
(
6.68006e-07
-4.62459e-07
-2.05494e-07
-2.65433e-07
7.55467e-07
1.96718e-08
-5.0968e-07
-1.33658e-07
4.62585e-07
-3.28849e-07
-1.12592e-07
4.20681e-07
-3.08051e-07
4.63745e-07
3.80716e-07
-1.76429e-07
6.70962e-07
-4.72636e-07
2.6813e-07
8.05448e-07
2.52226e-07
-1.88473e-07
3.83456e-07
-4.47185e-07
-7.36244e-07
1.09914e-06
-1.04563e-07
-2.58314e-07
4.8465e-07
-2.09232e-07
-3.20269e-08
-2.43351e-07
-2.9895e-07
-9.38516e-07
1.77454e-06
-5.37062e-07
-3.01744e-07
-4.36699e-07
9.90699e-07
-9.81981e-07
-5.59731e-08
-2.20527e-07
-5.15112e-07
-7.17861e-07
-3.9932e-08
1.13628e-07
-7.34195e-08
2.00617e-07
-2.75829e-07
4.25687e-07
-3.50428e-07
-3.2779e-07
6.07202e-07
-2.79373e-07
-2.39988e-07
4.14348e-07
-1.7435e-07
8.10806e-08
-2.9325e-07
1.72379e-07
3.66203e-07
-8.44556e-08
-5.3323e-07
-4.9482e-07
-2.59988e-07
-2.99419e-07
5.59481e-07
-6.86938e-07
-2.69271e-07
1.68439e-06
-7.28163e-07
9.94153e-07
-4.15588e-07
-5.78568e-07
2.74562e-08
1.43429e-06
-1.46172e-06
-5.55551e-07
-9.7939e-07
1.27499e-06
-7.93661e-07
-4.4881e-07
-9.51928e-07
-7.51437e-07
2.21392e-07
1.97293e-07
3.36781e-07
5.0245e-08
8.36439e-08
3.2883e-07
2.08331e-07
1.07137e-07
1.05232e-07
-1.62144e-07
-3.93268e-07
-8.63201e-07
1.41863e-06
-3.12819e-07
4.42785e-07
9.14343e-08
5.42874e-07
-4.627e-07
7.43339e-07
2.88513e-07
4.96396e-07
-4.87571e-07
-3.84068e-07
-9.47707e-07
-2.24914e-07
3.54334e-07
-3.38608e-07
1.6134e-07
1.42142e-07
-2.19707e-07
6.31951e-07
-4.40766e-08
-2.67212e-07
5.61152e-07
-4.4383e-07
6.90669e-08
3.70664e-07
-4.1811e-08
-1.92275e-07
-4.24138e-07
-7.0833e-07
2.04101e-07
-6.19686e-07
3.0582e-07
6.48388e-08
4.02073e-07
4.70875e-07
-2.01915e-07
2.14042e-07
2.97039e-07
-5.02372e-07
-9.44653e-07
-7.11384e-07
1.53494e-07
-7.49726e-08
3.52576e-07
3.38854e-08
4.47693e-07
2.56437e-07
-2.40533e-07
-3.21947e-07
5.03471e-07
-1.81628e-07
4.16721e-07
-1.43505e-07
-2.73235e-07
1.19145e-07
-5.24223e-07
3.83767e-07
2.13019e-08
-3.27278e-07
1.73934e-06
-1.41202e-06
-7.15865e-07
3.93944e-07
-1.19403e-07
-1.79739e-07
7.85251e-07
-7.18609e-07
7.85001e-07
4.27083e-09
2.76607e-07
-2.81047e-07
-6.48105e-07
3.9072e-07
2.57297e-07
6.04998e-08
-1.41424e-07
3.66624e-07
-2.85815e-07
2.50256e-07
-1.05169e-06
8.01402e-07
6.29473e-07
-6.25276e-07
-6.2187e-08
4.34776e-08
3.21548e-07
-6.96662e-07
3.19832e-07
1.42646e-06
-7.65901e-07
-7.9345e-07
1.32864e-07
-1.37993e-06
-3.05916e-07
1.35945e-06
3.26368e-07
-6.63995e-07
1.42816e-06
-1.33183e-06
5.67667e-07
7.08434e-07
-7.48572e-07
2.44632e-06
-2.40618e-06
1.95508e-06
7.77173e-08
-6.06347e-07
-6.88639e-08
6.43995e-07
2.96058e-06
-2.17444e-06
2.22772e-06
1.61199e-06
1.35734e-07
-1.74771e-06
-1.24602e-06
4.77873e-07
7.68147e-07
-2.36127e-07
5.89301e-07
1.85611e-06
-2.20927e-06
2.52746e-07
1.49141e-06
-1.74417e-06
1.28857e-06
3.23414e-07
-4.49775e-07
4.92323e-07
2.33207e-06
-1.75592e-06
1.64616e-06
1.48541e-07
-2.92192e-07
4.82772e-08
-9.89292e-07
4.16808e-07
6.22882e-07
1.11654e-06
-6.96873e-07
8.76655e-07
-1.79747e-07
-6.00267e-07
1.82605e-07
5.66225e-07
2.33052e-07
-5.14154e-07
3.41853e-07
2.6253e-07
-2.78176e-07
8.03923e-08
-2.55434e-07
1.10862e-07
2.21249e-07
-4.73489e-07
-9.8399e-07
4.58764e-07
-4.64064e-07
5.1574e-07
3.13003e-07
-1.00506e-07
-2.22134e-08
-6.48769e-07
-1.17886e-08
-2.66533e-07
1.58614e-06
-9.02777e-07
3.06052e-06
-1.80821e-06
-2.14617e-06
2.44431e-06
-3.4064e-07
3.14664e-06
-2.21667e-06
-9.601e-07
2.58707e-06
-1.89347e-06
2.44227e-06
-7.88427e-07
3.03487e-06
1.27902e-06
-4.26353e-08
2.44074e-06
3.48748e-07
1.84014e-06
-1.74531e-06
1.66066e-06
-3.8958e-07
1.06227e-06
2.60269e-06
-6.94816e-07
2.25663e-06
-2.24447e-07
-7.70991e-07
2.01386e-06
-1.01841e-06
1.3992e-06
-3.22503e-08
-5.32533e-07
-8.34357e-07
-5.93882e-07
2.92785e-07
4.79115e-07
-1.78013e-07
-1.77773e-07
9.91175e-07
-1.27421e-06
4.60764e-07
-9.61444e-07
1.11654e-06
-3.79517e-07
1.21988e-06
-7.82122e-07
-1.16494e-07
1.05527e-06
5.095e-07
5.9353e-07
5.60803e-08
-8.66519e-07
2.16903e-07
-2.00256e-07
-4.75987e-07
6.76151e-07
-5.81997e-07
5.54985e-08
5.26373e-07
-2.99589e-07
1.15943e-06
-8.59978e-07
4.36117e-07
1.07073e-06
-9.13333e-07
-1.34241e-07
3.70069e-07
7.16238e-07
5.48387e-08
1.20742e-07
8.62704e-08
-4.64124e-07
2.57087e-07
-1.10959e-07
-1.51181e-07
2.62222e-07
2.06968e-07
-2.89816e-07
8.29338e-08
-3.04389e-07
-6.07831e-07
9.12192e-07
3.35888e-07
7.31835e-08
-2.88281e-07
7.16606e-08
1.53293e-07
-2.78629e-07
4.74394e-08
9.01464e-07
1.87734e-07
-1.15883e-06
6.94598e-08
8.54489e-07
-4.21203e-07
-4.33359e-07
-1.08364e-06
-8.59747e-07
1.94331e-06
-5.8707e-07
-1.04996e-06
1.637e-06
2.93022e-07
1.47759e-06
-8.69217e-07
1.59704e-06
-4.49568e-07
-5.13401e-07
1.40381e-06
6.01541e-07
9.23332e-09
-6.4296e-07
-5.85255e-07
4.86215e-07
3.9179e-07
1.33194e-06
3.72077e-07
-7.12887e-07
-3.1503e-07
6.45102e-08
1.0597e-06
-8.09367e-07
-1.45205e-07
-1.03894e-07
8.50593e-07
-2.20985e-07
-5.41501e-08
-3.64883e-07
1.05678e-06
-6.59748e-07
7.25099e-07
1.57203e-07
1.06669e-06
-1.55075e-07
-9.76693e-08
3.08358e-07
6.21675e-08
3.31259e-07
9.27407e-08
1.9994e-07
-9.11207e-09
4.11988e-07
-1.59878e-07
2.12938e-07
9.71296e-08
4.25887e-07
-3.63596e-07
3.29434e-07
1.49736e-06
-9.37615e-07
9.14886e-07
-2.76421e-07
-1.87679e-06
-3.27491e-07
1.34454e-06
-1.70895e-06
1.09691e-06
1.03791e-06
8.45195e-07
-1.31051e-06
5.30651e-07
5.40002e-08
-9.3529e-07
7.90279e-07
-2.48677e-07
-1.72613e-07
-6.15244e-08
-5.77228e-07
-2.13051e-07
1.43832e-07
2.20572e-08
-5.03242e-07
3.37354e-07
2.98206e-07
2.28676e-08
-6.18728e-07
2.97661e-07
-1.13599e-07
-2.95322e-08
-1.34181e-07
2.77313e-07
-7.81616e-07
2.95351e-07
-2.23756e-07
7.10026e-07
-3.96137e-07
9.9395e-08
4.40579e-07
2.87139e-07
-3.85062e-07
-2.85219e-07
-3.96997e-07
-1.11676e-07
3.45596e-08
1.86678e-07
-4.36227e-07
2.14983e-07
1.84035e-07
-3.5324e-07
1.69208e-07
1.39595e-07
1.42968e-07
-2.82561e-07
-3.61542e-07
1.70936e-07
1.90599e-07
-3.97666e-07
2.06694e-07
2.2553e-07
1.82657e-07
-3.96285e-07
-3.22251e-07
1.67404e-07
-1.29168e-07
-2.67433e-07
-9.86639e-08
4.95265e-07
4.86695e-08
8.62583e-08
-1.34916e-07
-7.70444e-07
-3.94269e-07
1.16471e-06
6.22854e-07
-4.09162e-07
-2.13683e-07
3.75176e-07
-1.92828e-07
-3.11507e-07
-3.75628e-08
4.61412e-07
8.08007e-07
-3.77978e-07
1.13166e-07
-4.23413e-07
-1.19721e-07
4.29984e-07
1.81062e-07
-3.60787e-07
1.79742e-07
-6.25403e-08
2.43666e-07
-1.81084e-07
-2.794e-07
-2.8781e-08
3.08203e-07
-2.35668e-07
5.94228e-08
2.89429e-07
1.42027e-07
-1.96608e-07
-7.94872e-08
-1.40466e-07
2.61294e-07
-5.11742e-07
2.73308e-07
1.34638e-07
-2.09424e-07
4.52705e-08
-2.98334e-07
1.80982e-07
4.12712e-07
-3.30642e-08
-4.74581e-07
2.41213e-07
2.66439e-07
1.21498e-07
5.79464e-07
-4.39663e-07
1.4447e-07
2.35849e-07
3.10558e-07
8.19949e-08
2.04912e-07
-5.29972e-07
-4.41962e-07
1.38319e-07
3.0977e-07
1.13533e-07
-2.80322e-07
-8.85235e-08
1.72774e-07
-2.93669e-07
6.07074e-08
-2.95457e-07
-2.13848e-07
5.63566e-08
-4.40331e-07
1.5228e-07
7.13076e-08
6.42707e-08
-9.02749e-08
-1.55767e-07
-8.6646e-08
1.73966e-07
-2.93534e-07
-2.75167e-08
5.42291e-07
-2.71087e-07
-4.46435e-08
1.80404e-07
-6.44268e-08
-1.18406e-07
1.41048e-07
1.18632e-08
-3.03832e-08
1.33133e-07
-1.55212e-07
1.99796e-07
-2.21474e-07
-1.20399e-07
-7.64747e-08
2.31687e-07
2.2954e-07
-1.60177e-07
-6.93342e-08
3.32298e-07
-6.68523e-07
3.36243e-07
-7.05094e-07
1.28842e-06
-5.83325e-07
1.07861e-07
-6.4484e-07
4.33165e-08
4.93671e-07
-3.3982e-07
2.88964e-07
2.80423e-07
-7.50845e-09
6.20753e-07
-2.23918e-07
-9.18332e-08
-5.22011e-07
2.0781e-07
3.14205e-07
2.19903e-07
-3.77045e-07
1.57129e-07
2.71894e-07
1.62438e-07
-4.34339e-07
-2.52869e-08
2.51157e-07
-4.65146e-07
2.39285e-07
-4.04497e-07
-3.35298e-07
2.17779e-07
-1.84592e-07
-5.45812e-07
1.8523e-07
-4.58501e-07
1.79761e-06
-1.19038e-06
-6.07237e-07
-4.57982e-08
2.73031e-08
1.85243e-08
-1.34344e-06
-5.16529e-07
1.85997e-06
-1.15079e-07
-4.29753e-07
-2.01179e-07
7.46e-07
9.99055e-07
1.52613e-06
-7.27573e-07
9.5326e-07
2.05068e-06
-6.39624e-07
1.6605e-06
-6.11597e-07
1.70451e-07
-7.0658e-08
5.11829e-07
2.55597e-07
5.94276e-08
-5.79889e-07
2.64863e-07
-9.00925e-08
-9.34952e-08
-2.43505e-07
4.27092e-07
1.83187e-07
1.52793e-08
-5.862e-07
3.87761e-07
-5.77471e-07
-3.26218e-07
2.92113e-07
-4.57379e-07
1.35516e-07
1.88464e-07
-3.3149e-07
-3.58995e-07
-4.00491e-07
-6.65706e-07
3.97651e-07
-1.91446e-07
4.22759e-07
1.05711e-06
-5.03939e-07
-4.25507e-07
2.84625e-07
6.98042e-07
-5.97911e-07
-4.42395e-07
3.4223e-07
2.80513e-07
-5.82242e-08
-6.22756e-07
-2.75975e-09
2.92179e-07
3.4764e-07
-2.14501e-07
-4.57877e-07
1.25294e-07
-4.72051e-07
2.93154e-07
-1.3071e-07
-2.43493e-08
4.47111e-07
-6.92594e-07
-3.88036e-07
-3.8207e-07
-4.12385e-07
-5.01295e-07
2.27628e-09
1.65503e-06
-6.00191e-07
-2.22496e-07
-3.25486e-08
2.8014e-07
-6.63109e-07
-2.64983e-07
2.83301e-07
-1.11851e-07
-1.59031e-07
3.22764e-07
-1.61453e-07
-5.9602e-07
1.80363e-07
-1.22595e-07
9.11756e-07
-7.16529e-09
-1.39311e-07
-4.64782e-07
-6.70388e-07
1.71417e-07
-2.74802e-07
6.98394e-08
1.14337e-07
-5.99367e-08
-2.15548e-07
-7.40267e-07
-2.94447e-07
5.59558e-07
-2.651e-07
3.49258e-07
-1.28174e-07
-2.21038e-07
-1.58044e-07
5.73033e-07
-4.14978e-07
-3.48053e-07
1.3401e-07
7.53782e-08
1.38677e-07
-2.05793e-07
1.22737e-07
-2.11358e-07
1.43493e-07
6.90356e-09
-2.32205e-07
-7.63577e-09
-1.94884e-07
6.08044e-07
-4.13156e-07
4.02843e-07
-2.61345e-07
-1.41524e-07
2.54158e-07
1.07703e-07
-3.61859e-07
-8.35165e-08
7.3572e-07
-1.13883e-07
-5.38312e-07
-3.88852e-07
7.05594e-07
-5.11645e-07
1.39684e-08
-4.65195e-07
1.08727e-06
-1.97064e-07
9.02514e-07
-3.39964e-07
-5.62542e-07
-1.00231e-07
-4.1024e-08
1.41348e-07
-8.98553e-08
5.11243e-07
-4.21346e-07
-7.25517e-07
7.21456e-08
1.8429e-06
-1.18953e-06
5.37625e-07
5.88902e-07
-2.24008e-07
4.37412e-07
9.33559e-07
-1.07017e-06
1.28112e-06
1.9694e-07
-1.75518e-07
1.72034e-07
-1.93466e-07
4.86447e-07
-4.0085e-07
4.47229e-07
-5.32825e-07
1.49193e-08
-1.17716e-06
2.24785e-06
-1.08562e-06
-4.66354e-07
7.72944e-07
1.72615e-07
-4.79206e-07
-1.60924e-08
6.88998e-07
-4.75982e-07
6.55963e-07
-1.85614e-07
4.63842e-07
-2.41205e-07
1.13472e-06
3.36776e-07
-1.33851e-07
-3.31082e-07
-2.13031e-07
4.33506e-08
7.4271e-07
-1.95526e-07
4.35157e-07
-1.05624e-07
1.43439e-07
-4.16676e-07
6.60207e-07
-3.86958e-07
2.18817e-07
8.54479e-08
3.25457e-08
-1.84494e-09
6.17093e-07
-3.882e-07
4.19729e-07
4.74192e-07
-5.82293e-07
9.01332e-07
4.25872e-08
6.5116e-08
-4.35623e-07
4.7897e-07
8.69543e-08
4.19781e-07
5.91924e-07
-1.58455e-08
6.18655e-07
9.17343e-07
4.90059e-07
-6.64695e-07
5.19375e-08
2.07709e-07
8.59732e-08
1.73388e-07
-1.17115e-06
1.03049e-06
-1.03651e-06
-1.52679e-07
1.69515e-06
-6.25134e-07
3.1899e-07
-2.19349e-07
7.4335e-07
6.2906e-07
-1.07265e-06
2.17528e-06
5.778e-07
4.96916e-07
-3.30911e-07
3.55004e-07
2.78985e-07
1.26047e-07
-5.03225e-08
4.13785e-07
9.41262e-07
-6.60211e-07
-2.82956e-06
6.85716e-06
-3.36739e-06
6.25911e-06
-4.7708e-07
-1.90515e-06
-3.87688e-06
-1.92408e-06
-1.65597e-07
4.50969e-06
-2.41998e-06
-2.99761e-06
-5.70445e-07
-6.78151e-07
4.2462e-06
-4.01227e-06
4.67569e-06
-1.32362e-06
5.10783e-06
-2.86099e-06
-3.404e-06
5.08208e-06
-2.20268e-07
1.89939e-08
4.24958e-06
-1.3192e-06
-2.94939e-06
2.17386e-06
-6.54402e-08
-2.1084e-06
-3.88301e-07
3.2942e-06
-2.90584e-06
-2.26759e-06
1.8239e-06
4.43752e-07
-2.75998e-06
2.83275e-06
-5.37723e-08
2.38953e-06
-2.97563e-06
-2.00123e-06
2.5664e-06
-1.64994e-07
-9.08927e-07
2.17736e-06
-1.10329e-06
3.53251e-06
-9.574e-07
-2.57508e-06
-6.13785e-07
2.20694e-06
-1.5931e-06
-2.53112e-06
-2.89785e-07
2.82093e-06
-2.79099e-06
3.42358e-06
-7.97586e-07
2.82481e-06
-2.08328e-06
-2.21102e-06
3.1035e-06
-1.60923e-07
-2.18101e-06
6.98582e-07
1.64336e-06
9.38363e-07
-1.99755e-06
1.05917e-06
6.61408e-07
-2.13135e-06
1.47001e-06
-1.4013e-06
1.40374e-06
-2.42446e-09
-1.88638e-06
1.86062e-07
1.53938e-06
9.67784e-07
-1.91581e-06
-1.62919e-06
4.13968e-07
3.12379e-06
-2.92739e-06
-6.73528e-07
-4.69158e-07
-2.15335e-06
2.45693e-06
-2.94701e-06
2.28325e-06
9.32963e-08
6.23393e-08
-2.36801e-06
1.46923e-06
8.36455e-07
3.32198e-06
2.3432e-06
-2.54146e-06
2.63254e-06
3.05354e-06
-6.48014e-07
2.73906e-06
3.9646e-06
-2.64243e-06
-2.30128e-06
1.75716e-06
2.54931e-06
3.40196e-06
-2.65711e-06
-3.42943e-06
2.90093e-06
-1.62481e-06
2.06827e-07
1.21631e-06
4.71935e-07
3.58265e-09
-2.21671e-06
3.02481e-06
1.89554e-06
-1.80594e-06
2.36741e-06
-2.30147e-06
2.40372e-06
1.27466e-06
-1.80302e-06
-1.81175e-06
-2.14665e-06
1.82699e-06
-3.39703e-07
-2.02865e-08
2.25552e-06
9.78816e-08
5.43266e-07
-2.37538e-06
1.86043e-07
-2.43647e-06
-4.58752e-08
2.44453e-06
2.51052e-06
-3.12209e-06
-2.30136e-06
2.34723e-06
-5.90134e-07
3.72448e-06
-6.18718e-06
3.05285e-06
3.89299e-06
-2.25474e-07
-6.68142e-06
3.01392e-06
-6.45537e-06
-4.03162e-07
4.07691e-06
2.78168e-06
3.01899e-06
-2.87953e-07
4.68989e-06
-7.42091e-06
2.72973e-06
4.3266e-06
-7.64644e-06
3.50417e-06
3.11855e-06
2.4911e-06
4.8545e-06
-4.60097e-07
4.33154e-07
3.24405e-06
-6.05298e-06
2.37576e-06
4.28404e-06
-8.20778e-06
3.92371e-06
-6.40149e-06
3.52285e-06
2.87863e-06
6.54887e-07
1.83194e-06
-2.4868e-06
4.78404e-06
3.14173e-06
-7.49262e-06
5.00915e-06
4.05892e-06
1.39234e-06
2.40428e-06
9.77242e-09
-4.92706e-06
3.11469e-06
1.80258e-06
2.13332e-06
-3.46201e-06
1.32868e-06
-2.14344e-06
1.60921e-06
5.34309e-07
4.83967e-07
-2.6156e-06
2.13164e-06
7.83805e-07
7.64973e-07
-1.53896e-06
1.95548e-06
9.61656e-07
1.87954e-07
1.06104e-06
5.89975e-07
1.01668e-06
2.27002e-07
-1.83366e-06
-1.08243e-06
7.32004e-07
3.50425e-07
1.51783e-07
8.02656e-08
-2.32035e-07
1.48278e-09
8.12495e-07
-8.14062e-07
1.32319e-06
2.69786e-07
-1.00299e-06
-4.77355e-07
7.18111e-07
3.25572e-07
-5.43005e-08
3.39581e-06
3.58767e-06
-7.20896e-06
-4.97163e-06
1.65874e-06
2.90976e-06
1.51173e-06
3.36729e-06
-5.16695e-06
7.98171e-07
6.50344e-07
3.66412e-06
-5.11261e-06
3.39072e-06
-1.81609e-06
1.8212e-06
-2.04101e-06
3.2244e-06
-4.24231e-06
2.69513e-06
3.42709e-06
3.4046e-06
6.90148e-07
1.79214e-06
-1.97058e-06
3.38082e-06
2.11262e-06
-3.23534e-06
2.76405e-06
2.13003e-06
-4.33936e-07
5.68223e-06
2.66049e-06
-3.45685e-08
2.48146e-06
6.55333e-07
-2.15225e-06
1.96901e-06
3.09299e-06
1.80834e-06
2.57563e-06
3.63225e-06
7.63877e-07
-3.04447e-06
1.7611e-07
2.9486e-06
-4.85084e-06
8.38101e-08
2.61481e-06
-3.47366e-07
-4.003e-06
1.04234e-06
-1.93998e-07
-2.43949e-06
2.55601e-06
-8.12107e-08
-9.16089e-07
-8.1688e-07
-2.31325e-06
-2.42763e-07
-6.53067e-08
2.73708e-07
-1.86274e-07
1.55182e-06
-7.62548e-07
-1.01303e-06
-1.30817e-06
-5.86685e-07
1.76067e-06
2.65666e-07
-1.45212e-06
-2.80388e-06
3.99037e-06
-2.01356e-07
8.36889e-07
-7.00824e-07
9.53472e-07
-5.07647e-07
1.61021e-06
-8.62341e-07
-8.19267e-07
2.08061e-06
-1.38106e-06
2.78406e-06
-1.96171e-06
-8.51122e-07
-2.42412e-06
3.26768e-06
-1.02463e-06
2.73564e-07
4.32601e-06
-3.30078e-06
-1.29877e-06
-6.13031e-07
1.90466e-06
-2.11089e-06
2.03057e-06
-7.21629e-07
2.89986e-06
-1.11519e-06
-8.85569e-07
-1.97029e-06
2.7572e-06
3.46987e-06
-2.67834e-06
-1.00521e-06
-2.81781e-06
3.44638e-06
-1.02284e-06
4.45416e-07
-3.20666e-06
4.04535e-06
-1.28411e-06
-6.81681e-07
2.37127e-06
-2.57516e-06
2.41021e-06
-7.01013e-07
3.51771e-06
-1.10862e-06
-1.33986e-06
3.14176e-07
-3.04093e-06
4.06661e-06
3.60051e-06
2.91047e-07
-2.71999e-06
-1.17156e-06
-2.69476e-06
4.29174e-07
3.51265e-06
-1.24707e-06
3.86111e-07
-2.22497e-06
3.04436e-06
-1.20548e-06
-9.27343e-07
2.49141e-06
-2.90393e-06
2.32766e-06
3.45505e-07
-9.77581e-07
3.8551e-06
-1.34468e-06
1.34409e-06
-6.04488e-07
-1.50215e-06
-1.49147e-06
-6.2009e-07
1.52487e-06
-1.20523e-06
2.77737e-06
-3.02426e-06
1.34317e-06
-1.07073e-06
2.99451e-06
-3.26696e-06
2.16666e-06
-2.00458e-07
-6.22101e-07
-1.87149e-07
4.21852e-06
-3.0758e-06
2.82614e-06
1.38947e-06
3.02402e-07
2.95288e-06
6.94355e-07
2.30224e-06
-2.43063e-06
1.72027e-06
-8.47049e-07
1.61443e-06
2.35521e-06
-8.80629e-07
2.16894e-06
-1.53814e-07
-7.23793e-07
2.40248e-06
-1.1768e-06
4.26834e-06
4.30116e-06
-1.0156e-06
-2.96225e-06
-9.84889e-07
4.37632e-06
-3.01219e-06
-1.3302e-06
4.18858e-06
-1.36285e-06
-3.28381e-06
-1.00863e-06
-9.73817e-07
-2.85965e-06
-1.33189e-06
3.20531e-06
-1.26803e-06
7.2013e-07
-1.09622e-06
-3.69922e-07
-3.17905e-06
-4.2382e-06
-2.89977e-07
-1.32286e-06
2.02013e-06
-2.18819e-06
6.79296e-07
2.05534e-06
3.10833e-06
-3.32077e-06
-1.89166e-06
1.31235e-06
7.20697e-07
-1.75644e-06
2.80367e-06
-2.90845e-06
1.86123e-06
7.3657e-07
3.84819e-06
-2.56462e-06
4.07304e-06
6.6323e-07
1.42853e-06
2.84461e-06
3.14569e-06
2.55062e-06
-3.44845e-06
1.3231e-06
-2.51187e-06
-2.02195e-06
1.08812e-06
-2.36816e-06
2.38359e-06
-3.31621e-06
7.21352e-07
5.63126e-06
-3.20692e-06
3.17918e-06
9.53658e-07
2.30944e-06
1.0779e-06
-1.43368e-06
-6.05676e-09
2.99077e-07
-1.42598e-06
-2.15056e-08
3.39332e-08
-1.51007e-06
-3.17309e-06
1.87929e-06
4.07019e-07
3.03751e-06
-2.36662e-06
5.09079e-07
2.13251e-07
1.31419e-06
2.62663e-06
-1.87077e-06
-2.79044e-06
2.03458e-06
2.18775e-06
-1.87467e-06
-3.03307e-06
-3.32559e-06
-2.01952e-06
2.30418e-06
-1.54704e-06
-2.39368e-06
1.71576e-06
1.02507e-06
4.40854e-06
-2.80697e-06
5.30644e-06
-2.09361e-06
9.23082e-07
1.93842e-06
5.59897e-06
8.3384e-07
-3.32448e-06
-3.08984e-06
6.28711e-07
3.77347e-06
9.87427e-07
4.77031e-06
-2.95407e-06
-3.03886e-06
8.78479e-07
5.2644e-06
-3.104e-06
2.38592e-06
2.06587e-06
1.14718e-06
2.14069e-06
2.23651e-06
-3.2095e-06
5.36464e-06
5.55973e-06
-2.31344e-06
5.57552e-06
-7.67079e-07
2.35211e-06
-1.98839e-06
2.97211e-06
3.08483e-06
3.62208e-06
3.08083e-06
2.57494e-06
4.88869e-06
1.64624e-06
4.99077e-07
1.62816e-06
8.98384e-07
2.00117e-06
2.29552e-06
1.09421e-06
-5.32432e-06
1.03406e-06
2.27077e-06
-2.98675e-06
2.69889e-06
1.93412e-06
3.27627e-06
-3.47818e-06
8.52762e-07
2.03751e-06
-5.16329e-06
3.40278e-06
-5.7602e-07
1.96458e-06
-2.29369e-06
-2.34595e-06
2.01897e-06
2.61392e-06
-1.42597e-06
-1.66404e-06
-2.06923e-06
3.12715e-06
-1.91802e-06
-1.5738e-06
3.28233e-06
-2.57498e-06
9.07238e-07
4.98309e-06
-3.76013e-06
-2.13017e-06
3.72362e-06
9.28717e-07
-2.03852e-06
7.41083e-07
5.27841e-06
-3.44236e-06
4.44579e-06
3.43628e-06
-2.23385e-06
-1.63586e-06
-2.72096e-06
3.63374e-06
-1.96275e-06
-2.35532e-06
-3.04536e-06
4.24187e-06
1.29823e-06
-3.39108e-06
4.17862e-06
-2.0858e-06
4.51157e-06
9.70688e-07
-2.04604e-06
9.21391e-07
5.82481e-06
-3.55594e-06
4.39087e-06
4.75497e-06
-1.93776e-06
-3.34972e-06
-4.36064e-06
-2.98338e-06
6.06983e-06
-2.40091e-06
-3.82972e-06
5.45968e-06
9.64664e-07
-2.40253e-06
-4.31614e-06
5.75406e-06
5.75925e-06
1.47701e-06
-2.48125e-06
1.0191e-06
6.2439e-06
-3.80213e-06
4.86211e-06
4.07511e-06
7.555e-07
-2.98135e-06
-1.84926e-06
-2.71246e-06
8.82962e-07
3.34052e-06
-1.51101e-06
-1.6635e-06
7.6726e-07
-3.0216e-06
3.91785e-06
5.03347e-07
-5.65143e-07
1.50042e-07
-8.78599e-08
4.49094e-06
9.79145e-07
-1.39493e-06
1.05613e-06
7.22347e-07
4.27408e-06
-2.7916e-06
3.66671e-06
9.17927e-07
3.91593e-06
-1.70674e-06
-1.8969e-06
4.11898e-06
1.06036e-06
5.86502e-06
1.3522e-06
-2.23409e-06
-4.55048e-06
5.57736e-06
1.09421e-06
-2.12114e-06
-3.58141e-06
-1.07611e-06
5.5755e-06
-1.03252e-06
-3.54841e-06
-2.07817e-06
1.28409e-06
8.72708e-07
1.14344e-06
1.04283e-06
-4.75834e-06
1.00011e-06
2.39517e-06
1.08088e-06
4.67368e-06
1.77454e-06
2.26118e-06
3.80483e-06
1.30767e-06
-9.89885e-07
6.29943e-06
-4.2491e-06
6.13428e-06
-4.0266e-06
-3.67036e-06
5.64749e-06
-1.4404e-06
6.35797e-06
-4.15027e-06
-2.25333e-06
5.30558e-06
-4.04209e-06
5.16503e-06
-2.21702e-06
6.08223e-06
5.44257e-06
-1.36634e-06
5.32178e-06
2.04701e-06
4.64331e-06
-6.2592e-06
4.27592e-06
-1.0073e-06
3.96863e-06
3.70858e-06
-9.82911e-07
4.77267e-06
3.15569e-06
-3.91263e-06
2.24829e-06
-4.24558e-06
2.91538e-06
2.09835e-06
2.69855e-06
3.77205e-06
-4.61451e-06
-1.68099e-06
2.77908e-06
-3.33533e-06
2.23716e-06
1.76054e-06
-6.32065e-07
2.02723e-06
-8.38872e-07
1.69154e-06
-4.00464e-06
3.55121e-06
3.29191e-06
-4.52348e-06
2.03296e-06
-2.90688e-06
1.87159e-06
2.50581e-06
-4.71416e-06
-2.08858e-06
-4.5246e-06
2.85305e-06
1.69228e-06
-1.13794e-06
2.73757e-06
-8.94771e-07
1.83131e-06
-5.05779e-06
4.39611e-06
3.33953e-06
-5.28928e-06
-5.18058e-06
3.19033e-06
2.78303e-06
-5.18456e-06
-2.46154e-06
3.39648e-06
-5.25107e-06
2.00341e-06
-1.12674e-06
3.51948e-06
-9.49427e-07
1.96853e-06
-5.55677e-06
1.65957e-06
-9.38221e-07
-2.23993e-06
1.51845e-06
-3.50219e-06
-1.79401e-06
2.31482e-06
2.23883e-06
-1.87902e-06
-3.38141e-06
-5.52768e-07
-9.11792e-07
8.99249e-07
1.11207e-06
-6.66591e-07
1.21411e-06
-6.36582e-07
-1.75353e-06
1.18935e-06
-2.40877e-06
-9.05606e-07
1.68865e-06
2.13234e-06
2.76854e-06
1.75977e-06
-7.5626e-07
1.43746e-06
-7.90416e-07
2.13205e-06
-3.35293e-06
1.61844e-06
-7.94776e-07
2.52926e-06
-4.53814e-06
1.87119e-06
1.76134e-06
1.78161e-06
-3.92464e-06
2.4429e-06
-7.05561e-07
-9.94679e-07
-2.06297e-06
-8.43188e-07
-2.00032e-06
-1.05317e-06
5.03774e-06
-8.37188e-07
3.90333e-06
-3.13663e-06
-3.21742e-06
4.15776e-06
-1.05997e-06
2.30384e-06
1.85526e-06
-4.91536e-06
1.31766e-06
-3.04637e-06
-4.28295e-06
1.69414e-06
6.76195e-07
1.65604e-06
-4.21125e-06
2.66483e-06
3.69354e-06
-4.05455e-06
3.27691e-06
2.75957e-06
1.61018e-06
4.35761e-06
9.0226e-07
-3.17563e-06
-2.11192e-06
2.35222e-06
5.52491e-06
4.86469e-06
2.35303e-06
1.11577e-06
-1.42924e-06
1.12589e-06
-6.97044e-07
5.44609e-07
-7.98972e-08
8.04162e-07
1.18233e-06
-1.7595e-06
-6.97555e-08
4.49078e-07
-2.53343e-07
-1.26188e-07
4.27585e-07
-2.65214e-07
9.53317e-07
-3.23778e-07
7.46739e-07
-1.08178e-06
1.22713e-06
3.30267e-06
-4.88113e-06
3.71008e-06
-3.40886e-06
2.47128e-06
2.54676e-06
4.89858e-06
-7.36801e-06
5.58408e-06
-1.94171e-06
-4.42896e-06
3.14122e-06
3.22945e-06
9.56486e-07
-1.33423e-06
3.68038e-06
-1.39134e-06
2.07532e-06
-5.35132e-06
5.58254e-06
6.62109e-06
4.87122e-06
-6.80241e-06
-1.01618e-05
6.24556e-06
7.99319e-06
7.15766e-06
1.0324e-05
-1.37572e-05
-3.74127e-06
5.72244e-06
7.16525e-06
-9.14643e-06
3.03184e-06
-1.71367e-06
5.30292e-06
-2.27545e-06
4.02611e-06
-9.48105e-06
8.90831e-06
6.80946e-07
-4.3847e-07
-1.25189e-06
1.00936e-06
-2.81215e-06
-8.07385e-07
1.90316e-06
1.71625e-06
2.66408e-06
-1.96258e-06
2.87993e-06
-3.58144e-06
-3.32808e-07
5.5505e-07
-7.33983e-07
5.11693e-07
7.37082e-07
-3.61299e-07
3.05027e-07
-8.84716e-07
-1.19035e-06
8.75855e-07
-1.56997e-06
2.65521e-06
5.21955e-09
5.52794e-07
-1.34479e-08
6.40016e-07
1.26026e-06
-7.17972e-07
4.80198e-07
-6.65659e-07
6.34491e-07
-6.50901e-07
1.02629e-06
-6.96828e-07
3.21439e-07
-1.44173e-06
2.41829e-08
1.42272e-06
4.25419e-07
-1.53636e-06
9.09654e-07
-6.30747e-07
-1.37975e-06
-2.11954e-06
-1.28314e-06
-2.38871e-06
-1.8863e-06
5.53326e-06
-1.69739e-06
3.2261e-06
-3.18317e-06
-4.24477e-06
4.96489e-06
-1.66858e-06
7.26594e-07
2.29832e-06
-3.74288e-06
9.99724e-07
-2.10388e-06
-2.8047e-06
1.30048e-06
1.22794e-06
2.28086e-06
-5.47138e-06
1.54686e-06
2.38776e-06
-3.20803e-06
1.91583e-06
2.07922e-06
1.53647e-06
5.47216e-06
1.60424e-06
6.39907e-06
-4.08661e-06
4.10394e-06
-2.7381e-06
7.09734e-06
3.07256e-06
7.70253e-06
6.21327e-06
3.29584e-06
5.42252e-06
2.49097e-06
-8.51702e-08
-1.45544e-06
6.47571e-07
1.25159e-06
-2.21589e-06
6.48075e-06
8.79187e-07
3.01923e-06
-7.57166e-07
1.75388e-06
7.23125e-07
1.39137e-08
2.44652e-07
7.18482e-06
5.21359e-06
-6.4103e-07
-5.94563e-07
2.29469e-06
5.04138e-07
-1.81615e-06
2.71573e-06
1.08794e-06
-2.39832e-06
2.009e-06
-1.18209e-06
-6.81493e-07
1.08593e-07
1.75489e-06
-2.64046e-06
-4.68395e-07
2.46772e-06
-5.96943e-07
-2.04312e-07
-1.44618e-06
2.86668e-07
9.86235e-06
-3.7743e-06
-6.44792e-06
-2.02104e-06
7.7908e-06
-5.6479e-06
1.31424e-05
2.02076e-06
-3.31688e-06
8.46137e-06
1.03189e-05
2.51126e-06
-2.96777e-06
2.54731e-06
1.34403e-05
1.03397e-05
2.02542e-06
5.2851e-07
-6.5092e-07
-1.45611e-06
-1.8334e-08
1.69563e-06
-2.21319e-07
-1.02543e-06
8.21144e-07
3.08421e-06
2.5342e-07
5.72704e-07
-2.7121e-07
1.99164e-06
4.24673e-07
-3.91074e-07
3.81018e-07
1.54523e-07
3.3333e-06
2.68889e-06
-1.37257e-07
-7.06245e-07
1.49112e-06
-1.68241e-06
6.39585e-06
1.76725e-06
2.35806e-06
6.00762e-07
6.04388e-08
-1.08667e-06
-4.25361e-07
2.27885e-07
1.28402e-06
-3.71594e-06
1.89202e-07
3.38952e-06
-1.84762e-07
-1.78805e-06
8.90582e-07
3.85248e-07
-4.64344e-07
-9.42997e-07
-1.6385e-07
-3.32107e-06
1.01613e-06
4.2982e-06
1.42414e-06
2.00338e-06
9.21828e-07
-3.85767e-07
4.57205e-06
8.65204e-07
-1.20718e-06
1.00718e-05
5.23323e-06
-2.61419e-06
2.82376e-06
-1.53738e-06
8.7576e-06
-2.05437e-06
6.26974e-06
3.56413e-06
-1.10447e-06
5.83688e-06
7.72162e-06
-1.4562e-06
6.89693e-06
5.98678e-07
2.06123e-06
-6.57609e-06
5.57116e-06
-6.11871e-07
5.36571e-06
3.76882e-06
-3.45173e-07
4.02234e-06
-8.77397e-08
-2.81197e-07
-9.35015e-08
3.13776e-07
-1.30123e-06
1.00712e-06
6.66075e-07
-9.87606e-07
1.34774e-08
-1.23779e-06
-3.11098e-06
2.66872e-06
1.68004e-06
-5.11369e-07
-1.77478e-07
6.01063e-07
-3.74032e-07
-2.44278e-06
1.02748e-06
-2.15076e-06
-1.89186e-06
9.66853e-07
1.30846e-06
1.3544e-06
2.61273e-06
-2.868e-06
3.44678e-06
2.53133e-06
-4.20357e-06
-2.57468e-06
2.69751e-06
3.54137e-06
-3.6642e-06
-3.0322e-06
-1.02106e-06
2.16142e-06
-6.871e-07
-6.41157e-06
2.81584e-06
-3.65189e-06
-2.4087e-06
1.75628e-06
1.21189e-06
2.43318e-06
3.21696e-06
-3.96574e-06
2.47505e-06
-2.9263e-06
1.88553e-06
-1.49871e-06
2.56027e-06
-2.78738e-06
1.72583e-06
-4.5698e-06
-9.4531e-07
3.10642e-06
-8.61645e-07
-4.25079e-06
1.80672e-06
-2.63738e-06
-3.58219e-06
-2.13085e-06
3.20995e-06
2.50309e-06
2.29322e-06
-1.94672e-06
2.82225e-06
-3.16875e-06
2.32133e-06
-1.35786e-06
-2.70226e-06
1.73879e-06
-1.07559e-06
1.83614e-06
-2.33466e-06
1.57412e-06
-5.53227e-06
-1.0602e-06
3.01028e-06
-1.08289e-06
-2.15616e-06
-3.8272e-06
1.69139e-06
-2.58876e-06
-6.61506e-07
-1.96847e-06
1.32874e-06
1.74855e-06
-1.94296e-06
-7.93189e-07
-5.13602e-06
-1.13009e-06
3.15513e-06
3.82246e-06
-6.22316e-06
-1.10697e-06
3.50767e-06
2.06482e-06
2.09773e-06
-4.82408e-06
1.66261e-06
2.52543e-06
3.39476e-06
-9.47971e-07
-6.64838e-07
-2.49879e-06
-1.02685e-06
4.83277e-06
-8.82812e-07
-1.34e-06
-4.97722e-07
-3.36672e-06
-2.1222e-06
-3.04967e-06
-2.71886e-06
-9.35756e-07
1.94561e-06
-4.87705e-06
2.13828e-06
-5.9284e-06
2.66748e-06
2.51774e-06
-5.57141e-06
1.08116e-06
-4.30824e-06
1.86926e-06
3.13709e-06
-3.84474e-06
2.65328e-06
-3.73928e-06
3.37769e-06
-6.14127e-06
-3.61847e-06
1.13942e-06
-2.88739e-06
-3.16921e-06
-3.42903e-06
5.97477e-06
-3.64059e-06
2.35715e-06
-2.8692e-06
-2.64469e-06
2.16982e-06
-3.64409e-06
-3.40678e-06
4.05624e-06
-1.16599e-06
4.29072e-06
-3.52211e-06
-1.37585e-06
-1.13192e-06
-2.21457e-06
3.14533e-06
5.42902e-07
-3.40501e-06
4.36542e-06
-1.50331e-06
-2.84093e-06
7.74003e-07
-1.33986e-06
8.10166e-07
-2.8476e-06
4.16451e-06
-3.16936e-06
-3.44475e-06
4.28874e-06
-1.42732e-06
3.53467e-06
-1.0821e-06
-6.76761e-07
2.02854e-06
2.92865e-07
4.80905e-06
-1.56054e-06
-2.68294e-06
8.19971e-07
-1.58179e-06
6.27818e-07
-2.11248e-06
3.22531e-06
-1.33275e-06
-5.41314e-07
1.63055e-06
1.50303e-06
-5.66569e-07
2.46176e-08
-2.90473e-07
3.13731e-07
-1.62073e-06
3.97574e-06
-1.02798e-06
4.81049e-07
-7.85826e-07
1.43557e-07
-7.69238e-07
1.56402e-06
-2.71599e-06
4.71803e-07
3.54626e-06
-1.30207e-06
3.85696e-06
3.21735e-07
-1.35644e-06
-1.55455e-06
3.77654e-07
4.38686e-06
4.54092e-07
2.2787e-06
-8.9664e-07
-2.38797e-06
1.007e-06
-1.33503e-06
1.04981e-06
4.1918e-07
-2.50554e-06
3.96664e-06
8.51261e-07
-2.89733e-06
-1.47604e-06
-1.06629e-06
-1.85379e-06
7.05514e-07
-2.99175e-06
1.05598e-06
-1.46925e-06
3.50282e-06
-3.2028e-06
1.21731e-06
-1.51732e-06
3.81754e-06
-4.02648e-07
-2.56362e-06
-4.18103e-07
4.54183e-06
-1.44166e-06
1.13198e-06
7.91215e-07
3.21639e-07
1.2846e-06
1.48512e-06
5.10865e-07
-2.51585e-06
5.50209e-07
-2.7034e-06
9.30989e-07
8.43547e-07
-1.74632e-06
5.82342e-07
-2.17615e-07
-1.59507e-06
2.5182e-06
-3.08086e-06
4.60865e-06
4.72831e-06
-3.18927e-06
-1.36092e-06
-2.9115e-06
4.65007e-06
-1.54459e-06
-3.3971e-06
4.72408e-06
-3.49347e-06
-1.65402e-06
-3.10401e-06
-1.58619e-06
-1.3771e-06
1.60301e-06
1.27303e-06
-2.86149e-07
-2.08588e-06
-4.76726e-06
-2.30507e-07
5.7253e-06
2.49589e-06
-8.22118e-06
3.21034e-06
5.05175e-06
-8.2621e-06
2.06839e-08
9.73889e-07
6.23911e-07
-1.6185e-06
-7.69174e-06
4.95887e-06
2.7329e-06
-3.11413e-06
8.83945e-06
5.06051e-06
-4.96431e-06
-1.9236e-06
3.07131e-06
3.15759e-06
4.54664e-06
3.35444e-06
-7.90109e-06
2.81031e-06
3.12467e-06
-5.93497e-06
-2.39502e-07
2.91185e-07
5.471e-07
-5.98798e-07
-6.12855e-06
3.21684e-06
2.91172e-06
-2.81839e-06
7.36504e-06
4.26295e-06
-4.27103e-06
-1.78279e-06
3.01927e-06
2.24066e-06
5.8961e-07
7.59969e-08
4.40839e-07
-1.10645e-06
3.88461e-07
1.31226e-07
5.3755e-07
-1.05725e-06
7.73097e-08
6.01714e-07
5.02619e-07
-1.18163e-06
-1.23312e-06
-6.19911e-08
7.30208e-07
5.64926e-07
-5.72239e-07
1.16705e-06
-5.18521e-09
9.21156e-07
-1.10495e-06
-4.46015e-07
3.79947e-07
5.52453e-07
4.42323e-06
-7.45597e-06
3.03278e-06
3.01299e-06
-6.26672e-06
3.25372e-06
-3.57259e-07
-2.88323e-06
1.95619e-06
1.28426e-06
-6.79588e-06
3.79054e-06
3.00536e-06
-2.84255e-06
7.26579e-06
5.70502e-06
-5.53459e-06
-2.67293e-06
3.14284e-06
2.67483e-06
8.08375e-06
-3.032e-06
-5.45985e-07
-6.95201e-07
2.21508e-06
-3.09421e-06
8.0531e-06
-3.85694e-06
-3.0972e-06
6.95414e-06
2.75498e-06
7.17137e-06
-1.84262e-06
5.36657e-06
3.31442e-06
5.58675e-06
5.44914e-06
-5.1267e-06
-5.82295e-06
5.94259e-06
9.57258e-07
9.90447e-07
-1.65652e-06
-7.07959e-07
1.62613e-06