/*--------------------------------*- C++ -*----------------------------------*\
| =========                 |                                                 |
| \\      /  F ield         | OpenFOAM: The Open Source CFD Toolbox           |
|  \\    /   O peration     | Version:  2506                                  |
|   \\  /    A nd           | Website:  www.openfoam.com                      |
|    \\/     M anipulation  |                                                 |
\*---------------------------------------------------------------------------*/
FoamFile
{
    version     2.0;
    format      ascii;
    arch        "LSB;label=32;scalar=64";
    class       volVectorField;
    location    "2000";
    object      U;
}
// * * * * * * * * * * * * * * * * * * * * * * * * * * * * * * * * * * * * * //

dimensions      [0 1 -1 0 0 0 0];

internalField   nonuniform List<vector> 
41920
(
(2.3754e+09 1.87111e+09 -1.13065e+07)
(1.53783e+09 1.33724e+09 3.78114e+08)
(2.38968e+09 2.35531e+09 -6.04926e+07)
(2.87149e+09 1.9306e+09 1.78824e+08)
(2.27166e+09 1.80909e+09 1.16251e+08)
(2.43473e+09 1.98535e+09 3.95309e+08)
(2.39727e+09 1.92563e+09 1.07655e+08)
(2.46728e+09 2.04518e+09 2.65734e+08)
(6.01457e+08 4.13132e+08 3.7406e+08)
(1.75252e+08 3.72263e+07 -3.42509e+08)
(4.85513e+08 6.44936e+07 3.78825e+08)
(4.65279e+08 4.84176e+08 3.8179e+08)
(4.17883e+08 3.95184e+08 3.30581e+08)
(2.65325e+08 -1.38806e+08 1.21865e+07)
(6.03931e+08 4.36416e+08 3.36082e+08)
(2.55361e+08 9.9042e+07 -2.84325e+07)
(2.7388e+09 2.95249e+09 -1.4439e+08)
(1.46731e+09 1.44173e+09 4.64872e+08)
(3.30642e+09 3.33352e+09 4.5884e+08)
(4.24539e+09 3.31003e+09 1.55927e+08)
(3.09704e+09 2.75025e+09 2.78555e+08)
(3.29414e+09 2.98301e+09 4.92071e+08)
(3.36373e+09 3.10938e+09 1.41745e+08)
(3.31384e+09 2.9411e+09 3.24007e+08)
(2.17405e+09 9.93792e+08 3.06602e+08)
(1.6709e+09 8.95166e+08 9.95776e+08)
(3.39281e+09 1.73009e+09 1.85544e+08)
(2.32979e+09 1.07705e+09 3.84026e+07)
(2.52063e+09 1.33923e+09 4.46418e+08)
(2.63556e+09 1.24036e+09 7.05737e+08)
(2.75299e+09 1.39133e+09 1.91032e+08)
(3.02637e+09 1.58669e+09 2.70565e+08)
(1.18743e+09 1.15768e+09 4.6214e+08)
(2.64028e+09 2.19809e+09 1.83037e+08)
(2.88789e+09 1.8924e+09 1.9743e+08)
(1.27785e+09 9.7246e+08 4.44652e+08)
(1.63398e+09 1.42071e+09 3.73542e+08)
(2.78809e+09 2.13712e+09 4.30736e+08)
(1.59938e+09 1.27382e+09 6.53917e+08)
(3.11614e+09 2.15384e+09 4.49261e+08)
(9.96903e+08 6.57265e+08 4.09452e+08)
(8.64089e+08 5.85433e+08 6.45844e+08)
(6.70832e+08 2.51624e+07 4.63809e+08)
(2.83463e+09 2.61253e+09 4.10943e+08)
(1.09008e+09 1.0561e+09 2.9972e+08)
(8.39273e+08 4.59394e+08 2.57784e+08)
(1.98682e+09 1.66398e+09 3.45151e+08)
(1.27561e+09 9.38572e+08 1.93959e+08)
(2.85332e+09 2.39934e+09 9.68017e+07)
(3.2011e+09 1.99963e+09 3.32476e+07)
(1.75768e+09 1.45272e+09 3.43391e+08)
(3.89214e+09 2.58655e+09 -7.07464e+06)
(3.46242e+09 2.5082e+09 7.46297e+07)
(3.25697e+09 2.24651e+09 2.49022e+08)
(3.5271e+09 2.43661e+09 1.35082e+08)
(3.52136e+09 2.22991e+09 4.18723e+08)
(2.94205e+09 2.55017e+09 3.2277e+08)
(3.98164e+09 2.88684e+09 1.56029e+08)
(1.1498e+09 7.75891e+08 2.04449e+08)
(9.32941e+08 8.16744e+08 -4.60322e+06)
(3.36811e+09 2.72755e+09 5.35962e+08)
(3.81296e+09 2.76247e+09 4.3719e+08)
(2.22572e+09 1.89014e+09 2.44262e+08)
(1.85822e+09 1.03551e+09 5.02986e+08)
(-3.03513e+07 1.89609e+08 -2.02417e+08)
(4.30993e+08 3.48097e+08 2.30106e+08)
(1.56744e+08 3.24832e+08 3.90714e+08)
(3.05968e+08 4.70004e+08 4.79044e+08)
(1.72434e+08 1.22811e+08 3.08413e+06)
(4.02909e+08 2.86279e+08 2.59553e+08)
(9.8635e+07 3.47958e+08 3.60726e+08)
(2.25178e+08 3.08587e+08 3.35011e+08)
(1.03957e+09 9.8969e+08 1.03836e+09)
(3.71891e+09 3.11617e+09 7.82123e+08)
(2.31683e+09 1.93973e+09 9.43849e+08)
(2.33071e+09 2.70539e+09 -4.4869e+07)
(2.30192e+09 2.2017e+09 8.14319e+08)
(2.82833e+09 2.48098e+09 8.41504e+08)
(2.41452e+09 2.05292e+09 8.2914e+08)
(2.84757e+09 2.41043e+09 8.26024e+08)
(-8.75769e+06 1.166e+08 5.1009e+08)
(1.50984e+09 1.35507e+09 7.67695e+08)
(5.77862e+08 5.03623e+08 7.3873e+08)
(1.20207e+09 1.08963e+09 7.36729e+08)
(7.22557e+07 4.89411e+07 8.18385e+08)
(7.34214e+08 7.46877e+08 7.94616e+08)
(2.17662e+08 3.18815e+07 7.63e+08)
(6.91414e+08 6.01514e+08 6.93349e+08)
(6.29116e+08 8.51597e+08 5.78027e+08)
(2.1854e+09 2.09019e+09 1.59062e+08)
(1.34723e+09 1.28161e+09 6.32278e+08)
(1.7918e+09 1.48094e+09 3.25649e+08)
(1.54437e+09 1.35042e+09 6.29759e+08)
(1.71401e+09 1.59159e+09 4.01092e+08)
(1.54652e+09 1.31494e+09 5.22498e+08)
(1.84872e+09 1.56503e+09 3.47098e+08)
(5.40586e+08 6.10797e+07 3.59341e+08)
(1.12985e+08 3.71322e+08 4.54568e+08)
(4.2785e+08 4.42321e+08 5.28347e+08)
(1.8755e+09 1.84145e+09 6.22082e+08)
(2.88069e+08 1.71139e+08 3.70251e+08)
(1.70397e+08 4.44348e+08 5.23799e+08)
(8.42945e+08 8.81339e+08 5.45915e+08)
(5.08326e+08 5.05077e+08 6.20667e+08)
(4.19699e+08 2.74608e+08 3.42777e+08)
(2.05224e+09 1.99849e+09 4.27728e+08)
(1.64393e+09 1.29858e+09 6.21326e+08)
(6.55912e+06 3.40294e+08 4.33556e+08)
(2.42201e+08 -4.62374e+07 8.22318e+08)
(1.99413e+09 1.16131e+09 1.24234e+09)
(-2.56103e+08 -1.32739e+08 3.63203e+08)
(1.60279e+09 9.09025e+08 1.09449e+09)
(1.35257e+08 1.96782e+08 4.73348e+08)
(2.87856e+08 2.92899e+08 4.13763e+08)
(2.00817e+09 1.67981e+09 6.94758e+08)
(6.46982e+08 2.81337e+08 9.02124e+08)
(2.10293e+08 1.63717e+08 7.03087e+08)
(2.93737e+08 1.75335e+08 4.92299e+08)
(6.25924e+08 4.93817e+08 8.0078e+08)
(1.47622e+09 9.8781e+08 8.5368e+08)
(-1.32681e+07 1.10816e+08 5.22547e+08)
(1.45124e+09 1.16533e+09 6.52853e+08)
(2.11684e+09 1.90168e+09 3.30521e+08)
(1.41254e+09 1.17339e+09 6.28957e+08)
(8.57099e+08 5.81249e+08 9.05758e+08)
(1.47352e+09 1.27755e+09 7.02983e+08)
(1.3933e+09 8.8297e+08 1.17047e+09)
(1.88595e+09 1.62611e+09 6.77906e+08)
(-3.63305e+07 1.94774e+07 -3.38422e+08)
(6.25358e+07 1.24585e+08 -2.50471e+08)
(-5.45532e+07 -8.67716e+07 -2.02723e+08)
(8.49267e+07 2.663e+08 2.12528e+08)
(-8.67785e+07 6.0454e+07 -3.23429e+08)
(-2.58466e+06 -2.95728e+06 -2.6398e+08)
(4.27671e+07 -7.07604e+07 -2.42209e+08)
(8.48076e+06 -7.54816e+07 -1.74962e+08)
(8.60204e+08 1.33751e+09 1.23865e+08)
(3.54231e+09 3.91364e+09 5.70518e+08)
(6.13159e+08 -6.59766e+07 -4.48926e+08)
(6.11692e+08 8.33389e+08 2.45042e+08)
(8.97132e+08 1.185e+09 2.80906e+08)
(1.60749e+09 1.88862e+09 5.96886e+08)
(1.11319e+09 1.24092e+09 1.58605e+08)
(6.18293e+08 1.19112e+09 9.18252e+08)
(-5.2645e+07 4.08988e+06 -1.43983e+08)
(2.69135e+08 -2.69957e+08 -2.19268e+08)
(1.9371e+06 -1.18672e+06 -3.84023e+08)
(4.81259e+07 -1.72455e+07 -1.86154e+08)
(4.01526e+06 2.89482e+07 -1.16202e+08)
(1.24828e+07 -3.94611e+07 -3.55649e+08)
(4.9164e+07 7.1397e+07 -1.00848e+08)
(-4.49615e+07 -8.31309e+07 -2.49644e+08)
(-1.9846e+08 2.12968e+08 4.20065e+08)
(-5.10293e+08 -2.49255e+08 -2.36918e+08)
(2.23729e+08 -1.3261e+08 -2.48918e+08)
(2.71115e+08 3.28498e+08 5.28038e+08)
(2.28038e+08 4.20553e+08 6.37679e+08)
(4.52511e+07 -9.90721e+07 -3.43087e+08)
(1.82427e+08 4.0606e+08 4.82666e+08)
(1.12064e+08 -2.36856e+08 -1.36504e+08)
(6.14225e+07 9.82054e+07 -2.21525e+08)
(-2.59696e+07 6.83821e+07 8.24575e+07)
(-2.11296e+07 2.97579e+08 3.8339e+08)
(2.14889e+08 -5.87148e+07 -1.92076e+08)
(-9.88113e+07 4.39369e+07 6.33384e+07)
(6.80329e+07 9.89654e+07 1.23287e+08)
(-2.16013e+08 5.55548e+07 3.35239e+08)
(-8.1456e+07 1.39981e+08 2.20641e+08)
(3.99277e+08 4.26778e+08 1.15441e+08)
(5.47159e+08 6.59572e+08 2.42007e+08)
(1.64514e+08 3.22076e+08 -1.0212e+08)
(-3.7934e+06 -2.61851e+06 -1.97779e+08)
(2.67826e+08 4.64092e+08 9.60003e+07)
(2.3688e+08 4.33599e+08 2.46645e+07)
(7.12899e+07 2.80877e+08 -1.29149e+07)
(8.92346e+07 1.10811e+08 -1.34624e+08)
(-5.08024e+07 5.57339e+07 -1.45038e+07)
(2.03824e+07 3.85668e+08 3.33184e+08)
(6.90107e+08 1.55037e+08 -4.77435e+08)
(1.1162e+08 2.4354e+08 -1.05405e+08)
(-9.72427e+07 2.53207e+08 1.70633e+08)
(-9.03207e+07 3.0543e+08 1.94548e+08)
(-9.7593e+06 1.82466e+08 5.04672e+07)
(5.8822e+07 1.71415e+08 6.94097e+07)
(-5.46323e+07 4.6034e+07 -1.05161e+08)
(-2.28262e+07 -6.71052e+07 -1.54837e+08)
(6.16265e+07 1.42197e+08 -2.48374e+08)
(8.12212e+07 -5.40515e+07 -1.88869e+08)
(1.83844e+07 5.0648e+07 -8.28243e+07)
(-4.70024e+06 1.89609e+07 -8.06992e+07)
(1.30188e+08 3.72191e+08 -2.44547e+08)
(-1.03918e+07 -1.72711e+08 -4.45262e+08)
(-5.83972e+07 1.23604e+09 -2.94286e+08)
(7.13121e+08 3.64012e+09 4.22364e+08)
(1.4252e+09 5.39774e+09 3.58525e+07)
(-9.36012e+07 2.09618e+09 5.84223e+08)
(5.86916e+08 3.63929e+09 7.4559e+06)
(6.16708e+08 2.72172e+09 2.36692e+08)
(5.94884e+07 4.38527e+09 9.80751e+07)
(8.95268e+08 5.37515e+09 8.2432e+07)
(1.55506e+09 5.65535e+09 4.22922e+08)
(3.68557e+09 8.90312e+09 9.80775e+08)
(3.66245e+09 8.36272e+09 2.72042e+08)
(1.33472e+08 3.10438e+09 1.27596e+08)
(1.9653e+09 6.96887e+09 6.75599e+08)
(2.92838e+09 8.12571e+09 9.20384e+08)
(2.71694e+09 8.48784e+09 4.89802e+08)
(3.58811e+09 9.25405e+09 7.74394e+08)
(2.64694e+09 5.58437e+09 2.85911e+08)
(3.54549e+09 6.31691e+09 2.27746e+08)
(3.38617e+09 4.91131e+09 2.75155e+08)
(1.30639e+09 2.3319e+09 4.20227e+08)
(2.96749e+09 5.66542e+09 1.14076e+08)
(3.3443e+09 5.92341e+09 2.19945e+08)
(3.01425e+09 4.93581e+09 3.5975e+08)
(3.45327e+09 5.42143e+09 2.80101e+08)
(2.32351e+08 3.71931e+08 6.61719e+08)
(-4.42964e+08 -3.78919e+08 -2.61213e+08)
(-3.28625e+08 -1.58971e+08 2.33433e+08)
(1.14952e+07 -2.79422e+08 -3.44682e+06)
(5.07689e+07 -2.48312e+08 4.0668e+08)
(-1.78514e+08 -4.6806e+08 -2.62262e+08)
(-5.13027e+07 -3.42242e+08 5.04648e+07)
(-4.17558e+08 -4.99657e+08 -2.27281e+08)
(6.49167e+08 3.98506e+09 4.31621e+08)
(2.03733e+09 6.07857e+09 1.21983e+08)
(1.28271e+07 2.22363e+09 5.1207e+08)
(-4.57654e+08 2.26207e+09 1.51538e+08)
(1.71115e+09 6.57024e+09 2.6091e+08)
(1.45904e+09 6.15364e+09 2.54991e+08)
(-2.55077e+08 2.77794e+09 2.10845e+08)
(-8.0325e+07 2.86644e+09 3.4406e+08)
(1.11507e+09 4.86969e+09 4.53291e+08)
(-473966 3.34414e+09 6.91341e+08)
(3.38928e+09 7.8372e+09 2.61929e+08)
(2.19362e+09 6.4645e+09 1.9015e+08)
(2.13477e+09 7.43278e+09 2.29304e+08)
(2.55078e+09 8.11699e+09 3.4473e+08)
(2.32519e+09 6.86569e+09 1.74814e+08)
(2.93157e+09 7.3082e+09 1.21606e+08)
(1.80516e+09 5.53399e+09 5.20263e+08)
(-8.72415e+06 7.04159e+08 6.58755e+08)
(5.49815e+08 9.77415e+08 -7.7815e+08)
(-8.68479e+08 -2.94426e+08 1.10301e+09)
(-2.26006e+08 3.11895e+09 9.72842e+08)
(4.864e+08 1.55369e+09 9.67793e+07)
(2.17191e+08 3.50617e+08 2.81e+08)
(3.19687e+08 3.71932e+08 -2.33299e+08)
(2.61327e+09 6.16723e+09 1.05714e+08)
(4.19129e+08 6.42924e+08 2.39403e+08)
(7.27445e+08 1.7199e+09 1.876e+08)
(3.66966e+09 7.29001e+09 4.74634e+08)
(2.94472e+09 6.53106e+09 2.07711e+08)
(5.37559e+08 2.50429e+09 6.88188e+08)
(3.07596e+09 6.85632e+09 1.98017e+08)
(2.20277e+08 7.95954e+08 -2.73488e+08)
(-1.07353e+10 8.05639e+09 -1.99669e+09)
(-5.49113e+09 4.16697e+09 -1.00246e+08)
(-3.23334e+09 2.23758e+09 -3.36206e+09)
(-1.60799e+09 1.2731e+09 -2.42406e+09)
(-6.97949e+09 6.03544e+09 2.78411e+08)
(-5.42608e+09 3.51283e+09 -6.28309e+08)
(-1.42212e+09 2.79336e+09 -1.26967e+09)
(-2.44963e+09 1.01465e+09 -1.98377e+09)
(1.23879e+09 -1.14122e+07 2.82923e+09)
(8.07085e+08 5.67624e+08 3.92295e+09)
(1.18742e+09 3.31132e+07 2.85534e+09)
(1.67317e+09 3.69324e+08 2.48789e+09)
(8.08008e+08 -3.33796e+08 1.97547e+09)
(8.00409e+08 6.6281e+08 3.34858e+09)
(1.08311e+09 -6.317e+08 2.23715e+09)
(9.22424e+08 3.1465e+08 2.93346e+09)
(-1.54153e+09 8.78845e+08 2.31465e+09)
(9.48717e+08 8.56358e+07 2.34149e+09)
(-1.2643e+09 1.03674e+09 -1.06401e+10)
(2.70395e+09 -1.42193e+09 -1.17766e+08)
(9.42185e+08 8.05145e+08 -2.60303e+09)
(3.91166e+08 8.15189e+08 -5.62452e+09)
(9.05989e+08 3.60343e+08 1.90006e+09)
(3.94798e+08 1.36151e+09 -6.92383e+09)
(-7.36175e+07 2.31795e+08 -3.71006e+08)
(8.63684e+08 5.33492e+08 -3.18282e+08)
(1.34184e+09 -1.05089e+09 -1.00859e+09)
(8.88911e+08 -2.4365e+08 -7.16145e+08)
(9.15812e+08 -7.4112e+06 -5.26811e+08)
(8.50696e+08 2.8559e+08 -1.33243e+08)
(3.89266e+08 1.82362e+08 1.32893e+09)
(7.59657e+08 -8.97862e+08 -6.74564e+08)
(-4.2009e+09 3.29416e+09 -1.02525e+09)
(1.50606e+08 1.76443e+09 -2.8206e+09)
(-4.1946e+08 9.65926e+08 -1.59235e+09)
(4.0935e+08 -2.06398e+08 -6.36911e+08)
(-1.24126e+09 8.70261e+08 -2.42933e+09)
(-1.56552e+09 1.87674e+09 -2.48034e+09)
(-1.24068e+09 -6.77059e+08 -2.10725e+09)
(-3.18813e+08 1.72031e+09 -1.93538e+09)
(-1.23363e+09 -1.75068e+09 2.91381e+09)
(-5.83243e+08 9.61475e+08 7.50611e+08)
(1.00161e+09 5.15794e+07 1.85444e+09)
(1.23523e+09 -1.76307e+09 6.26325e+08)
(-1.06302e+09 -1.17356e+09 1.97298e+09)
(-3.11385e+08 -7.93664e+08 1.57026e+09)
(1.17878e+09 -5.02697e+08 -5.76878e+08)
(9.95676e+08 -9.40104e+08 6.13458e+08)
(-3.25953e+08 2.95813e+09 -3.50682e+09)
(3.85895e+08 1.08513e+08 -1.7039e+09)
(5.78509e+08 6.23766e+08 2.03031e+08)
(3.45679e+08 -3.65826e+08 1.5182e+09)
(1.31558e+08 1.70113e+09 -2.37528e+09)
(4.23565e+08 7.53666e+08 -1.62071e+09)
(1.48094e+09 1.44026e+09 -4.19772e+08)
(6.44119e+08 3.99346e+08 1.70774e+08)
(5.97924e+08 1.91621e+07 1.09473e+09)
(1.2782e+09 -1.53223e+09 -4.13031e+08)
(9.38296e+08 7.73866e+08 9.0717e+08)
(9.84263e+08 8.75654e+08 1.83962e+09)
(1.26985e+09 2.29181e+09 -2.08828e+09)
(1.51452e+09 1.79483e+09 -6.58709e+08)
(4.88079e+08 7.77802e+08 8.30814e+08)
(1.28642e+09 1.00838e+09 1.23488e+09)
(4.06253e+08 4.25043e+08 7.25564e+08)
(5.22869e+08 7.39392e+08 5.39104e+08)
(8.23037e+07 2.16838e+08 5.34211e+08)
(8.47626e+08 6.7961e+08 5.922e+08)
(5.69474e+08 5.70078e+08 6.00419e+08)
(2.38791e+08 4.39269e+08 3.34777e+08)
(4.93271e+08 4.00054e+08 5.07876e+08)
(3.22069e+08 2.03499e+08 3.98869e+08)
(1.35924e+09 1.22108e+09 1.20834e+09)
(3.4322e+09 3.64707e+09 6.03904e+08)
(1.03641e+09 1.40926e+09 3.62393e+08)
(2.38927e+09 2.42049e+09 3.53115e+08)
(2.18853e+09 2.14021e+09 7.97937e+08)
(2.35163e+09 2.56146e+09 6.38359e+08)
(2.27248e+09 1.98151e+09 7.92162e+08)
(2.18552e+09 2.62879e+09 8.50333e+08)
(1.02589e+08 1.46324e+08 1.32411e+08)
(-6.60266e+07 1.91933e+08 -5.6692e+07)
(-1.39571e+07 3.06019e+07 -3.14071e+08)
(5.90021e+08 5.98947e+08 5.21211e+08)
(3.9457e+08 3.55338e+08 4.67227e+08)
(-1.09167e+08 1.00058e+08 -1.67874e+08)
(3.04437e+08 9.57089e+07 1.51902e+08)
(-1.14827e+06 -7.98726e+07 -5.52396e+08)
(1.13259e+09 9.31754e+08 6.29783e+08)
(1.83995e+09 1.873e+09 3.34118e+08)
(1.07818e+09 1.10024e+09 5.60963e+08)
(1.42393e+09 1.07963e+09 3.74309e+08)
(1.47303e+09 1.2351e+09 5.77769e+08)
(1.47973e+09 1.43133e+09 4.83462e+08)
(1.34025e+09 1.17594e+09 4.91024e+08)
(1.25723e+09 1.50083e+09 4.57224e+08)
(1.19345e+09 9.9774e+08 6.91057e+08)
(3.50314e+08 3.27853e+08 6.17425e+08)
(1.12901e+09 9.25131e+08 6.56959e+08)
(1.75627e+09 1.63161e+09 5.92563e+08)
(7.2694e+08 7.96134e+08 6.54824e+08)
(5.09041e+08 3.75448e+08 7.77346e+08)
(1.27327e+09 1.27954e+09 7.58363e+08)
(8.41208e+08 8.587e+08 6.54871e+08)
(7.45988e+08 7.19897e+08 7.19944e+08)
(1.89535e+09 1.88566e+09 5.8921e+08)
(6.81545e+08 8.12736e+08 1.54275e+08)
(4.24861e+08 2.04488e+08 3.63879e+08)
(5.66105e+08 7.28846e+08 7.76733e+08)
(1.62496e+09 1.64438e+09 1.0545e+09)
(7.95728e+08 3.91211e+08 7.28364e+08)
(1.41144e+09 1.50237e+09 9.55084e+08)
(3.14288e+08 3.03435e+08 5.76928e+08)
(9.31668e+08 7.64609e+08 6.83483e+08)
(1.61299e+09 1.56212e+09 5.88508e+08)
(1.01943e+09 9.06628e+08 6.72874e+08)
(6.12999e+08 4.14721e+08 6.24347e+08)
(7.38425e+08 6.8252e+08 7.54622e+08)
(9.91233e+08 1.04567e+09 7.08437e+08)
(1.19274e+09 1.27288e+09 7.86884e+08)
(5.18716e+08 2.87591e+08 5.60732e+08)
(1.05045e+09 9.45822e+08 5.74739e+08)
(1.75116e+09 1.9826e+09 6.4891e+08)
(2.22963e+08 5.10993e+08 -1.32564e+08)
(8.64861e+08 3.99234e+08 7.65426e+08)
(1.08776e+09 1.10622e+09 6.71345e+08)
(1.063e+09 7.47463e+08 6.19171e+08)
(1.35771e+09 1.60054e+09 6.05865e+08)
(2.09835e+09 1.82627e+09 2.24806e+08)
(1.2387e+09 1.17289e+09 5.36853e+08)
(1.18637e+09 1.17267e+09 4.75148e+08)
(2.54492e+09 1.72192e+09 2.71023e+08)
(1.96904e+09 1.41972e+09 3.58161e+08)
(1.25454e+09 1.08797e+09 4.84291e+08)
(2.11144e+09 1.27619e+09 5.61335e+08)
(1.17287e+09 1.04682e+09 4.71645e+08)
(6.85827e+08 6.07797e+08 6.47815e+08)
(1.66462e+08 3.70479e+08 5.64019e+08)
(1.14406e+08 4.89226e+08 5.25953e+08)
(3.39304e+08 3.98004e+08 5.19379e+08)
(5.0044e+08 3.62188e+08 5.35243e+08)
(5.39338e+07 3.70365e+08 5.51741e+08)
(2.47478e+08 3.05972e+08 4.77041e+08)
(8.10759e+07 2.8015e+08 4.99445e+08)
(3.07676e+08 4.93783e+08 4.32208e+08)
(3.01112e+07 4.12184e+08 4.41209e+08)
(-4.75262e+07 1.7547e+07 -2.41052e+08)
(4.82694e+08 3.9828e+08 4.43292e+08)
(2.8804e+08 4.4197e+08 4.33263e+08)
(4.10329e+07 3.11393e+08 3.14954e+08)
(4.18318e+08 3.92778e+08 3.32721e+08)
(1.30305e+08 2.21539e+08 -1.53523e+07)
(2.3692e+09 1.2898e+09 9.79787e+07)
(1.11832e+09 8.56282e+08 5.4563e+08)
(1.29508e+09 8.71194e+08 7.68182e+08)
(2.42217e+09 1.17758e+09 2.80462e+08)
(2.30831e+09 1.23843e+09 3.44717e+08)
(1.4331e+09 9.42013e+08 6.20221e+08)
(2.54265e+09 1.25966e+09 5.21288e+08)
(1.49474e+09 9.94827e+08 7.75155e+08)
(9.54624e+08 8.00436e+08 4.95945e+08)
(1.0396e+09 1.03308e+09 4.7224e+08)
(2.60804e+09 1.82806e+09 2.08696e+08)
(9.91934e+08 8.21419e+08 3.6804e+08)
(8.11591e+08 7.19169e+08 4.49435e+08)
(1.01587e+09 8.83421e+08 4.32184e+08)
(1.16644e+09 9.23578e+08 5.41631e+08)
(1.5183e+09 1.14307e+09 5.17037e+08)
(5.87793e+08 4.21632e+08 6.43998e+08)
(5.17741e+08 5.13873e+08 5.27265e+08)
(3.79625e+07 2.75857e+08 4.6373e+08)
(5.18493e+08 5.64692e+08 4.58283e+08)
(4.791e+08 5.77551e+08 4.20574e+08)
(3.8177e+08 5.28863e+08 5.07975e+08)
(3.9518e+08 5.26614e+08 5.41179e+08)
(3.1134e+08 3.98201e+08 5.04071e+08)
(1.05431e+09 9.01657e+08 4.19252e+08)
(2.94028e+09 1.88682e+09 1.71978e+08)
(9.24811e+08 8.65266e+08 4.42962e+08)
(1.01433e+09 9.1699e+08 3.09074e+08)
(1.17156e+09 1.01396e+09 6.08465e+08)
(1.54675e+09 1.19831e+09 6.26929e+08)
(9.49784e+08 8.08177e+08 4.25164e+08)
(1.09863e+09 1.02126e+09 3.97184e+08)
(4.37914e+08 5.3243e+08 4.31739e+08)
(4.6272e+08 5.79503e+08 3.94511e+08)
(3.60743e+08 5.64664e+08 4.64608e+08)
(6.80228e+07 2.7761e+08 3.53693e+08)
(3.06533e+08 4.42166e+08 3.73018e+08)
(4.94755e+08 4.9252e+08 5.09488e+08)
(2.11307e+08 4.81047e+08 4.57555e+08)
(4.00397e+08 5.49903e+08 4.89775e+08)
(1.3616e+07 -2.25634e+08 -1.37125e+08)
(-2.3498e+08 -4.86688e+08 -7.7128e+08)
(-7.90534e+07 -2.14468e+08 -4.74951e+08)
(2.30589e+08 -1.61615e+08 -4.78511e+08)
(7.87437e+07 -3.80511e+08 -3.34734e+08)
(-6.84411e+07 -3.97224e+08 -5.88544e+08)
(2.88615e+07 -5.88979e+07 -5.37335e+08)
(-1.91422e+08 -9.09477e+07 -9.00591e+08)
(3.00298e+08 3.42193e+09 3.05083e+08)
(4.61153e+09 1.12701e+10 1.03073e+09)
(4.64148e+09 8.16189e+09 1.82885e+08)
(-3.13248e+08 -9.33372e+08 -1.12241e+09)
(7.23483e+08 4.20146e+09 6.76216e+08)
(4.12379e+09 1.04409e+10 9.49843e+08)
(-8.74934e+08 -2.00728e+09 -4.38636e+08)
(4.86814e+09 8.88914e+09 4.21798e+08)
(3.44529e+08 -4.48981e+08 -5.69773e+08)
(4.19544e+09 6.07145e+09 2.28544e+08)
(3.76621e+09 4.59441e+09 5.03247e+08)
(7.76187e+08 8.99074e+07 2.90169e+08)
(1.50045e+08 -2.15745e+08 -9.06672e+07)
(3.93449e+09 5.75402e+09 4.33743e+08)
(2.02276e+09 1.8059e+09 3.61448e+08)
(4.07833e+09 4.98102e+09 6.13456e+08)
(6.11952e+07 -1.42629e+08 -7.261e+08)
(-1.46006e+08 -5.03013e+08 -9.84339e+08)
(-3.90657e+08 2.36307e+07 -5.29418e+08)
(1.90801e+07 -2.04641e+08 -9.99661e+08)
(-1.28422e+08 -3.24044e+08 -9.84187e+08)
(-2.44107e+08 -2.74929e+08 -8.39031e+08)
(-8.19544e+07 -1.56407e+08 -8.20823e+08)
(-3.48509e+08 -3.50684e+08 -7.27667e+08)
(-2.19271e+08 -6.6963e+08 -3.92961e+08)
(-2.04198e+08 -4.32591e+08 -5.04449e+08)
(1.22248e+08 -2.74161e+08 -7.62426e+08)
(-2.51035e+08 -4.76019e+08 -8.46808e+08)
(-1.8851e+08 -3.11674e+08 -1.01202e+09)
(-2.88057e+08 -3.05604e+08 -7.55124e+08)
(4.34116e+07 -5.33312e+08 -9.2951e+08)
(-7.4755e+07 -1.93917e+08 -7.75351e+08)
(3.82664e+08 1.42142e+09 -2.86172e+08)
(-4.793e+08 7.80703e+07 -1.17071e+09)
(4.2575e+09 8.00337e+09 6.14867e+08)
(1.49318e+07 -3.49596e+08 -7.92546e+08)
(4.33076e+08 -1.1904e+09 -5.7221e+08)
(-1.96852e+08 -4.96947e+08 -1.00075e+09)
(1.17935e+08 4.12717e+08 -5.424e+08)
(1.34015e+09 2.09912e+09 4.79652e+08)
(-1.6946e+08 -2.2437e+08 -7.08163e+08)
(1.17721e+07 -1.62701e+08 -6.47633e+08)
(-3.69958e+08 -3.02684e+08 -9.01962e+08)
(-3.11051e+08 3.34224e+07 -6.8067e+08)
(-1.01035e+08 -2.47079e+08 -7.57072e+08)
(-1.92238e+08 -2.58327e+08 -7.68922e+08)
(-3.73412e+08 -4.99851e+07 -6.91373e+08)
(-4.48357e+08 -3.45897e+08 -9.23954e+08)
(3.08739e+08 3.05673e+08 -7.53478e+08)
(-7.80714e+07 -1.07476e+08 -6.84563e+08)
(-5.67021e+08 -4.11466e+08 -8.24629e+08)
(4.49317e+09 6.60557e+09 3.4962e+08)
(7.3172e+08 6.33661e+08 2.01598e+08)
(-2.51375e+08 -1.59292e+08 -6.77609e+08)
(2.55645e+08 1.43037e+09 2.51888e+08)
(-3.81003e+08 -7.48484e+08 -4.95953e+08)
(5.33831e+08 9.73519e+07 6.07274e+08)
(1.28394e+09 -4.6097e+08 6.67054e+08)
(4.89268e+08 3.51613e+08 1.19947e+09)
(6.72277e+08 1.06165e+08 1.75016e+09)
(5.41308e+08 -2.29267e+08 1.12453e+09)
(8.05634e+08 3.33615e+08 6.55566e+08)
(7.21468e+08 1.77739e+08 1.95083e+09)
(7.18037e+08 3.60708e+08 1.27109e+09)
(3.88122e+09 -8.46466e+08 5.8355e+08)
(7.23015e+09 -3.33095e+09 4.16635e+07)
(1.90117e+09 -6.8892e+08 -1.32872e+08)
(3.23333e+09 -4.67263e+08 5.37172e+08)
(3.70194e+09 -1.48429e+09 3.04458e+08)
(3.63334e+09 -1.3693e+09 -1.1966e+08)
(3.84499e+09 -1.15791e+09 3.72859e+08)
(2.4371e+09 -5.16571e+06 8.18764e+08)
(2.55894e+08 3.64561e+08 8.68873e+08)
(4.5491e+07 3.80181e+08 4.22827e+07)
(5.07739e+06 3.18523e+08 2.97127e+08)
(3.60439e+08 6.44643e+08 9.32195e+08)
(2.12022e+08 3.81026e+08 8.65677e+08)
(-1.81781e+07 3.57216e+08 4.75232e+08)
(2.05872e+08 2.56997e+08 7.34843e+08)
(-6.99248e+07 3.55263e+08 3.69049e+08)
(3.82772e+08 2.1916e+08 1.44174e+09)
(1.16108e+09 3.25404e+08 7.10463e+08)
(2.3776e+08 6.13151e+08 1.29281e+09)
(1.12956e+08 5.42037e+07 1.31675e+09)
(2.05603e+08 3.5577e+08 1.44043e+09)
(6.65171e+08 3.1672e+08 1.35405e+09)
(3.18308e+08 5.83125e+08 1.3532e+09)
(2.30461e+08 5.82966e+08 1.45025e+09)
(1.46785e+09 -1.60882e+08 6.51904e+08)
(4.8186e+08 4.2966e+08 1.17015e+09)
(4.05553e+08 2.26476e+08 1.55142e+09)
(1.18126e+09 -2.75574e+08 5.40008e+08)
(1.42196e+09 -2.02044e+08 5.92869e+08)
(7.89741e+08 4.62298e+08 1.16727e+09)
(1.5171e+09 -2.89204e+08 5.49003e+08)
(5.35341e+08 2.37506e+08 1.18479e+09)
(1.49934e+09 -5.64189e+08 4.9289e+08)
(1.44707e+09 -5.6173e+08 7.06812e+08)
(7.7366e+08 -4.46419e+08 4.67877e+08)
(4.78688e+08 1.09985e+08 7.26949e+08)
(1.62641e+09 -7.68281e+08 4.05554e+08)
(1.19653e+09 1.3557e+08 3.75823e+08)
(1.22174e+09 -9.43576e+07 7.33545e+08)
(9.44772e+08 -9.74649e+07 5.13049e+08)
(4.3322e+08 4.28195e+08 1.10592e+09)
(4.8375e+08 5.93393e+08 1.6559e+09)
(1.59653e+09 -4.16946e+08 6.78123e+08)
(3.67047e+08 5.93927e+08 9.26628e+08)
(5.39116e+08 2.92261e+08 1.27193e+09)
(6.69509e+08 3.50406e+08 1.37861e+09)
(2.97219e+08 5.05997e+08 8.39877e+08)
(3.42434e+08 6.91521e+08 8.99319e+08)
(3.18093e+08 3.17081e+08 7.9854e+08)
(3.62822e+08 6.45303e+08 1.02226e+09)
(8.10707e+08 1.9419e+08 1.46071e+09)
(5.83302e+08 1.04271e+08 4.75467e+08)
(4.74397e+08 2.97765e+08 8.30421e+08)
(2.65787e+08 2.29748e+08 8.10524e+08)
(1.15127e+09 -1.68941e+07 6.51049e+08)
(7.42578e+08 -1.43908e+07 2.76489e+08)
(1.77233e+08 3.31816e+08 1.00126e+09)
(1.85481e+08 2.15712e+08 8.79431e+08)
(8.74842e+07 4.65544e+08 8.97881e+08)
(3.40099e+08 3.24394e+08 7.42247e+08)
(1.7344e+08 3.34071e+08 9.251e+08)
(1.90384e+08 2.98531e+08 1.03611e+09)
(1.85297e+08 4.24075e+08 7.85382e+08)
(1.66384e+08 3.47997e+08 8.61587e+08)
(1.5602e+08 1.20206e+08 7.6452e+08)
(1.17193e+08 1.54046e+08 6.86975e+08)
(1.30119e+08 2.27289e+08 6.55784e+08)
(2.06594e+08 1.94346e+08 7.07666e+08)
(1.4362e+08 1.73601e+08 7.36076e+08)
(1.4172e+08 1.81641e+08 7.1097e+08)
(1.45298e+08 1.96878e+08 7.25847e+08)
(1.15198e+08 1.74758e+08 7.03686e+08)
(6.58306e+07 5.00415e+08 7.85491e+08)
(6.82754e+07 3.01356e+08 6.29522e+08)
(7.63964e+07 4.48079e+08 6.78772e+08)
(1.51925e+08 3.91759e+08 5.60589e+08)
(8.23136e+07 3.42252e+08 7.03004e+08)
(2.44063e+07 3.83919e+08 7.82239e+08)
(7.3992e+07 4.5756e+08 6.53921e+08)
(7.1218e+07 3.63434e+08 6.72564e+08)
(4.19531e+08 3.70131e+08 5.03068e+08)
(2.96033e+08 2.38723e+08 5.76951e+08)
(2.66159e+08 2.91086e+08 4.15923e+08)
(4.28859e+08 3.52561e+08 1.65155e+08)
(4.16274e+08 3.3215e+08 4.87203e+08)
(3.16937e+08 3.5592e+08 5.6196e+08)
(3.57311e+08 3.3676e+08 3.41169e+08)
(3.37139e+08 2.98039e+08 3.97076e+08)
(1.69123e+08 2.11037e+08 8.54695e+08)
(1.43301e+08 3.59341e+08 7.95454e+08)
(3.41485e+08 3.18461e+08 7.02534e+08)
(2.77763e+08 2.54425e+08 6.7405e+08)
(2.07873e+08 2.67064e+08 7.92875e+08)
(2.37183e+08 2.94228e+08 7.89665e+08)
(2.68333e+08 2.24215e+08 7.24423e+08)
(2.62529e+08 3.3846e+08 7.37702e+08)
(1.712e+08 2.33694e+08 8.36225e+08)
(2.35011e+08 2.53385e+08 7.2122e+08)
(1.14849e+08 2.90048e+08 7.98038e+08)
(1.41899e+08 3.28974e+08 8.90032e+08)
(1.43843e+08 2.10422e+08 7.71605e+08)
(1.97201e+08 1.96125e+08 7.30096e+08)
(1.0265e+08 3.58138e+08 8.78892e+08)
(1.2281e+08 2.23348e+08 7.35743e+08)
(1.17021e+08 4.54742e+08 6.97385e+08)
(3.19692e+08 3.67913e+08 5.55826e+08)
(1.9701e+08 2.72512e+08 6.07513e+08)
(1.92754e+08 3.75992e+08 5.28609e+08)
(1.91953e+08 3.61427e+08 6.18885e+08)
(2.723e+08 3.23978e+08 6.36986e+08)
(2.07159e+08 3.17259e+08 6.15909e+08)
(2.47818e+08 3.30264e+08 6.1437e+08)
(1.04215e+08 3.66359e+08 7.41382e+08)
(1.64355e+08 2.92174e+08 5.55194e+08)
(1.87828e+08 2.4934e+08 6.16963e+08)
(8.10094e+07 2.50549e+08 6.80297e+08)
(8.77767e+07 3.18038e+08 7.41624e+08)
(1.39666e+08 3.36229e+08 6.29436e+08)
(6.79192e+07 2.89207e+08 6.62238e+08)
(1.62684e+08 2.54886e+08 6.10499e+08)
(2.94393e+08 7.21463e+08 -2.84013e+08)
(3.65074e+08 1.05836e+09 -2.61668e+08)
(-3.69978e+08 7.23706e+08 1.97908e+08)
(-2.73677e+07 5.41646e+08 -4.19453e+08)
(1.2138e+08 7.72852e+08 -4.25691e+08)
(3.08577e+08 1.29673e+09 -2.8748e+08)
(3.97528e+08 8.31666e+08 -2.51899e+08)
(3.03546e+08 8.10285e+08 -4.16514e+08)
(3.9056e+09 -1.532e+09 7.30182e+08)
(9.15809e+09 -6.1523e+09 -1.14124e+09)
(6.58677e+09 -4.39126e+09 3.9022e+08)
(9.96836e+08 1.44571e+09 -2.08781e+09)
(4.20651e+09 -1.76929e+09 6.15507e+08)
(5.09626e+09 -4.43919e+09 4.73764e+08)
(2.19898e+09 -5.20884e+08 6.03437e+07)
(5.13601e+09 -2.99029e+09 4.0509e+08)
(-2.60062e+08 5.24335e+08 -4.59603e+08)
(-1.21566e+09 3.43864e+08 -5.63706e+06)
(-1.55122e+09 1.12121e+09 -2.60432e+08)
(-7.10938e+08 9.58101e+08 -1.21791e+09)
(-8.80937e+08 2.83106e+08 -6.36243e+08)
(-1.09052e+09 8.89805e+08 -2.27522e+07)
(-8.08815e+08 8.59676e+08 -3.66293e+08)
(-9.0269e+08 6.22159e+08 -1.25042e+08)
(-3.47484e+08 3.47621e+08 3.11232e+07)
(-2.60862e+08 9.81802e+08 -8.91064e+07)
(-7.56733e+07 5.7825e+07 9.81034e+08)
(-1.47532e+08 3.97492e+08 -3.25487e+08)
(-1.77524e+08 5.2795e+08 -8.70267e+07)
(-1.54129e+08 1.22103e+09 2.23745e+08)
(-1.27288e+08 1.08149e+08 7.16427e+08)
(-3.35936e+08 7.45817e+08 9.71129e+08)
(5.60886e+08 2.64161e+08 -1.54018e+08)
(-3.36991e+08 7.1536e+08 -1.7742e+08)
(-8.73279e+07 5.62297e+08 -4.19183e+08)
(2.95187e+08 1.53145e+08 -5.40835e+08)
(1.0337e+07 -2.23371e+08 -3.6382e+07)
(-4.08188e+08 3.48112e+08 -6.29767e+08)
(8.96125e+07 3.14756e+08 -4.92134e+08)
(-1.33519e+07 3.96746e+08 -4.95142e+08)
(6.2428e+08 -7.82923e+08 -9.19584e+08)
(1.92651e+09 5.03098e+08 7.24148e+08)
(1.44104e+09 -1.27936e+09 4.8931e+08)
(-7.18211e+08 -3.62088e+08 -1.2632e+08)
(1.50947e+09 1.09979e+08 -5.50599e+08)
(2.57419e+09 -2.27865e+08 7.01191e+07)
(4.79194e+08 -2.24642e+09 1.00893e+09)
(1.35287e+09 -1.35575e+09 1.20865e+09)
(-1.25977e+09 6.56533e+08 -8.88495e+08)
(-1.16596e+08 3.7132e+08 -3.22849e+08)
(7.19396e+08 2.17255e+08 4.03143e+08)
(5.02988e+08 -6.13997e+08 7.82155e+08)
(-2.57277e+08 -3.37022e+08 3.26668e+08)
(-5.08283e+07 4.16181e+08 -3.87129e+08)
(-4.05628e+08 2.20975e+08 6.48043e+08)
(-3.86962e+08 2.52516e+08 2.67744e+08)
(-1.06313e+09 6.14188e+08 -5.48728e+08)
(1.5513e+08 1.21132e+08 1.12529e+08)
(1.73574e+09 -4.885e+08 9.49409e+08)
(4.0014e+09 -2.73469e+09 1.80627e+09)
(-1.29605e+09 3.59287e+08 -6.83498e+08)
(-2.06136e+09 -5.61096e+08 -3.99527e+08)
(3.03095e+09 -1.9639e+09 1.58045e+09)
(2.40003e+09 -1.84967e+09 2.16084e+09)
(-1.75992e+08 5.07442e+07 -1.70836e+08)
(-3.97896e+07 1.14181e+07 -3.21415e+08)
(1.47435e+08 -5.13795e+08 -3.07338e+08)
(4.69301e+08 -3.46512e+08 -3.56259e+08)
(5.32919e+07 -7.84139e+07 -3.987e+08)
(8.35936e+07 -1.40458e+08 -4.96992e+08)
(2.91163e+08 -8.55024e+07 -3.798e+08)
(3.81157e+08 -5.88982e+07 -4.61391e+08)
(-8.44765e+07 -1.63439e+07 -6.59303e+08)
(-1.88168e+07 -5.05186e+07 -1.04648e+09)
(-4.55574e+08 -2.56854e+08 -1.16e+09)
(-3.7593e+08 -2.19235e+08 -6.66343e+08)
(-1.01643e+08 -9.71713e+06 -7.39215e+08)
(-8.12373e+07 -1.99361e+07 -1.04956e+09)
(-3.83744e+08 -1.17403e+08 -8.2003e+08)
(-2.72767e+08 -1.21851e+07 -9.11511e+08)
(7.67291e+08 1.2841e+09 7.00525e+08)
(2.88415e+09 1.85461e+09 2.41769e+08)
(-3.99916e+08 -3.90146e+08 -2.3119e+09)
(6.654e+09 2.5253e+09 3.47599e+07)
(1.43143e+09 8.49433e+08 2.23393e+08)
(1.98764e+09 1.59387e+09 -7.68445e+08)
(2.87122e+09 1.75361e+09 -1.44789e+08)
(4.43682e+09 2.4383e+09 -6.42327e+07)
(1.46168e+09 2.39331e+08 7.35823e+08)
(2.94643e+09 5.71999e+08 3.89941e+08)
(7.33791e+09 1.44617e+09 1.96937e+08)
(6.221e+09 6.02745e+08 5.20764e+08)
(2.5765e+09 7.3529e+08 8.42599e+08)
(2.0435e+09 3.1198e+08 2.73294e+08)
(6.45685e+09 1.0715e+09 5.57702e+08)
(6.74157e+09 1.23422e+09 5.5398e+08)
(-9.72924e+07 1.11325e+08 -3.52743e+08)
(9.29813e+06 -3.07522e+08 -1.11026e+08)
(8.74346e+08 3.28967e+08 9.53754e+07)
(-4.15095e+08 7.7776e+07 -5.21448e+08)
(-2.47574e+08 -5.98202e+07 -5.09625e+08)
(3.53631e+08 -2.5282e+08 -2.52556e+08)
(5.38856e+07 2.19198e+08 -4.68687e+08)
(-2.70427e+08 -1.1966e+08 -4.77155e+08)
(-1.41411e+08 -2.77256e+07 -6.00272e+08)
(-3.38999e+08 -1.03062e+08 -1.85002e+08)
(-6.05971e+08 -2.41842e+08 -1.4213e+09)
(9.60575e+07 5.84994e+06 -1.28537e+08)
(-9.1535e+07 5.23452e+07 -5.84125e+08)
(-4.77299e+08 2.44686e+07 -6.09705e+08)
(-3.86523e+08 -4.18523e+08 -6.25127e+08)
(-3.41947e+08 -2.02945e+08 -5.03604e+08)
(8.43422e+08 2.92443e+08 -1.29197e+08)
(1.81701e+09 6.00452e+08 3.02205e+08)
(1.14175e+09 3.28595e+08 -3.72977e+08)
(6.54969e+09 2.1145e+09 4.04671e+08)
(1.67128e+09 7.54182e+08 4.93699e+08)
(1.58578e+09 6.97529e+08 1.77586e+08)
(2.39438e+09 8.2537e+08 7.15356e+08)