/*--------------------------------*- C++ -*----------------------------------*\
| =========                 |                                                 |
| \\      /  F ield         | OpenFOAM: The Open Source CFD Toolbox           |
|  \\    /   O peration     | Version:  2506                                  |
|   \\  /    A nd           | Website:  www.openfoam.com                      |
|    \\/     M anipulation  |                                                 |
\*---------------------------------------------------------------------------*/
FoamFile
{
    version     2.0;
    format      ascii;
    arch        "LSB;label=32;scalar=64";
    class       surfaceScalarField;
    location    "500";
    object      phi;
}
// * * * * * * * * * * * * * * * * * * * * * * * * * * * * * * * * * * * * * //

dimensions      [0 3 -1 0 0 0 0];

oriented        oriented;

internalField   nonuniform List<scalar> 
138592
(
-1.2811e-07
1.48518e-06
-1.30733e-06
-4.97421e-08
1.47871e-06
-1.3463e-07
-1.29954e-06
-4.45452e-08
-4.82997e-08
-1.23752e-07
1.53385e-06
-1.3618e-06
-1.30895e-06
-1.2516e-07
1.49117e-06
-5.70594e-08
-1.43796e-06
1.3605e-06
-5.06468e-08
1.36139e-06
-1.32064e-06
-1.44007e-06
1.49162e-06
-1.26982e-07
-1.41991e-07
1.474e-06
-1.29416e-06
-3.78413e-08
1.474e-06
-1.51187e-07
-1.29074e-06
-3.20727e-08
-1.98437e-08
1.53212e-06
-1.64052e-07
-1.34823e-06
-1.32201e-06
1.49833e-06
-1.34964e-07
-4.13623e-08
-1.45926e-06
1.34968e-06
-3.24089e-08
1.33819e-06
-1.32346e-06
-1.46388e-06
1.49156e-06
-1.45535e-07
-1.30127e-07
-3.41074e-08
1.61048e-06
-1.44624e-06
1.61794e-06
-1.34428e-08
-1.57665e-07
-1.44683e-06
-2.30198e-08
-1.29011e-07
1.71287e-06
-1.56084e-06
-1.48613e-06
-4.3289e-08
-1.20219e-07
1.64964e-06
-1.61775e-06
1.51498e-06
-2.73521e-08
1.50368e-06
-1.50349e-06
-1.6179e-06
1.64675e-06
-1.3724e-07
-1.20493e-07
-1.31555e-06
1.49935e-06
-6.33076e-08
1.50838e-06
-1.32966e-06
-1.22592e-07
-5.61282e-08
-6.8521e-08
-1.38741e-06
-1.04355e-07
1.56029e-06
-1.32902e-06
-1.0629e-07
1.50586e-06
-7.05551e-08
-1.45116e-06
1.3951e-06
-6.44383e-08
1.39691e-06
-1.33969e-06
-1.44432e-06
1.51041e-06
-1.15935e-07
1.35613e-06
-1.4463e-06
-4.44647e-08
-4.54065e-08
-1.50343e-06
1.42509e-06
-1.43617e-06
1.3672e-06
-5.61939e-08
1.28527e-07
-1.45794e-06
1.37393e-06
-4.45132e-08
1.49146e-06
1.31538e-06
-1.4507e-06
1.31907e-06
1.49289e-06
-4.89841e-08
1.37579e-06
1.3465e-06
-1.31881e-06
-1.3342e-06
1.37459e-06
1.53236e-06
1.39783e-06
-1.39807e-06
-1.52923e-06
1.41513e-06
-1.38934e-06
-1.34186e-07
2.999e-08
2.31724e-08
-1.47657e-07
-1.35158e-06
1.40788e-06
1.38343e-06
-1.5172e-06
1.55886e-06
-1.44888e-06
1.50053e-06
1.50588e-06
-1.4616e-06
-1.43835e-06
-1.53509e-06
1.58602e-06
-5.04479e-08
-1.2193e-07
1.55581e-06
-1.2354e-07
-4.26464e-08
-1.51763e-06
-1.3618e-07
-1.44024e-06
-1.3814e-07
4.36639e-08
-1.3068e-07
1.53658e-06
-1.52192e-07
1.39302e-06
-1.55655e-06
-1.56485e-06
1.38791e-06
-1.33284e-07
9.6328e-07
-9.39064e-07
-2.55057e-07
2.3084e-07
-2.59608e-07
9.68343e-07
-9.37161e-07
2.28426e-07
-9.36093e-07
9.73529e-07
-2.61771e-07
2.24335e-07
2.31496e-07
9.66686e-07
-9.38381e-07
-2.59801e-07
1.19539e-06
7.06331e-07
-9.38443e-07
7.0726e-07
2.28525e-07
1.19809e-06
-2.60264e-07
9.69258e-07
9.71927e-07
-2.59372e-07
-9.40375e-07
2.2782e-07
-2.5716e-07
-9.45814e-07
9.73968e-07
2.29006e-07
-9.47761e-07
-2.58644e-07
9.76394e-07
2.30012e-07
2.32321e-07
-2.57416e-07
-9.46137e-07
9.71232e-07
1.20246e-06
7.13915e-07
-9.4445e-07
7.16795e-07
2.28506e-07
1.20514e-06
-2.58902e-07
9.74173e-07
9.80053e-07
-9.42668e-07
-2.64247e-07
2.26862e-07
-2.60009e-07
-9.5106e-07
9.79515e-07
2.31555e-07
-9.5632e-07
9.82802e-07
-2.60619e-07
2.34138e-07
2.3446e-07
-9.50843e-07
9.81138e-07
-2.64755e-07
1.21183e-06
7.17559e-07
-9.49341e-07
7.21644e-07
2.30181e-07
1.21557e-06
-2.63553e-07
9.80897e-07
9.69657e-07
2.33999e-07
-9.40568e-07
-2.63088e-07
-2.60596e-07
2.3465e-07
-9.46081e-07
9.72027e-07
-9.47807e-07
2.35365e-07
9.7847e-07
-2.66028e-07
2.37666e-07
-9.45751e-07
9.74679e-07
-2.66594e-07
1.20595e-06
7.08507e-07
-9.44798e-07
7.09891e-07
2.35461e-07
1.2113e-06
-2.65131e-07
9.73388e-07
7.09253e-07
1.19891e-06
-9.3982e-07
-9.39501e-07
1.20208e-06
7.10952e-07
1.19998e-06
7.07436e-07
-9.40728e-07
-9.69917e-07
1.20349e-06
7.1228e-07
-9.45854e-07
-2.61373e-07
-2.30593e-07
1.20122e-06
-2.31616e-07
-2.59855e-07
-9.40655e-07
7.08506e-07
7.11432e-07
2.28106e-07
2.32276e-07
7.13799e-07
-1.20559e-06
7.17699e-07
2.2925e-07
2.62454e-07
7.13405e-07
2.26219e-07
9.71843e-07
9.40809e-07
9.45216e-07
9.7594e-07
2.27323e-07
7.15563e-07
-2.3069e-07
1.20628e-06
-2.64635e-07
1.20415e-06
-2.62715e-07
-2.60501e-07
1.20743e-06
-7.12228e-07
1.21295e-06
-2.65354e-07
-9.41371e-07
9.75001e-07
-2.6432e-07
9.71286e-07
-9.46246e-07
1.20902e-06
9.77014e-07
-7.14747e-07
9.76852e-07
9.48689e-07
9.72542e-07
-1.21053e-06
9.77167e-07
-2.33816e-07
2.61489e-07
2.60455e-07
-2.33476e-07
9.75669e-07
1.29737e-07
1.04702e-06
-9.96375e-08
-1.07712e-06
-1.05067e-07
1.3015e-07
1.00589e-06
-1.03097e-06
1.03877e-06
1.58258e-07
-1.28312e-07
-1.06872e-06
-1.06143e-06
1.34032e-07
1.05846e-06
-1.31061e-07
-9.611e-07
1.72264e-08
1.07361e-06
2.72317e-08
-1.0934e-06
-9.18034e-07
-1.2617e-07
1.47968e-07
1.48839e-07
-1.0841e-07
9.7377e-07
-1.0142e-06
-1.16907e-07
1.04774e-06
-1.05985e-06
1.03694e-06
-1.14733e-07
-1.07987e-06
-1.06517e-06
-1.18873e-07
1.06382e-06
-9.5693e-07
2.44473e-08
1.08132e-06
2.39427e-08
-1.09778e-06
-9.23642e-07
-1.17081e-07
1.60588e-07
9.71199e-07
-1.23834e-07
-1.00795e-06
-1.22837e-07
9.86853e-07
-1.02807e-06
9.34041e-07
-1.17714e-07
-9.67514e-07
-9.71513e-07
9.53829e-07
-1.1728e-07
-8.44843e-07
3.09205e-08
9.7451e-07
3.49172e-08
-1.0026e-06
-8.23423e-07
-1.17169e-07
1.08286e-07
-9.95648e-07
1.01544e-06
-1.2808e-07
-1.14438e-07
-1.01263e-06
1.02271e-06
9.65662e-07
-9.66771e-07
-1.21482e-07
-9.55429e-07
9.71976e-07
-1.22837e-07
-8.82673e-07
-1.45058e-08
1.00546e-06
-3.56777e-09
-9.93542e-07
-8.46158e-07
-1.23776e-07
1.66361e-08
-9.43574e-07
1.05709e-06
1.04662e-06
-9.15128e-07
2.67665e-08
-9.29718e-07
-6.44418e-09
1.07019e-06
-1.23527e-07
-9.44039e-07
-4.00446e-09
1.07157e-06
-1.29222e-07
1.07263e-06
-9.26768e-07
1.06537e-06
-1.28563e-07
1.07766e-06
7.08535e-09
2.196e-08
-1.07394e-06
-1.08314e-06
2.02322e-08
9.32547e-07
4.03642e-08
-1.08764e-06
1.26704e-07
3.2656e-08
-1.07449e-06
1.43458e-07
-1.04827e-06
-1.05677e-06
1.553e-07
-1.07686e-06
3.10788e-08
1.00677e-06
-8.59301e-07
-1.20701e-07
-8.76121e-07
-1.25971e-07
-1.24547e-07
-8.92089e-07
-9.67048e-09
-8.36841e-07
-1.2026e-07
9.94505e-07
1.34094e-07
-1.21829e-07
1.25469e-07
9.9262e-07
-8.68196e-07
1.44554e-07
-1.36916e-08
-1.01e-06
8.75026e-07
9.98553e-07
1.20512e-07
1.16665e-07
1.02662e-06
9.43438e-07
4.86224e-07
-9.60082e-07
-4.6958e-07
-9.60745e-07
9.42349e-07
4.89665e-07
-4.7127e-07
4.87234e-07
9.42324e-07
-9.60087e-07
-4.69472e-07
-4.70017e-07
9.43022e-07
4.89056e-07
-9.62061e-07
4.72681e-07
-1.73003e-08
4.88057e-07
-1.7495e-08
-4.70569e-07
4.7297e-07
-9.60287e-07
9.42708e-07
9.43415e-07
-9.62814e-07
4.93588e-07
-4.74189e-07
-9.66236e-07
4.98422e-07
-4.78e-07
4.98191e-07
-9.63924e-07
-4.74642e-07
-4.75795e-07
-9.66364e-07
4.96021e-07
4.67934e-07
-2.05432e-08
4.96024e-07
-2.11043e-08
-4.77198e-07
4.67363e-07
-9.63701e-07
9.40939e-07
4.8866e-07
-9.60075e-07
-4.69524e-07
-9.61612e-07
4.95847e-07
-4.71397e-07
4.90403e-07
-9.59875e-07
-4.69591e-07
-4.69918e-07
4.93316e-07
-9.6178e-07
4.68833e-07
-2.04776e-08
4.92584e-07
-2.19289e-08
-4.7085e-07
4.69969e-07
-9.60365e-07
9.42978e-07
-4.69708e-07
4.92838e-07
-9.66108e-07
-9.68968e-07
-4.73133e-07
4.96021e-07
4.95121e-07
-4.69513e-07
-9.66176e-07
-4.69525e-07
4.97593e-07
-9.7382e-07
4.73088e-07
-2.49496e-08
4.9484e-07
-2.35189e-08
-4.72362e-07
4.73196e-07
-9.6767e-07
-1.93632e-08
4.69709e-07
4.92003e-07
4.90069e-07
4.70863e-07
-1.86077e-08
4.72388e-07
-2.05254e-08
4.9116e-07
-9.43975e-07
4.71166e-07
-2.14475e-08
4.94257e-07
-9.61642e-07
4.72359e-07
4.6992e-07
4.71135e-07
-9.63676e-07
4.9206e-07
-2.01539e-08
-1.96414e-08
-4.73463e-07
-4.74217e-07
-2.09808e-08
-4.66868e-07
-2.30866e-08
-4.7397e-07
9.60873e-07
-1.92656e-08
-4.70745e-07
9.42553e-07
-4.92275e-07
-4.95365e-07
9.39926e-07
-4.71327e-07
-2.23072e-08
4.69994e-07
4.7175e-07
-9.60351e-07
4.72236e-07
-9.6247e-07
-9.65411e-07
4.7083e-07
2.32044e-08
4.70221e-07
-9.62939e-07
4.91156e-07
9.4082e-07
-9.61982e-07
9.43238e-07
4.94536e-07
4.69489e-07
9.41144e-07
2.28098e-08
-4.96005e-07
-4.67059e-07
4.71641e-07
9.62086e-07
9.6394e-07
4.7272e-07
1.7928e-06
-3.65427e-07
-9.4115e-07
-4.87261e-07
1.79582e-06
-3.66431e-07
-9.42132e-07
-9.40943e-07
1.79688e-06
-3.66268e-07
-3.64712e-07
1.7961e-06
-9.42329e-07
1.42816e-06
1.30621e-06
-9.41565e-07
1.30701e-06
-3.66106e-07
1.42955e-06
1.79561e-06
1.79983e-06
-4.87219e-07
-3.68018e-07
-9.44596e-07
-4.86527e-07
1.80402e-06
-3.69917e-07
-9.47577e-07
-9.46117e-07
-4.88851e-07
1.80479e-06
-3.69822e-07
-3.67811e-07
-4.89282e-07
1.80584e-06
-9.48751e-07
1.43301e-06
1.3141e-06
-9.47272e-07
1.31559e-06
-3.69108e-07
1.43506e-06
-4.88772e-07
1.80453e-06
1.80248e-06
-9.40886e-07
-3.68004e-07
-4.91645e-07
-9.43878e-07
1.80556e-06
-3.70041e-07
-9.41693e-07
1.80985e-06
-3.69737e-07
-3.67845e-07
-9.44315e-07
1.80818e-06
1.43422e-06
1.30968e-06
-9.41424e-07
1.31222e-06
-3.69639e-07
1.43786e-06
1.80838e-06
1.80245e-06
-3.63203e-07
-9.46408e-07
-4.92847e-07
-3.65526e-07
1.8093e-06
-9.5093e-07
-9.48958e-07
-3.64634e-07
1.80961e-06
-3.61461e-07
1.81362e-06
-9.54567e-07
1.44178e-06
1.31163e-06
-9.50955e-07
1.31373e-06
-3.64807e-07
1.44501e-06
1.80978e-06
1.30942e-06
1.43038e-06
-9.43977e-07
-9.41335e-07
1.43107e-06
1.30714e-06
1.43306e-06
1.30764e-06
-9.44603e-07
-1.80072e-06
1.43639e-06
1.31252e-06
-9.48203e-07
-4.88949e-07
3.66069e-07
1.4323e-06
3.6533e-07
-4.89395e-07
-9.45252e-07
1.30899e-06
1.31064e-06
-3.67482e-07
-3.67386e-07
1.3145e-06
-1.43302e-06
1.31335e-06
-3.69174e-07
4.89874e-07
1.30879e-06
-3.67594e-07
1.80009e-06
9.42856e-07
9.43929e-07
1.80062e-06
-3.67887e-07
1.31152e-06
3.66272e-07
1.43287e-06
1.4356e-06
-4.92005e-07
1.439e-06
-1.30981e-06
1.43943e-06
-9.43397e-07
1.80173e-06
1.80119e-06
-9.44383e-07
1.43631e-06
1.80077e-06
-1.31222e-06
1.80734e-06
9.47369e-07
1.80613e-06
-1.43535e-06
1.80482e-06
3.67621e-07
4.9173e-07
4.91705e-07
3.67905e-07
1.80698e-06
-3.71491e-08
-1.15318e-06
-1.22117e-07
1.31245e-06
-1.08003e-06
-6.68638e-08
-1.31714e-07
1.27861e-06
-1.31062e-07
-6.74507e-08
-1.05682e-06
1.25533e-06
1.25533e-06
-2.53691e-08
-1.08412e-06
-1.45843e-07
1.224e-06
-1.13171e-06
-1.29438e-07
-1.11935e-06
1.26331e-06
1.20091e-06
-1.07729e-06
-4.94998e-08
-7.93181e-08
-9.9715e-07
-1.32012e-07
1.20848e-06
-9.43726e-07
-7.86907e-08
-1.25928e-07
1.14834e-06
-1.27441e-07
-9.35729e-07
-7.64616e-08
1.13963e-06
1.14303e-06
-9.52635e-07
-5.99916e-08
-1.304e-07
1.0797e-06
-1.0286e-06
-1.30418e-07
-1.01789e-06
1.15387e-06
1.07748e-06
-9.63053e-07
-6.7852e-08
-8.99479e-08
-1.26275e-07
-9.80686e-07
1.19691e-06
-9.37823e-07
-1.24342e-07
-8.21923e-08
1.14436e-06
-1.1378e-07
-9.46904e-07
-8.94311e-08
1.15011e-06
1.14252e-06
-1.24156e-07
-9.50868e-07
-6.74986e-08
1.06035e-06
-1.02775e-06
-1.2255e-07
-1.03493e-06
1.15746e-06
1.07083e-06
-9.56054e-07
-7.78795e-08
-1.89267e-08
1.15743e-06
-9.95504e-07
-1.43002e-07
-9.56864e-07
1.1303e-06
-3.44284e-08
-1.39008e-07
-1.29878e-07
1.12372e-06
-9.504e-07
-4.34377e-08
1.09978e-06
-9.40946e-07
-2.15941e-08
-1.3724e-07
1.09964e-06
-9.79898e-07
-1.38668e-07
-9.82073e-07
1.12485e-06
1.08446e-06
-9.64577e-07
-2.74917e-08
-1.05924e-06
1.14048e-06
-1.48106e-07
-1.3389e-07
1.12041e-06
-1.05397e-06
1.15909e-06
-1.04096e-06
-1.43493e-07
4.12896e-08
1.09926e-06
-1.00616e-06
-1.3439e-07
-9.9756e-07
-1.18717e-06
1.1255e-06
-1.18095e-06
-1.00618e-06
-1.39704e-07
-1.02804e-06
-1.0604e-06
1.20372e-06
1.14823e-06
-1.00161e-06
-1.06825e-06
-1.0168e-06
1.14932e-06
9.81836e-07
-1.06582e-06
1.20439e-06
-5.69773e-08
1.22078e-07
1.28203e-07
-7.80271e-08
1.18194e-06
-1.01807e-06
-1.17832e-06
1.12297e-06
-9.9862e-07
1.12383e-06
-1.00736e-06
-9.56723e-07
1.08087e-06
1.00259e-06
1.08354e-06
-9.62408e-07
-1.34633e-07
-5.23659e-08
-9.9132e-07
-3.88422e-08
-1.29284e-07
1.07951e-06
-6.91208e-08
1.01029e-06
-5.09141e-08
1.29625e-07
-5.03699e-08
-1.06883e-06
-7.23185e-08
-1.14223e-06
9.50557e-07
9.47571e-07
-1.13634e-06
-5.91439e-08
1.42493e-06
8.0948e-07
-5.21544e-07
-1.68796e-06
1.38364e-06
7.90724e-07
-4.86407e-07
-5.12061e-07
1.35775e-06
7.64791e-07
7.82024e-07
1.38566e-06
-5.18051e-07
2.22725e-06
-2.68252e-07
-5.34061e-07
-2.662e-07
8.05488e-07
2.16052e-06
1.38226e-06
1.36761e-06
-1.64783e-06
7.54654e-07
-4.74435e-07
-1.66004e-06
7.81749e-07
-5.17865e-07
1.39615e-06
-5.14127e-07
-1.63208e-06
7.74558e-07
1.37165e-06
7.85221e-07
-1.6362e-06
-5.08726e-07
1.35971e-06
2.15862e-06
-2.75507e-07
-5.15502e-07
-2.76273e-07
7.74852e-07
2.1644e-06
-1.65469e-06
1.374e-06
1.2909e-06
-4.88093e-07
7.31044e-07
-1.54285e-06
-4.89023e-07
7.35638e-07
1.29624e-06
-4.7132e-07
7.11636e-07
1.24487e-06
7.15926e-07
-4.71132e-07
1.24638e-06
2.02895e-06
-2.45949e-07
-4.92101e-07
-2.45535e-07
7.3163e-07
1.9616e-06
1.24474e-06
1.30657e-06
7.54932e-07
-5.01208e-07
-1.55177e-06
7.47608e-07
-4.86299e-07
1.29046e-06
-4.71427e-07
7.19494e-07
1.25128e-06
7.23915e-07
-4.7286e-07
1.25481e-06
2.0492e-06
-2.54294e-07
-4.88337e-07
-2.53101e-07
7.50524e-07
1.98003e-06
1.2555e-06
-2.69552e-07
2.17135e-06
-5.1816e-07
-5.14492e-07
2.12642e-06
-2.54175e-07
2.16846e-06
-2.63434e-07
-5.19367e-07
-1.37953e-06
2.15749e-06
-2.67852e-07
-5.10104e-07
-1.65181e-06
-7.84943e-07
2.1672e-06
-7.84039e-07
-1.64707e-06
-5.17405e-07
-2.62642e-07
-2.69993e-07
7.93517e-07
7.8467e-07
-2.63386e-07
-2.13746e-06
-2.5737e-07
7.62744e-07
1.61527e-06
-2.53946e-07
7.6509e-07
1.38625e-06
5.10954e-07
5.16233e-07
1.36226e-06
7.63971e-07
-2.58967e-07
-7.45585e-07
2.05027e-06
2.07752e-06
-1.57566e-06
2.05542e-06
2.50004e-07
1.97002e-06
-4.95371e-07
1.3056e-06
1.31951e-06
-4.94371e-07
2.04997e-06
1.30823e-06
2.49541e-07
1.24935e-06
4.86627e-07
1.30541e-06
-2.04883e-06
1.30243e-06
-7.47923e-07
1.56405e-06
1.55159e-06
-7.43744e-07
1.29447e-06
-4.05835e-08
-2.4672e-07
-2.46467e-07
-4.08412e-08
9.60294e-07
-4.07504e-08
-2.46765e-07
-6.73533e-07
-4.22272e-08
-2.46301e-07
-7.13546e-07
-2.87324e-07
-2.87235e-07
-7.14245e-07
-2.46612e-07
-4.11852e-08
-4.11441e-08
-2.46153e-07
-2.46078e-07
-4.10191e-08
9.60349e-07
-2.4662e-07
-4.095e-08
-6.73284e-07
-2.44831e-07
-4.36648e-08
-7.14064e-07
-2.87445e-07
-2.87363e-07
-7.15141e-07
-2.45588e-07
-4.21557e-08
-4.08566e-08
9.60479e-07
-2.46844e-07
-2.46889e-07
9.60456e-07
-4.07881e-08
9.60638e-07
-4.07755e-08
-2.47084e-07
-6.73082e-07
9.62929e-07
-4.32384e-08
-2.46609e-07
-7.13687e-07
-2.87833e-07
9.60663e-07
-2.87797e-07
-7.14533e-07
-2.46382e-07
-4.16915e-08
-4.44431e-08
-6.74896e-07
-2.46769e-07
-2.45659e-07
-6.74826e-07
-4.5691e-08
9.67493e-07
-6.7472e-07
-4.58452e-08
-2.46928e-07
-6.78046e-07
-4.72346e-08
-2.48539e-07
-7.20113e-07
-2.92e-07
-2.91121e-07
-6.74652e-07
-7.22702e-07
-2.47344e-07
-4.63296e-08
-2.87398e-07
-7.13795e-07
9.60589e-07
-7.13729e-07
-2.87611e-07
-7.16025e-07
-2.88671e-07
4.29716e-08
-7.16823e-07
-2.89088e-07
-2.46192e-07
6.7354e-07
-7.14746e-07
6.73212e-07
-2.45471e-07
-2.88284e-07
-2.87169e-07
-6.73256e-07
-2.88398e-07
7.13757e-07
-2.87598e-07
2.46633e-07
-2.87583e-07
-4.16182e-08
-9.60296e-07
-9.60462e-07
-4.08848e-08
-2.8759e-07
6.73211e-07
-7.14413e-07
-2.46409e-07
-7.17146e-07
-2.46422e-07
-2.45549e-07
-7.18365e-07
2.89601e-07
-7.18026e-07
-2.46296e-07
9.62196e-07
-4.26184e-08
-2.46367e-07
-4.32334e-08
9.63434e-07
-7.16451e-07
-4.15174e-08
2.89226e-07
-4.43223e-08
-9.62361e-07
-4.44011e-08
7.14746e-07
-4.18887e-08
6.73175e-07
2.45971e-07
2.4595e-07
6.73127e-07
-4.32845e-08
1.12145e-06
-7.84321e-07
4.72356e-07
4.61505e-07
1.0467e-06
-7.43412e-07
-7.71581e-07
1.08607e-06
4.76235e-07
-8.07655e-07
1.06821e-06
-7.46189e-07
4.85636e-07
3.09428e-07
1.58899e-06
-7.76975e-07
1.57642e-06
2.91131e-07
4.90209e-07
1.09597e-06
9.86112e-07
4.39839e-07
-6.94907e-07
4.25416e-07
9.44541e-07
-6.58322e-07
-6.76324e-07
4.41712e-07
9.7025e-07
-7.30672e-07
4.36119e-07
9.61519e-07
-6.66967e-07
2.46166e-07
1.41315e-06
-6.73208e-07
1.40321e-06
2.40247e-07
4.42234e-07
9.67135e-07
1.03882e-06
-7.53489e-07
4.69319e-07
4.68975e-07
-7.0848e-07
1.01406e-06
-7.34821e-07
1.02679e-06
4.89776e-07
-7.82931e-07
-7.35714e-07
1.02207e-06
4.9658e-07
2.59456e-07
1.53328e-06
-7.53911e-07
1.50328e-06
2.46785e-07
5.03563e-07
1.01525e-06
1.012e-06
-7.73458e-07
-7.08519e-07
4.69979e-07
4.46443e-07
-7.42257e-07
9.77154e-07
-6.8134e-07
-7.10029e-07
-7.88294e-07
1.02184e-06
4.76482e-07
-7.53024e-07
9.86813e-07
-6.87713e-07
4.53924e-07
2.52888e-07
1.46557e-06
-7.06459e-07
1.45534e-06
-7.56004e-07
2.46405e-07
4.66142e-07
9.91712e-07
1.48569e-06
2.76183e-07
-7.15172e-07
-7.74923e-07
2.9004e-07
1.57095e-06
2.87311e-07
1.53071e-06
-7.49814e-07
-1.00644e-06
2.55247e-07
1.44094e-06
-6.8974e-07
4.64983e-07
7.47932e-07
2.72774e-07
7.86032e-07
4.53045e-07
-7.11556e-07
1.52639e-06
1.48111e-06
-7.46227e-07
1.43759e-06
-2.61685e-07
1.46614e-06
-4.62752e-07
1.54631e-06
1.0254e-06
7.28488e-07
7.21407e-07
1.02971e-06
1.48943e-06
8.02134e-07
2.67698e-07
5.01121e-07
2.68104e-07
4.89152e-07
4.51542e-07
2.47138e-07
-1.54069e-06
2.54842e-07
4.97551e-07
-7.49283e-07
1.06047e-06
4.90947e-07
1.04521e-06
-7.40747e-07
2.60533e-07
1.06052e-06
-1.50895e-06
1.02808e-06
6.97063e-07
9.87668e-07
-2.50908e-07
1.00857e-06
7.81971e-07
-4.75363e-07
-4.66446e-07
7.63159e-07
9.93775e-07
7.27125e-07
9.71938e-07
1.10789e-07
9.7278e-07
7.22147e-07
1.10637e-07
-1.81182e-06
7.26106e-07
9.74926e-07
1.10788e-07
1.12097e-07
7.2374e-07
9.72344e-07
8.37287e-07
1.69822e-06
1.69868e-06
1.11386e-07
8.37804e-07
9.72512e-07
7.24666e-07
7.19796e-07
9.74225e-07
1.10768e-07
9.75607e-07
1.10659e-07
7.17754e-07
-1.80772e-06
9.76502e-07
1.10269e-07
7.20944e-07
1.12832e-07
9.74732e-07
7.1828e-07
8.30833e-07
1.69349e-06
1.69637e-06
1.10072e-07
8.32003e-07
9.74321e-07
7.20656e-07
7.2486e-07
-1.81196e-06
9.76792e-07
1.10306e-07
9.77451e-07
-1.81097e-06
1.09805e-07
7.23712e-07
-1.81225e-06
9.77733e-07
1.09767e-07
7.24753e-07
1.10603e-07
-1.81306e-06
9.77927e-07
7.24533e-07
8.34699e-07
1.7022e-06
-1.81204e-06
1.70198e-06
1.1017e-07
8.3508e-07
9.77725e-07
7.24806e-07
7.21897e-07
1.15045e-07
9.72671e-07
9.74705e-07
1.15654e-07
7.18945e-07
-1.81463e-06
1.13699e-07
9.77134e-07
7.23795e-07
1.18393e-07
9.74672e-07
7.20556e-07
8.37841e-07
1.69384e-06
1.69762e-06
1.14922e-07
8.39018e-07
9.73214e-07
7.22014e-07
1.69373e-06
8.33235e-07
-1.80982e-06
8.35784e-07
1.70014e-06
8.36383e-07
1.69469e-06
-7.20501e-07
8.33644e-07
1.69299e-06
9.72545e-07
-1.13021e-07
8.34205e-07
-1.12606e-07
9.73456e-07
1.69723e-06
1.69661e-06
1.10849e-07
1.12193e-07
1.69618e-06
-8.3334e-07
1.69986e-06
1.09985e-07
-9.75299e-07
1.70026e-06
1.10827e-07
7.21973e-07
1.80884e-06
1.80849e-06
7.22743e-07
1.10801e-07
1.69789e-06
-1.11463e-07
8.36057e-07
9.75544e-07
8.3703e-07
9.72707e-07
9.73692e-07
8.34951e-07
-1.69986e-06
8.36747e-07
9.76816e-07
-1.81154e-06
7.24565e-07
9.75509e-07
7.22726e-07
-1.81134e-06
8.36042e-07
7.24355e-07
-1.70017e-06
7.23856e-07
1.80981e-06
7.21327e-07
-8.34285e-07
7.23174e-07
-1.11523e-07
-9.76162e-07
-9.75652e-07
-1.12557e-07
7.21598e-07
1.13781e-06
-2.05805e-06
1.06814e-07
8.13425e-07
-1.97364e-06
1.10932e-06
7.76749e-08
7.86648e-07
7.85597e-07
1.16411e-06
-1.98606e-06
3.63568e-08
5.56687e-08
1.19783e-06
-2.06117e-06
8.07669e-07
1.20145e-06
-8.65098e-07
8.01457e-07
-8.58089e-07
8.59035e-08
1.23066e-06
-2.04009e-06
1.15817e-06
1.09909e-06
-1.93905e-06
6.71385e-08
7.72823e-07
-1.89784e-06
6.22745e-08
1.08466e-06
7.50902e-07
7.4157e-07
-1.88016e-06
5.61036e-08
1.08248e-06
5.40316e-08
-1.9238e-06
1.11435e-06
7.55417e-07
1.15173e-06
-8.20896e-07
7.68257e-07
-8.05221e-07
5.91173e-08
1.15474e-06
-1.9216e-06
1.09109e-06
1.13247e-06
7.46153e-07
-1.90413e-06
2.55094e-08
-1.86136e-06
7.33603e-07
3.38441e-08
1.09392e-06
7.14245e-07
-1.81818e-06
1.19485e-08
1.09198e-06
1.09042e-08
7.17085e-07
-1.84812e-06
1.12013e-06
1.14877e-06
-7.52382e-07
7.36079e-07
-7.47369e-07
3.47803e-08
1.1295e-06
-1.87097e-06
1.09637e-06
1.17958e-06
3.74652e-08
-1.97279e-06
7.55743e-07
-1.92096e-06
3.83136e-08
1.13875e-06
7.43899e-07
7.18504e-07
1.31487e-08
-1.86323e-06
1.13158e-06
1.01585e-08
-1.89622e-06
1.17512e-06
7.10946e-07
1.1973e-06
-7.56221e-07
7.38503e-07
-7.55623e-07
3.19651e-08
1.16669e-06
-1.91275e-06
1.12957e-06
-8.50006e-07
1.17216e-06
7.87157e-07
7.71051e-07
1.19088e-06
-7.97823e-07
1.23459e-06
-8.19007e-07
7.8225e-07
-1.15114e-06
1.18463e-06
-7.96542e-07
7.63048e-07
-1.98365e-06
-5.7039e-08
1.19069e-06
-5.44289e-08
-1.99276e-06
7.84587e-07
-8.12601e-07
-8.37056e-07
7.01656e-08
4.75579e-08
-7.86729e-07
-1.15257e-06
-7.83508e-07
5.5918e-08
1.93376e-06
-7.92395e-07
4.95199e-08
1.11984e-06
-7.6621e-07
-7.54203e-07
1.11536e-06
5.21845e-08
-7.91407e-07
-2.58751e-08
1.17747e-06
-1.94942e-06
1.21123e-06
-1.99277e-06
-1.91805e-06
1.15982e-06
7.50092e-07
1.14209e-06
-1.87903e-06
7.5109e-07
1.14851e-06
-1.92547e-06
1.14971e-06
7.36368e-07
1.16223e-06
1.13123e-06
7.45059e-07
1.11411e-06
-7.32489e-07
1.10558e-06
-1.14003e-06
1.09013e-06
-3.04494e-08
1.89776e-06
1.87684e-06
-3.36835e-08
1.11067e-06
2.91029e-08
7.63978e-08
-1.25868e-06
-1.1888e-06
1.23306e-09
1.30754e-07
1.05962e-06
3.30799e-08
1.07915e-07
-1.20061e-06
9.6515e-08
4.3733e-08
-1.22437e-06
1.25878e-07
-1.17407e-06
-1.17047e-06
1.07545e-07
1.33355e-07
-1.21091e-06
2.24997e-08
-2.60841e-08
-1.10603e-06
1.51431e-07
-1.05762e-06
1.40556e-07
-2.98361e-08
9.57277e-07
-1.07057e-06
1.22034e-07
-8.73671e-09
1.24148e-07
-1.06939e-06
-5.62694e-09
1.10676e-07
-1.09281e-06
-1.08356e-06
1.36612e-07
1.11973e-07
-1.08064e-06
-1.43104e-08
3.22273e-08
9.92282e-07
9.76488e-08
-1.12216e-06
-1.07249e-06
9.59883e-07
1.00292e-07
1.23139e-08
9.55681e-07
8.38061e-08
2.64891e-08
-1.06598e-06
8.54754e-08
9.51711e-07
2.86328e-08
-1.06582e-06
1.16723e-07
-1.0499e-06
9.65409e-07
-1.05025e-06
9.44811e-08
1.14485e-07
-1.07891e-06
1.992e-08
4.81328e-08
8.83757e-08
-1.13201e-06
-1.0757e-06
1.06794e-07
1.85062e-08
9.48239e-07
8.88996e-08
3.17602e-08
-1.0689e-06
8.89858e-08
4.0227e-08
-1.07016e-06
1.26143e-07
-1.04259e-06
-1.04567e-06
9.6116e-08
1.23032e-07
-1.07663e-06
2.55973e-08
-1.12475e-06
1.2736e-07
1.00159e-06
1.30295e-07
-1.0988e-06
1.29506e-07
-1.09314e-06
-7.85645e-09
1.18323e-07
-1.07287e-06
-1.12847e-06
-1.23785e-07
1.2751e-07
-1.04386e-07
-1.12296e-06
-1.09784e-06
-1.11903e-06
1.40357e-07
1.17659e-07
-1.06873e-06
-1.13601e-07
-1.0708e-06
1.13826e-07
1.11567e-06
-1.09894e-06
1.13566e-07
-2.8771e-09
-9.88644e-07
-9.65857e-07
4.79408e-09
1.22229e-07
-1.07466e-06
-9.68564e-08
1.28927e-07
-1.13087e-06
1.30973e-07
-1.13573e-06
-1.08487e-06
1.1879e-07
1.04751e-06
1.19587e-07
-1.0782e-06
9.92516e-07
3.63803e-08
-1.12575e-06
2.56478e-08
9.63107e-07
1.20783e-07
2.22716e-08
1.04977e-06
2.15295e-08
-9.5675e-07
6.8152e-09
-1.14065e-07
3.14787e-09
-9.63939e-08
1.08407e-06
1.07416e-06
-1.04655e-07
1.2752e-08
-9.84754e-07
1.08822e-06
8.7934e-07
1.08317e-06
-9.78299e-07
8.74647e-07
-9.76341e-07
-9.82814e-07
1.08315e-06
8.76006e-07
8.78202e-07
-9.78343e-07
1.08128e-06
-1.05253e-07
1.01396e-07
1.02023e-07
8.75891e-07
-1.05322e-07
1.08492e-06
-9.7964e-07
-9.74323e-07
1.07973e-06
8.70989e-07
1.0771e-06
8.68807e-07
-9.71628e-07
1.07764e-06
8.6891e-07
8.69377e-07
1.0742e-06
-1.03691e-07
1.03541e-07
1.03722e-07
8.69687e-07
-1.04606e-07
1.07752e-06
-9.79324e-07
-9.71162e-07
1.07899e-06
8.71493e-07
1.07689e-06
-9.69883e-07
8.6978e-07
-9.68846e-07
1.07632e-06
8.7026e-07
8.71731e-07
-9.71077e-07
1.07727e-06
-1.0746e-07
9.89738e-08
-9.70838e-07
9.85914e-08
8.70843e-07
-1.0747e-07
1.07817e-06
-9.74772e-07
8.76713e-07
1.07653e-06
1.07246e-06
8.72242e-07
-9.72942e-07
8.74098e-07
1.07598e-06
8.7709e-07
1.07226e-06
-9.9965e-08
9.85804e-08
9.97707e-08
8.7272e-07
-1.00043e-07
1.07571e-06
1.02886e-07
-1.04019e-07
-9.75515e-07
-1.0736e-07
1.00061e-07
-1.02135e-07
1.00644e-07
9.7498e-07
-1.03287e-07
1.00848e-07
1.08115e-06
-8.73279e-07
-1.04989e-07
-8.74e-07
1.07737e-06
1.01234e-07
1.03745e-07
8.71963e-07
8.69805e-07
1.01108e-07
1.06421e-07
1.00588e-07
8.70635e-07
-1.08034e-06
9.98038e-08
8.73176e-07
-9.75045e-07
9.73801e-07
9.72284e-07
-9.77888e-07
8.71348e-07
1.00817e-07
-8.7457e-07
-1.06863e-07
1.08149e-06
-1.02394e-07
1.07975e-06
1.07627e-06
-1.03178e-07
-9.92279e-08
-1.048e-07
1.07813e-06
-9.74599e-07
-9.79093e-07
1.07912e-06
-9.75759e-07
-9.7323e-07
-1.05092e-07
-9.78221e-07
-9.90612e-08
9.70637e-07
1.06249e-07
-8.71592e-07
-1.07747e-06
-1.07574e-06
-8.70401e-07
5.262e-07
4.66338e-07
5.07432e-07
-9.88567e-07
5.0216e-07
3.30675e-09
5.42466e-07
4.9724e-07
1.11028e-06
9.63578e-07
5.79526e-07
5.54537e-07
5.2462e-07
4.81267e-07
5.13047e-07
5.33972e-07
-1.04294e-06
5.21021e-07
5.2192e-07
3.64748e-09
5.25765e-07
5.29046e-07
5.17031e-07
1.0812e-06
1.03008e-06
5.51407e-07
5.33439e-07
5.38543e-07
4.98279e-07
-9.72714e-07
5.30853e-07
-1.07067e-06
5.39821e-07
-1.11026e-06
5.92389e-07
3.74401e-08
-1.10008e-06
5.53916e-07
5.71175e-07
1.06631e-06
-1.1392e-06
1.10203e-06
5.88243e-07
5.80015e-07
5.12541e-07
8.9656e-09
4.93717e-07
1.38261e-08
5.07899e-07
-1.01533e-06
1.43442e-08
5.14692e-07
1.10837e-08
4.88032e-07
5.20484e-07
9.97521e-07
1.00218e-06
1.20162e-08
5.20267e-07
5.07118e-07
1.07061e-06
4.93913e-07
-1.09032e-06
4.97402e-07
1.09508e-06
5.45563e-07
1.06847e-06
-5.46816e-07
5.50295e-07
1.06672e-06
5.38126e-07
-5.67216e-09
5.38153e-07
2.34091e-09
5.25173e-07
1.07308e-06
9.7518e-07
1.35635e-08
1.0625e-06
-5.31284e-07
1.0523e-06
-4.64873e-07
9.62275e-07
5.4275e-07
9.70582e-07
1.08975e-06
5.05709e-07
1.06418e-06
-1.63226e-08
5.9324e-07
5.58073e-07
5.2344e-07
5.57102e-07
-1.05859e-06
5.62832e-07
-1.09753e-06
5.63803e-07
5.3362e-07
-1.06908e-06
5.74287e-07
5.82801e-07
-1.07679e-06
5.39539e-07
1.08285e-06
5.36744e-07
-5.55156e-07
5.36786e-07
-3.01521e-08
-5.2625e-07
-5.32655e-07
-1.72283e-08
5.32971e-07
-7.56712e-07
-7.468e-07
1.50351e-06
1.49957e-06
-7.54693e-07
-7.44879e-07
-7.30075e-07
-7.56815e-07
1.48689e-06
-1.16061e-08
-7.30707e-07
-7.1492e-07
1.45723e-06
-7.60689e-07
7.5502e-07
-7.51043e-07
7.38883e-07
-7.78291e-07
1.52171e-06
-7.69484e-07
-7.48215e-07
1.48442e-06
-7.36207e-07
1.48024e-06
-7.07535e-07
-7.72702e-07
-7.17523e-07
1.48802e-06
-7.70494e-07
-2.09165e-08
1.46815e-06
-6.97854e-07
-7.49379e-07
-7.62502e-07
7.28987e-07
-7.147e-07
7.17734e-07
-8.05154e-07
1.51322e-06
-8.04943e-07
-7.7443e-07
-7.2329e-07
1.49772e-06
1.49701e-06
-7.21553e-07
-7.75453e-07
-7.19125e-07
-8.04258e-07
1.52338e-06
-9.58269e-09
-7.07186e-07
-7.77117e-07
1.49389e-06
-7.77241e-07
7.31112e-07
-7.28301e-07
7.19765e-07
-8.06787e-07
1.52832e-06
-8.06147e-07
-6.93335e-07
-1.20593e-08
-6.6917e-07
1.37456e-06
1.37803e-06
-1.79817e-08
-6.71052e-07
-6.89001e-07
-6.73171e-07
-1.23588e-08
-7.10018e-07
1.39555e-06
-1.2189e-08
-6.49962e-07
-6.79824e-07
1.34198e-06
-7.09739e-07
6.75727e-07
-6.59323e-07
6.88863e-07
-2.05678e-08
-7.10597e-07
1.37413e-06
-6.94905e-07
7.48632e-07
-7.57956e-07
-7.45369e-07
-7.32717e-07
-7.58109e-07
7.34011e-07
-7.48398e-07
7.14968e-07
-6.97277e-07
7.25975e-07
-7.61476e-07
7.11165e-07
-6.75665e-07
1.51401e-06
1.51896e-08
-7.80566e-07
1.18069e-08
1.46151e-06
-7.20344e-07
7.24918e-07
7.26466e-07
-1.79915e-08
7.24665e-07
7.66415e-07
7.21602e-07
-1.47901e-06
7.20899e-07
-7.74237e-07
7.20136e-07
7.20996e-07
-7.58871e-07
7.2854e-07
9.37293e-09
-7.88106e-07
1.51274e-06
-7.54217e-07
1.45713e-06
1.45913e-06
-7.6595e-07
-7.20489e-07
-7.74405e-07
1.48254e-06
-7.09702e-07
-7.5761e-07
1.47669e-06
-7.39001e-07
-6.99565e-07
-7.78535e-07
-7.90498e-07
-7.20958e-07
-7.60633e-07
7.05715e-07
-7.47e-07
8.19715e-07
-8.19666e-07
1.37245e-08
-1.53252e-06
-1.48577e-06
1.57313e-08
-7.64322e-07
7.31828e-07
-3.61014e-07
-2.44208e-08
-3.46394e-07
-2.54744e-08
7.33747e-07
-3.57046e-07
-3.51227e-07
-3.52504e-07
7.38114e-07
-3.59212e-07
-2.63978e-08
-3.54378e-07
7.35949e-07
-2.8894e-08
-3.52677e-07
3.7552e-07
7.06335e-07
-3.50026e-07
7.08029e-07
-3.57983e-07
3.78735e-07
-2.67788e-08
7.3426e-07
7.35613e-07
-2.41936e-08
-3.56865e-07
-3.54554e-07
-2.19258e-08
-3.59608e-07
7.38926e-07
-3.57392e-07
-3.5562e-07
-2.45589e-08
-3.63346e-07
7.43525e-07
-3.58946e-07
-2.44605e-08
7.42335e-07
-3.58928e-07
3.79194e-07
7.14616e-07
-3.58197e-07
7.16751e-07
-3.59482e-07
3.79315e-07
-2.3645e-08
7.40446e-07
7.47244e-07
-3.53868e-07
-3.65347e-07
-2.80292e-08
-2.61503e-08
-3.54346e-07
-3.66833e-07
7.47329e-07
-3.52381e-07
-3.73105e-07
-2.78105e-08
7.53297e-07
-3.68823e-07
-3.58912e-07
-2.76787e-08
7.55414e-07
3.81793e-07
7.21071e-07
-3.55619e-07
7.217e-07
-3.66057e-07
3.80768e-07
-2.85205e-08
7.50086e-07
7.41977e-07
-3.50454e-07
-3.22811e-08
-3.59243e-07
-2.88111e-08
-3.56485e-07
7.46708e-07
-3.61412e-07
-3.65892e-07
-3.60927e-07
-2.90713e-08
7.55891e-07
-3.51126e-07
-3.37573e-08
7.54653e-07
-3.6977e-07
3.94229e-07
7.14676e-07
-3.66928e-07
7.18576e-07
-3.53158e-07
3.96244e-07
-3.26944e-08
7.48928e-07
7.10313e-07
3.77991e-07
-3.54557e-07
-3.55186e-07
3.81158e-07
7.12142e-07
3.84182e-07
7.08997e-07
-3.5723e-07
-7.38366e-07
3.84807e-07
7.14762e-07
-3.61203e-07
-2.53718e-08
3.552e-07
3.80484e-07
3.53702e-07
-2.73797e-08
-3.55786e-07
7.10504e-07
7.11812e-07
-3.58015e-07
-3.567e-07
7.17047e-07
-3.80525e-07
7.18496e-07
-3.6253e-07
2.61662e-08
7.135e-07
-3.58509e-07
7.37588e-07
3.54708e-07
3.57243e-07
7.40347e-07
-3.59472e-07
7.17065e-07
3.58401e-07
3.82534e-07
-2.87922e-08
3.88619e-07
-3.00753e-08
-2.71426e-08
3.8542e-07
-7.19013e-07
3.8803e-07
-2.9944e-08
-3.58106e-07
7.45659e-07
-2.91525e-08
7.41018e-07
-3.60717e-07
3.87364e-07
7.42166e-07
-7.21202e-07
7.5032e-07
3.58534e-07
7.43932e-07
-3.80519e-07
7.44669e-07
3.61078e-07
2.54682e-08
2.72399e-08
3.62014e-07
7.47788e-07
1.36384e-06
8.25566e-07
-9.37754e-07
1.36648e-06
8.17646e-07
8.45798e-07
1.42069e-06
-1.26844e-06
1.39168e-06
8.38281e-07
1.21581e-07
4.24874e-07
8.17385e-07
4.28569e-07
1.23569e-07
1.39794e-06
1.37602e-06
-9.40838e-07
8.16107e-07
-9.42278e-07
1.38074e-06
8.16347e-07
8.39479e-07
-9.79452e-07
1.43044e-06
-1.26855e-06
-9.56344e-07
1.3966e-06
8.28293e-07
1.28507e-07
4.37486e-07
8.10024e-07
4.4173e-07