/*--------------------------------*- C++ -*----------------------------------*\
| =========                 |                                                 |
| \\      /  F ield         | OpenFOAM: The Open Source CFD Toolbox           |
|  \\    /   O peration     | Version:  2506                                  |
|   \\  /    A nd           | Website:  www.openfoam.com                      |
|    \\/     M anipulation  |                                                 |
\*---------------------------------------------------------------------------*/
FoamFile
{
    version     2.0;
    format      ascii;
    arch        "LSB;label=32;scalar=64";
    class       volVectorField;
    location    "300";
    object      U;
}
// * * * * * * * * * * * * * * * * * * * * * * * * * * * * * * * * * * * * * //

dimensions      [0 1 -1 0 0 0 0];

internalField   nonuniform List<vector> 
46720
(
(-0.00564103 -0.0833136 1.54896)
(0.0104973 -0.0915725 1.46967)
(0.036772 -0.0835133 1.66419)
(0.00390039 -0.0695742 1.31402)
(-0.00146419 -0.0796761 1.50285)
(0.0179105 -0.114283 1.60892)
(0.000953132 -0.0868114 1.45814)
(0.000358697 -0.114177 1.55282)
(0.0158075 -0.0456918 1.1881)
(0.0291143 -0.0180763 1.12964)
(0.00403166 -0.0613048 1.18643)
(0.0147906 -0.0130261 1.10397)
(0.019647 -0.0163198 1.11463)
(0.00532328 -0.0255448 1.17314)
(0.0326906 -0.0303685 1.12213)
(0.0100618 -0.0278313 1.13133)
(0.033723 -0.164354 1.64058)
(0.0308736 -0.192308 1.39122)
(0.10883 -0.241277 1.74711)
(0.0435492 -0.330939 1.38656)
(0.0297918 -0.217592 1.60284)
(0.0378913 -0.0777908 1.60039)
(0.0361248 -0.304801 1.58836)
(0.0591233 -0.187958 1.56419)
(-0.00315688 -0.0255942 1.12128)
(0.0144834 -0.0165865 1.08873)
(0.000761547 -0.106709 1.1691)
(0.0105162 -0.000444697 1.09641)
(0.0188112 -0.054691 1.13739)
(0.00907172 -0.074936 1.13719)
(0.0174607 -0.0519631 1.13011)
(0.00834054 -0.062863 1.11324)
(-0.00495642 -0.0806052 1.29661)
(0.0059621 -0.143865 1.58083)
(0.00527767 -0.0885845 1.31241)
(-0.000177981 -0.0641884 1.14288)
(0.0085647 -0.129205 1.38907)
(-0.010409 -0.153664 1.4626)
(-0.011305 -0.0517669 1.10825)
(0.00786276 -0.13539 1.27815)
(0.04388 -0.0480734 1.29174)
(0.0180974 -0.0327291 1.16031)
(0.00828196 -0.0337582 1.21102)
(0.0369581 -0.155926 1.5736)
(0.0139669 -0.079063 1.28653)
(0.0376888 -0.0328202 1.09173)
(0.0295562 -0.120357 1.53413)
(0.0221024 -0.0739052 1.26551)
(0.0096927 -0.11949 1.56739)
(0.0199036 -0.0779435 1.31671)
(0.00114275 -0.119505 1.11009)
(0.0758795 -0.154875 1.34037)
(0.0331524 -0.122297 1.42819)
(-0.00359685 -0.106607 1.30672)
(-0.0258469 -0.141489 1.31275)
(-0.018747 -0.146139 1.15999)
(0.031105 -0.174844 1.58642)
(0.0152543 -0.158542 1.26236)
(0.026702 -0.0579966 1.10902)
(0.0127619 -0.043627 1.19688)
(0.0441213 -0.201082 1.50609)
(-0.0478272 -0.147466 1.28665)
(0.0453913 -0.122463 1.36433)
(0.0606644 -0.122642 1.1677)
(0.00394688 -0.0372869 1.52426)
(0.000796024 -0.012279 1.55203)
(0.0158447 -0.0869281 1.39253)
(0.0267929 -0.0655162 1.33943)
(0.00842084 -0.00987875 1.52185)
(0.0207482 -0.0213207 1.54476)
(0.0136289 -0.0635843 1.4804)
(-0.0171052 -0.0304962 1.49617)
(-0.0161567 0.0245547 1.54086)
(-0.0164612 0.0727609 1.51725)
(0.013265 0.0153988 1.43409)
(0.0164809 0.000411144 1.41931)
(-0.0271235 0.033757 1.52424)
(0.00329495 0.0736297 1.54668)
(0.00554427 0.00702032 1.49004)
(0.00589162 0.00730218 1.46134)
(0.018723 -0.0330468 1.14961)
(0.0264927 -0.0142936 1.18845)
(0.0243662 -0.0166151 1.12765)
(0.0207109 -0.0111076 1.09942)
(0.0248732 -0.026107 1.1431)
(0.012136 -0.0359186 1.14677)
(0.0264261 0.00736878 1.09396)
(0.00940533 0.0255101 1.11142)
(0.0349392 -0.0538251 1.1317)
(0.0159104 -0.0423011 1.18514)
(0.0194195 -0.0323545 1.10468)
(0.0284345 -0.0186153 1.10125)
(0.0265781 -0.0417499 1.15363)
(0.0177233 -0.0409257 1.14832)
(0.0223702 -0.0387415 1.12307)
(-0.0044388 -0.0064641 1.12659)
(0.00247762 -0.00449556 1.56616)
(0.0104755 -0.0751467 1.40549)
(0.0272157 -0.03988 1.34886)
(0.0126518 -0.00473259 1.39195)
(-0.0077633 -0.0195407 1.49917)
(-0.012159 -0.0443886 1.45816)
(0.0172267 -0.0279903 1.38524)
(0.0162982 -0.0219358 1.36011)
(0.00129108 0.0174217 1.55968)
(0.00696389 -0.00679877 1.38879)
(-0.0345379 -0.0370959 1.36574)
(-0.00397985 -0.0739588 1.39019)
(-0.00589881 -0.0129115 1.47574)
(0.00751262 -0.0194647 1.46218)
(0.0149031 -0.0397583 1.40499)
(0.00799461 -0.0124035 1.43451)
(0.0223131 -0.0546567 1.2498)
(0.0216063 -0.0387608 1.28131)
(-0.0155096 -0.0134543 1.29861)
(0.000905976 -0.0522511 1.12941)
(0.0290919 -0.0693897 1.1484)
(-0.0277595 -0.0218285 1.31923)
(0.0113363 -0.0302255 1.12906)
(-0.0146723 -0.0319122 1.24219)
(-0.013093 -0.0345778 1.32168)
(-0.0143715 -0.00810848 1.12696)
(-0.0140371 -0.0111985 1.24167)
(0.00819398 -0.00440749 1.25801)
(0.000902427 -0.018791 1.24218)
(-0.00334391 -0.0239116 1.11236)
(0.00943697 -0.0315387 1.33002)
(0.00943844 -0.0406294 1.1809)
(0.00626142 0.0518529 1.02802)
(-0.000391054 0.0368595 1.0664)
(0.00751989 0.0478018 1.0569)
(0.00935161 0.0304974 1.04762)
(0.0058786 0.0493012 1.03504)
(0.00894307 0.0496824 1.04596)
(0.0051527 0.037057 1.03777)
(0.00547466 0.0394223 1.04783)
(0.0118577 0.0256565 1.08645)
(0.0311746 0.0128321 1.09927)
(0.0137072 0.0104689 1.07472)
(0.0207938 0.00547915 1.06557)
(0.0169022 0.0190756 1.08131)
(0.0263017 0.0171163 1.0906)
(0.00679539 0.00779862 1.06668)
(0.0144 0.00210572 1.07252)
(0.0142721 0.0248534 1.06787)
(0.010737 0.00588564 1.05961)
(0.0153841 0.0161679 1.05089)
(0.0123727 0.00354197 1.03989)
(0.0153349 0.0136653 1.05488)
(0.024835 0.0119757 1.06972)
(0.00850443 0.00751884 1.04299)
(0.0122192 0.0007959 1.04728)
(0.0128914 0.0125591 1.04029)
(0.0205721 0.00676438 1.04145)
(0.0126322 0.00405616 1.0284)
(0.0178806 0.00565633 1.02453)
(0.0130217 0.00875946 1.03457)
(0.0187965 0.00867038 1.03916)
(0.00991112 0.00605504 1.02403)
(0.0135047 0.00296717 1.02662)
(0.0048559 0.0355769 1.06263)
(0.00859853 0.035635 1.04982)
(0.00925613 0.0255572 1.04177)
(0.0115457 0.0117448 1.05595)
(0.00753295 0.0194197 1.05291)
(0.00681201 0.0311605 1.04308)
(0.00999859 0.0147951 1.06021)
(0.0145299 0.0230929 1.05091)
(0.00754844 0.0301442 1.07988)
(0.018625 0.010664 1.06151)
(0.0152611 0.0106895 1.07811)
(0.0115331 0.0347125 1.06347)
(0.00418994 0.0191715 1.06442)
(0.0109794 0.0119786 1.0653)
(0.00816062 0.0232468 1.07056)
(0.0102098 0.0127041 1.06242)
(0.0104364 0.0227178 1.04904)
(0.00624306 0.0155747 1.03678)
(0.0116722 0.00604656 1.04034)
(0.00918051 0.00673053 1.02949)
(0.0106652 0.0179591 1.04703)
(0.0113336 0.014484 1.04168)
(0.0126725 0.0114948 1.04042)
(0.0124937 0.00889735 1.04085)
(0.008503 0.0175419 1.05606)
(0.0125452 0.000693027 1.03389)
(0.0139647 0.000985844 1.04699)
(0.00793559 -0.00467588 1.0576)
(0.0146564 0.0114093 1.0542)
(0.0166613 0.0104963 1.05274)
(0.00752834 0.00388909 1.05077)
(0.0140851 0.000888866 1.04878)
(-0.0147451 0.0569177 1.53089)
(-0.00307715 0.0840025 1.60324)
(-0.0138405 0.127632 1.39914)
(0.0175105 0.0888243 1.40427)
(-0.0445155 0.0574313 1.53785)
(0.00383085 0.0988225 1.58567)
(-0.0214635 0.172415 1.44538)
(-0.034256 0.176001 1.48718)
(0.0305767 0.145843 1.65626)
(0.0847268 0.249121 1.68109)
(-0.0330028 0.102847 1.30526)
(0.017042 0.214977 1.37586)
(0.0173808 0.213298 1.65261)
(0.0756431 0.215692 1.64692)
(-0.00180806 0.227716 1.48098)
(-0.0185879 0.222669 1.44723)
(-0.0132097 0.00557419 1.18996)
(0.00240592 0.0223106 1.16941)
(0.00358047 -0.00348329 1.12521)
(-0.00699326 0.00933676 1.08715)
(-0.00166637 0.0108293 1.18189)
(0.000673505 0.0040686 1.17351)
(0.00249238 -0.00305371 1.10776)
(0.00657501 0.00522655 1.11757)
(0.0229629 0.0510065 1.179)
(0.0196209 0.0826119 1.1754)
(0.00120409 0.0436888 1.09052)
(0.0274646 0.0208413 1.08739)
(0.0226723 0.0586976 1.16885)
(0.0291582 0.0640654 1.1575)
(0.0147337 0.0297114 1.09393)
(0.000377401 0.0545851 1.09966)
(-0.0192866 0.126914 1.57616)
(-0.0104597 0.114153 1.35521)
(0.0257569 0.117165 1.39432)
(0.0204497 0.137418 1.36659)
(-0.0385814 0.210775 1.44804)
(-0.0233836 0.198044 1.4465)
(0.0241662 0.159132 1.40556)
(0.0295828 0.106031 1.3922)
(0.0364989 0.144528 1.64299)
(0.00823274 0.170347 1.38098)
(-0.0374551 0.0853345 1.32376)
(-0.00582242 0.106685 1.3343)
(-0.0210915 0.180148 1.51596)
(-0.00282109 0.224064 1.42721)
(-0.0199255 0.132379 1.38916)
(-0.00645172 0.115011 1.29523)
(-0.0207435 0.065008 1.22777)
(0.0195479 0.090632 1.21456)
(0.0151429 0.110454 1.22959)
(0.0036533 0.038284 1.09474)
(0.00368448 0.0694246 1.21405)
(0.0145072 0.0972306 1.21356)
(-0.00535172 0.0707444 1.21575)
(0.0164203 0.0972251 1.21417)
(-0.0235585 0.0569565 1.20983)
(0.00243992 0.0335469 1.08741)
(0.0104632 0.114357 1.21338)
(-0.0157014 0.0337176 1.16563)
(-0.0218138 0.0426433 1.1905)
(-0.0162305 0.0566999 1.2043)
(-0.0139535 0.0414666 1.19307)
(-0.0148147 0.0787841 1.20913)
(-0.0927275 0.00508517 1.42456)
(-0.0293441 0.0143519 1.49567)
(-0.052296 -0.0513291 1.35887)
(-0.0251713 0.0603286 1.39692)
(-0.0452681 0.00994733 1.49881)
(-0.0459769 0.0217855 1.46723)
(-0.0484 0.0415068 1.37538)
(-0.0504437 0.037446 1.37671)
(-0.00615144 0.0197481 1.50515)
(-0.010263 0.0277909 1.53351)
(-0.0410529 0.0815911 1.3751)
(0.00498567 0.0934615 1.40388)
(-0.0137869 0.0456714 1.52663)
(-0.00778734 0.0406236 1.52355)
(-0.027823 0.131461 1.41006)
(-0.0291502 0.14066 1.43082)
(-0.00746718 -0.0150927 1.20055)
(-0.00165206 0.0268835 1.19244)
(9.90213e-05 -0.0081103 1.12626)
(-0.00523933 0.00491189 1.08825)
(-0.006991 0.00593302 1.19097)
(-0.00777367 0.0024728 1.1969)
(0.00198522 -0.0105787 1.11455)
(-0.00152976 -0.00135163 1.11149)
(0.015281 0.0523939 1.19764)
(0.0220443 0.0551552 1.18274)
(-0.0012106 0.0341385 1.09642)
(0.018028 0.0235437 1.08911)
(0.0204527 0.05412 1.19705)
(0.0169649 0.0574889 1.19033)
(0.00591024 0.0255274 1.10006)
(0.0076446 0.0331835 1.09541)
(-0.0160204 0.0411893 1.51753)
(-0.0546281 0.0124441 1.34619)
(-0.0155554 0.071331 1.40634)
(0.00393561 0.0900301 1.40997)
(-0.0403752 0.0828376 1.39255)
(-0.0458859 0.0874171 1.38098)
(-0.00112069 0.0822408 1.41381)
(-0.0167667 0.0774303 1.39211)
(-0.0153232 0.0337193 1.5201)
(-0.00377617 0.0945803 1.40715)
(-0.0534843 0.0620654 1.36416)
(-0.0542243 -0.0122849 1.36242)
(-0.0397298 0.0916357 1.40542)
(-0.0234727 0.118391 1.41797)
(-0.0617171 0.03883 1.35013)
(-0.0399324 0.0535239 1.37672)
(-0.0223441 0.00957402 1.22315)
(-0.00874778 0.0568389 1.23189)
(0.00135882 0.0731317 1.21868)
(-0.0022497 0.0208228 1.10116)
(-0.0155471 0.0330117 1.21641)
(-0.00135798 0.0621271 1.22658)
(-0.00504588 0.0583784 1.21606)
(0.00162265 0.0720467 1.22685)
(-0.0197501 0.0179213 1.22202)
(-0.00285113 0.0253726 1.09682)
(0.00937119 0.0753278 1.2147)
(-0.0129172 0.0542743 1.22134)
(-0.0164649 0.0365181 1.22766)
(-0.010096 0.0456234 1.21213)
(-0.0200657 0.0477888 1.22822)
(-0.00107561 0.0718612 1.20442)
(0.00561822 0.0566965 1.02211)
(0.00544603 0.0436981 1.01792)
(0.00170671 0.041748 1.06156)
(0.00689534 0.0310358 1.03694)
(0.00774755 0.0418557 1.02809)
(0.00764646 0.0425219 1.02455)
(0.00566227 0.040257 1.03605)
(0.00294308 0.0453982 1.02507)
(0.00488477 0.0336276 1.01422)
(0.0006558 0.0263638 1.01345)
(0.00185282 0.0302783 1.03576)
(0.0041203 0.0233515 1.0214)
(0.00489055 0.0269194 1.01581)
(0.00142803 0.0270495 1.01351)
(0.00372846 0.0252145 1.02194)
(0.000303185 0.0294388 1.02103)
(0.0111998 0.0385945 1.07907)
(0.00730715 0.0310575 1.06819)
(0.0193821 0.0110235 1.10711)
(0.0154319 0.0119074 1.06463)
(0.0125771 0.0209764 1.07627)
(0.0127988 0.0231301 1.07142)
(0.0157565 0.013864 1.07235)
(0.0139938 0.0262024 1.06628)
(0.00890292 0.0141733 1.03417)
(0.0102876 0.0144298 1.02878)
(0.0167816 0.0111742 1.04114)
(0.0168412 0.00959908 1.02849)
(0.00975984 0.0109798 1.03265)
(0.00941411 0.0128647 1.03307)
(0.0149322 0.00902656 1.02971)
(0.0145174 0.0151319 1.03116)
(0.00840464 0.0329389 1.01876)
(0.0057778 0.0271212 1.06462)
(0.00804079 0.0234769 1.03601)
(0.00617423 0.0218352 1.02759)
(0.00692511 0.0300584 1.02761)
(0.00647952 0.0335438 1.03029)
(0.00587284 0.0277513 1.03065)
(0.00818935 0.0248939 1.03381)
(0.00662273 0.0328946 1.0185)
(0.00523668 0.0219574 1.02784)
(0.00326323 0.0278341 1.04065)
(0.00582956 0.0313188 1.05176)
(0.00124511 0.0353432 1.02548)
(0.00403774 0.0284198 1.02702)
(0.00402359 0.0337338 1.05002)
(0.00568222 0.0251715 1.045)
(0.00678883 0.0239993 1.05718)
(0.00912822 0.0207474 1.0372)
(0.00781599 0.0188903 1.0295)
(0.0143955 0.0110429 1.0465)
(0.00939438 0.0179309 1.05649)
(0.008511 0.0262159 1.03197)
(0.00799069 0.0113923 1.04982)
(0.00660906 0.0201695 1.0325)
(0.00575183 0.036257 1.04553)
(0.0129143 0.0188549 1.04696)
(0.00644197 0.0230203 1.02727)
(0.00309402 0.0310688 1.0388)
(0.00629239 0.0263151 1.04963)
(0.00868333 0.0157645 1.05106)
(0.00563462 0.0235138 1.04595)
(0.00536561 0.0180965 1.04249)
(0.0192395 -0.00480815 1.082)
(0.00811029 0.00743263 1.05754)
(0.0224813 0.00486584 1.0386)
(0.0169871 -0.00833527 1.04755)
(0.00905582 -0.00374488 1.06226)
(0.0111349 0.00325965 1.06434)
(0.0197755 -0.00616285 1.045)
(0.0206342 0.00516946 1.03819)
(0.0143737 0.0192209 1.05044)
(0.021687 0.0107503 1.04744)
(0.0150546 0.0155952 1.02767)
(0.0149736 0.00494534 1.03312)
(0.0185689 0.0082345 1.04496)
(0.0180456 0.0150459 1.04374)
(0.0144904 0.00841874 1.03189)
(0.0150495 0.0107091 1.02945)
(0.0181959 0.00849601 1.01748)
(0.012368 0.0108774 1.01159)
(0.00895341 0.00425205 1.00243)
(0.0171581 0.00595878 1.00887)
(0.0133834 0.00654987 1.01229)
(0.0119705 0.00687954 1.00887)
(0.0145191 0.00502584 1.00684)
(0.0117697 0.00476389 1.00333)
(0.017639 -0.00423919 1.03104)
(0.0161829 -0.00124401 1.02472)
(0.0192004 0.00345723 1.0164)
(0.0187823 -0.00264655 1.01917)
(0.0163367 -0.000959764 1.02539)
(0.0164595 0.000521828 1.02604)
(0.0189487 -0.0026868 1.01834)
(0.0196506 0.000759779 1.0169)
(0.00938685 0.00874986 1.05422)
(0.015522 0.0075872 1.03147)
(0.0127672 -0.00118971 1.04115)
(0.0131982 0.0022259 1.03444)
(0.0145927 0.00467426 1.03874)
(0.0131175 0.00554806 1.0373)
(0.0126393 0.00259059 1.03909)
(0.0132621 0.00205936 1.04264)
(0.00991967 0.0138676 1.05088)
(0.0140919 0.00661149 1.03411)
(0.0131402 0.0131325 1.02441)
(0.0150536 0.0103142 1.03057)
(0.0156747 0.0103565 1.03262)
(0.0136615 0.00818872 1.03068)
(0.0160146 0.0119508 1.03266)
(0.012808 0.0119142 1.02858)
(0.0196979 0.00495256 1.02299)
(0.0184832 -0.00392412 1.03027)
(0.0153344 0.00189818 1.02391)
(0.0195069 0.00361022 1.01465)
(0.0207658 0.00440262 1.0285)
(0.0200812 0.00434695 1.02741)
(0.0167859 0.00541962 1.02015)
(0.0152464 0.00382869 1.02228)
(0.0171398 0.00769027 1.01666)
(0.018238 0.00454485 1.01165)
(0.0162275 0.00418982 1.02255)
(0.014266 0.00841455 1.01409)
(0.0147371 0.0070142 1.01426)
(0.0160528 0.00624385 1.01913)
(0.014927 0.00727735 1.01792)
(0.0158988 0.00734858 1.02155)
(0.00661424 0.000921293 1.00105)
(0.0172254 0.00763555 1.00929)
(0.00468373 0.00288805 1.00001)
(0.011364 0.00803953 1.00732)
(0.00894351 0.00559969 1.00702)
(0.00774164 0.00515184 1.00578)
(0.00950105 0.00578299 1.00508)
(0.00792996 0.00611919 1.00576)
(0.0259692 0.0079552 1.03143)
(0.0238664 -0.00501976 1.07995)
(0.0145276 0.0136783 1.03488)
(0.00736983 0.00912801 1.05521)
(0.0132029 0.00547297 1.0553)
(0.0119285 0.00856748 1.05717)
(0.0134082 0.0120206 1.04877)
(0.0144854 0.00993816 1.04887)
(0.00348649 0.00463599 0.99957)
(0.00802364 0.0225185 1.00702)
(0.00372946 0.00947761 0.999289)
(0.0109488 0.0264782 1.0119)
(0.0066805 0.017538 1.00815)
(0.0106701 0.014979 1.00567)
(0.00765198 0.0204258 1.00683)
(0.00649467 0.0205556 1.00661)
(0.0143961 0.0172765 1.02163)
(0.0140545 0.0206171 1.04693)
(0.0189106 0.0256151 1.03192)
(0.0238101 0.0119237 1.04645)
(0.0116048 0.0178868 1.03615)
(0.0136332 0.0233707 1.03616)
(0.0207107 0.0204893 1.03698)
(0.0208274 0.0224968 1.04013)
(0.0134605 0.0115691 1.02335)
(0.00680207 0.00971299 1.00924)
(0.00937514 0.0139318 1.01973)
(0.00711031 0.0132364 1.04532)
(0.0159416 0.0137509 1.02486)
(0.00928972 0.0125299 1.01215)
(0.0146183 0.014377 1.024)
(0.0100071 0.0126982 1.0172)
(0.0131651 0.0116627 1.02146)
(0.00289656 0.0216042 1.04498)
(0.0083369 0.0208778 1.02608)
(0.00646223 0.00899369 1.00654)
(0.0140566 0.0149038 1.01847)
(0.00614967 0.0227226 1.03474)
(0.0139422 0.0140633 1.01093)
(0.00871818 0.0203726 1.03079)
(0.00785996 0.0109804 1.00948)
(0.013917 0.0170371 1.02005)
(0.01586 0.023096 1.04313)
(0.0139052 0.0305291 1.02302)
(0.0103209 0.0153191 1.00726)
(0.0121082 0.0182494 1.01782)
(0.013207 0.0252983 1.02221)
(0.0112442 0.0276606 1.0315)
(0.00647719 0.0109564 1.00808)
(0.0138187 0.0300042 1.02257)
(0.00706087 0.0243852 1.0407)
(0.00744077 0.02548 1.02097)
(0.0118877 0.0237127 1.01542)
(0.0119125 0.024703 1.01871)
(0.00976446 0.0281518 1.02033)
(0.00738541 0.0261912 1.02524)
(0.0109776 0.0466773 1.02779)
(0.0121853 0.0255162 1.04796)
(0.00788108 0.0329255 1.03747)
(0.00596667 0.0353597 1.06733)
(0.011423 0.0420857 1.0296)
(0.0105417 0.0362733 1.02536)
(0.0069106 0.0453866 1.04197)
(0.00747759 0.0361705 1.03727)
(0.00661467 0.0114845 1.02864)
(0.00215984 0.000101038 1.02443)
(0.00361139 0.00321591 1.02747)
(-0.00149401 -0.000921042 1.03404)
(0.00195089 0.00600392 1.03023)
(0.00687187 0.00455932 1.02515)
(0.000977544 0.00460752 1.03124)
(0.00135876 -0.000630548 1.0278)
(0.00622515 0.03041 1.04664)
(0.00504885 0.00752493 1.03988)
(0.00373227 0.0139654 1.04855)
(-0.00298585 0.0142019 1.05198)
(0.000400572 0.0198791 1.04695)
(0.00480303 0.0139891 1.04616)
(0.00218989 0.0144546 1.05289)
(0.00221828 0.00739889 1.05105)
(-0.00781481 0.0227946 1.09845)
(-0.00470959 -0.00621293 1.05446)
(-0.000521846 -0.00751709 1.07159)
(-0.0163957 -0.0101019 1.1169)
(-0.00525296 0.0211547 1.09222)
(0.0141402 0.00589418 1.06828)
(-0.0302782 0.00967121 1.1091)
(-0.00555966 -0.00384552 1.07481)
(0.0062552 0.019205 1.04129)
(0.00629038 0.0308841 1.04333)
(0.0109401 0.0335476 1.06093)
(2.68233e-05 0.00967609 1.05109)
(0.00661904 0.0184777 1.04733)
(0.0104057 0.038819 1.03975)
(-0.00212565 0.00800828 1.05419)
(0.0113602 0.0218127 1.04775)
(0.00979796 0.0220718 1.03797)
(0.00566359 0.00799218 1.04509)
(0.00776127 0.0106945 1.03265)
(0.00436957 0.0284179 1.04649)
(0.00272983 0.0148825 1.03978)
(0.00564745 0.0103747 1.04038)
(0.00559713 0.0231699 1.04273)
(0.00401672 0.0126502 1.03902)
(0.0103912 0.0301924 1.04523)
(-0.000488512 0.0307594 1.07525)
(-0.00476394 0.00417032 1.05439)
(0.00577157 0.0108902 1.05672)
(0.00808264 0.017029 1.05094)
(0.00839172 0.0197241 1.05436)
(0.00523004 0.0138209 1.05962)
(0.00721025 0.020189 1.06212)
(0.000580413 0.0252526 1.04838)
(-0.00237896 0.00348938 1.0539)
(-0.00122949 -0.00175332 1.04465)
(0.00398439 0.00391241 1.03653)
(0.00289367 0.0211996 1.04872)
(-0.00153756 0.0123899 1.05353)
(0.00198458 0.00983048 1.04652)
(-0.000875005 0.00325334 1.04663)
(-0.00116834 -0.39811 1.50532)
(0.0823186 -0.137735 1.03717)
(0.00112176 -0.172188 1.18894)
(0.0681611 -0.0410813 0.988179)
(-0.0169168 -0.107051 1.32752)
(0.0584106 -0.115119 1.2904)
(-0.024998 -0.223341 1.32831)
(-0.0130818 -0.162698 1.1723)
(0.0500987 -0.0404583 1.11346)
(0.0455991 -0.0116076 1.09549)
(0.0169144 -0.0280416 1.07273)
(0.0164804 -0.0218582 1.07158)
(0.0170891 -0.00408645 1.11774)
(0.026046 -0.0221978 1.09676)
(0.00744697 -0.0162171 1.09648)
(0.0149228 -0.01629 1.07472)
(0.00845629 -0.0855602 1.04941)
(0.00680687 -0.0373283 1.03652)
(0.00958265 -0.0224334 1.00614)
(0.0178428 -0.0404568 1.02466)
(0.0101233 -0.048307 1.02573)
(0.00831541 -0.0402073 1.01701)
(0.0190815 -0.033909 1.01199)
(0.0112405 -0.022566 1.01557)
(-0.0116516 -0.0259419 1.06332)
(0.0079505 -0.0252829 1.06591)
(0.0231354 -0.0329095 1.0679)
(0.0136829 -0.00551622 1.0994)
(0.019275 -0.0341346 1.08747)
(0.0226322 -0.0404746 1.09448)
(0.00579986 -0.0258807 1.09168)
(0.0261751 -0.0209103 1.06349)
(0.00935983 0.0333141 1.08025)
(0.00205222 -0.107537 1.12248)
(0.00346439 -0.032121 1.20658)
(0.00829356 -0.0176049 1.09905)
(0.00620458 -0.0742408 1.14199)
(0.0183416 -0.130508 1.1643)
(0.00941424 -0.000759576 1.06352)
(0.0586066 -0.0914 1.19151)
(0.0343277 -0.0853163 1.20606)
(0.0178938 -0.0326409 1.10397)
(0.0157767 -0.0419629 1.05897)
(0.017434 -0.0848921 1.07814)
(0.00231649 -0.0604559 1.10232)
(0.0131005 -0.0460551 1.08887)
(0.0156344 -0.0669383 1.1041)
(0.00947153 -0.0417687 1.07507)
(0.0125339 -0.0912235 1.0735)
(-0.0350825 -0.0789226 1.16857)
(0.00075631 -0.0210398 1.08561)
(0.0176921 -0.0455772 1.04423)
(0.0151876 -0.099742 1.1046)
(0.00347372 -0.0779419 1.10379)
(0.0103955 -0.0651499 1.06354)
(0.0157762 -0.0668063 1.08833)
(0.0169671 -0.0729815 1.0572)
(0.0222319 -0.0298211 1.03444)
(0.00581678 -0.0235345 1.06662)
(0.0110215 -0.0272103 1.0444)
(0.0104979 -0.0569551 1.04259)
(0.0160106 -0.0512022 1.04343)
(0.00377269 -0.0367156 1.05744)
(0.00873293 -0.0338792 1.06883)
(0.00895999 0.0715352 1.07358)
(0.00894176 0.0498703 1.10211)
(-0.00416722 0.0794931 1.14886)
(0.0143724 0.0522801 1.10049)
(0.00861034 0.0723473 1.08202)
(-0.000106515 0.0569134 1.08424)
(0.0120893 0.0673185 1.10762)
(-0.00500069 0.0655815 1.11153)
(0.00400002 0.0443253 1.10521)
(0.0245738 -0.012188 1.12565)
(0.0228387 0.0060114 1.13992)
(0.01489 -0.0128166 1.10732)
(-0.00258861 0.0368228 1.10269)
(0.00787776 0.00814867 1.10966)
(0.019379 0.00800344 1.11381)
(0.0114725 0.028437 1.13238)
(0.0201178 0.087086 1.40059)
(0.0173394 0.0273733 1.37151)
(0.0259117 0.0494625 1.51997)
(0.00573363 0.0185138 1.40112)
(0.0187079 0.0886835 1.407)
(-0.0125725 0.0227676 1.43099)
(0.0146308 0.0739974 1.43301)
(-0.00237951 0.0852669 1.48188)
(0.0212239 0.0234964 1.11314)
(0.0176457 -0.027082 1.10695)
(0.0121998 -0.00422542 1.15454)
(0.0265977 -0.0177098 1.10728)
(0.0212814 0.0217741 1.11647)
(0.00366015 0.0202638 1.13698)
(0.0267094 -0.0122067 1.1143)
(0.00197449 -0.0084309 1.13983)
(0.00928348 0.0497728 1.11155)
(-0.000176049 0.0907064 1.16807)
(0.0119763 0.05345 1.10826)
(0.0195674 0.0231551 1.11964)
(0.0181265 0.0369674 1.13396)
(0.00153781 0.0515905 1.11897)
(0.0155665 0.0223174 1.11547)
(-0.000279549 0.0521959 1.11926)
(-0.00594473 0.0366589 1.1079)
(0.00253892 0.021907 1.14095)
(-0.0100801 -0.00292437 1.18347)
(-0.0205138 0.0601283 1.16204)
(-0.00412838 0.0374535 1.13656)
(-0.00247423 0.0320645 1.12748)
(0.00892306 0.0293105 1.18296)
(0.00227328 0.0443324 1.18092)
(0.0191602 0.0763672 1.22768)
(0.0152919 0.0356474 1.12141)
(0.0141182 -0.0066654 1.12086)
(0.00984854 0.0090536 1.18866)
(0.0177739 0.0451079 1.18954)
(-0.00116137 0.0409726 1.12497)
(0.0218198 0.0448028 1.20579)
(0.00354819 0.0174197 1.13148)
(-0.0197472 0.076454 1.2641)
(-0.0071881 -0.00221018 1.28236)
(-0.00366394 0.00372338 1.14751)
(0.00439515 0.027545 1.34888)
(-0.00995943 0.0576261 1.23802)
(-0.00951562 0.0398032 1.25203)
(0.0197581 0.0294509 1.21039)
(0.0076163 9.23185e-05 1.13107)
(0.0115599 0.0255557 0.999051)
(0.00804154 0.0132381 1.01858)
(0.0105689 0.0392181 0.99875)
(0.00780355 0.043521 1.02331)
(0.0100649 0.0203194 1.01215)
(0.00991515 0.020105 1.0097)
(0.0154601 0.0328749 1.00465)
(0.013614 0.0329913 1.01544)
(0.00995713 0.00763107 1.02526)
(0.00282229 0.00377432 1.0269)
(0.00335684 0.0146084 1.02673)
(-0.000710669 -0.000791688 1.03409)
(0.00706667 0.00599911 1.02787)
(0.00709127 0.0063563 1.02595)
(0.00298042 0.00485088 1.02891)
(0.00350399 0.00764588 1.02914)
(0.00794332 0.0456645 1.00616)
(0.00925123 0.0358441 1.03062)
(0.0101521 0.0423797 1.00133)
(0.0134051 0.0542547 1.03066)
(0.0119689 0.0418868 1.01914)
(0.0105418 0.0379893 1.0256)
(0.0143708 0.0459367 1.00067)
(0.01385 0.0423636 1.01039)
(0.00298479 0.0479891 1.05496)
(-0.00680976 0.000268015 1.06561)
(0.000684317 0.0667762 1.07504)
(-0.0146928 0.0358067 1.09193)
(-0.000383049 0.0196626 1.07479)
(-0.00181946 0.021895 1.0632)
(-0.00558969 0.048992 1.08065)
(-0.00595659 0.0408082 1.07936)
(0.00991716 0.0143533 1.01897)
(0.0128535 0.0321519 1.01317)
(0.00779125 0.0235776 1.04036)
(-0.00100474 0.0127909 1.03618)
(0.00376188 0.0180519 1.02836)
(0.0177487 0.0326796 1.0216)
(-0.00688331 0.0140043 1.03766)
(0.0018036 0.0282496 1.03356)
(0.0108014 0.011446 1.01917)
(-0.00223838 0.0100018 1.03487)
(0.00669466 0.0228961 1.02369)
(0.0121051 0.0320926 1.01479)
(0.00862265 0.0193986 1.02502)
(0.00381022 0.0108673 1.03019)
(0.0102121 0.0295042 1.02269)
(0.00454047 0.0255748 1.0244)
(0.0139281 0.0422844 1.00852)
(0.0100737 0.0446376 1.03504)
(-0.00151546 0.0178602 1.04978)
(0.010707 0.0523601 1.0345)
(0.011219 0.0551102 1.02811)
(0.00882337 0.0400572 1.04613)
(0.00929279 0.0412655 1.04627)
(0.00816159 0.0399386 1.05409)
(0.0137202 0.0419077 1.01792)
(0.0092536 0.0451085 1.04246)
(0.00174786 0.0261355 1.04666)
(0.0098946 0.0311334 1.02999)
(0.0174605 0.0421847 1.02824)
(0.0071205 0.0340982 1.04663)
(0.00928645 0.0302069 1.02896)
(0.0020094 0.0283056 1.05087)
(0.0074318 0.0160691 1.00715)
(0.0107619 0.0107257 1.01067)
(0.00944092 0.021765 1.01708)
(0.00713495 0.0134631 1.00884)
(0.0109035 0.0179222 1.00621)
(0.010468 0.0148411 1.00812)
(0.00934387 0.024436 1.00958)
(0.00936746 0.0201921 1.01364)
(0.0108485 0.00604394 1.01069)
(0.0109328 0.00460266 1.00765)
(0.0115378 0.00763462 1.0132)
(0.00829365 0.00480219 1.00937)
(0.0104033 0.0075692 1.00853)
(0.0105668 0.00661149 1.00908)
(0.00999956 0.00845012 1.01124)
(0.00849228 0.00666168 1.01103)
(0.00790351 0.0186069 1.03363)
(0.0119641 0.0111927 1.02249)
(0.00760779 0.00975033 1.04524)
(0.00541822 0.00599754 1.02713)
(0.00810476 0.0146739 1.03333)
(0.00786029 0.014215 1.02878)
(0.00969349 0.0143909 1.03862)
(0.00662661 0.0077417 1.03748)
(0.0060547 0.00689922 1.01372)
(0.00576298 0.00356283 1.01326)
(0.00365774 0.00303933 1.01972)
(0.00167853 0.00291511 1.01713)
(0.00656326 0.0063859 1.01548)
(0.00424534 0.00579425 1.01348)
(0.0055958 0.00536412 1.01725)
(0.00325798 0.00371608 1.01715)
(0.0104698 0.011845 1.00779)
(0.0103458 0.0206334 1.01848)
(0.00927005 0.0128225 1.01234)
(0.00896026 0.00813317 1.01059)
(0.00974514 0.0146235 1.01151)
(0.0110546 0.019189 1.01187)
(0.00838996 0.00527749 1.01248)
(0.00729943 0.0108502 1.01103)
(0.0108088 0.00875189 1.01006)
(0.00766331 0.00569816 1.01144)
(0.0104059 0.0106402 1.01513)
(0.0103239 0.0170988 1.01609)
(0.0103864 0.0128131 1.01402)
(0.00911048 0.00972807 1.01184)
(0.0119892 0.0131841 1.01614)
(0.00979247 0.0119057 1.01635)
(0.0103206 0.0230963 1.0253)
(0.00851941 0.0161483 1.01526)
(0.00764674 0.00573891 1.0131)
(0.00764068 0.00921508 1.02295)
(0.01105 0.0125757 1.01824)
(0.00770205 0.0111586 1.0173)
(0.00827421 0.0109424 1.02002)
(0.00665356 0.0103423 1.01479)
(0.00769903 0.0184113 1.02875)
(0.00449949 0.00615394 1.02018)
(0.00591844 0.00579878 1.01269)
(0.00870378 0.00898609 1.01885)
(0.0101882 0.0149494 1.02171)
(0.00684073 0.00879481 1.01572)
(0.0101547 0.0121098 1.0188)
(0.00650434 0.00639528 1.01493)
(0.0166873 0.234843 1.54115)
(-0.0943366 0.151508 1.87143)
(-0.320708 0.301909 2.41493)
(-0.224247 0.0883275 1.96334)
(-0.0522813 0.0833161 1.93465)
(-0.0541491 0.214945 1.71211)
(-0.276875 0.14513 2.28406)
(-0.173477 0.170236 2.09087)
(-0.149908 0.131758 1.93664)
(-0.154727 -0.0355542 2.07752)
(-0.338039 0.195734 2.06267)
(-0.339591 0.13265 1.66459)
(-0.159176 0.0960081 1.96901)
(-0.158704 0.0953532 1.99677)
(-0.338319 0.108155 1.88784)
(-0.365264 0.0950044 1.94198)
(-0.295079 0.236029 2.2151)
(-0.30112 0.299945 2.1682)
(-0.3216 0.0913604 2.22001)
(-0.250822 0.214099 1.86602)
(-0.280234 0.253087 2.21989)
(-0.311608 0.288456 2.2299)
(-0.297576 0.0679886 2.13128)
(-0.282418 0.162025 2.19509)
(0.119912 0.0263524 1.26434)
(-0.130542 0.075347 1.30018)
(-0.143259 0.114522 1.40894)
(-0.0716108 0.0391599 1.22392)
(-0.0726622 0.013139 1.32389)
(0.0417785 0.00873274 1.30905)
(-0.0597652 0.11121 1.31923)
(-0.0790401 0.0555021 1.33668)
(-0.0982572 0.168812 1.89985)
(-0.180014 0.234878 2.20872)
(-0.186562 0.121544 1.65777)
(-0.250886 0.13294 1.70282)
(-0.237509 0.081217 1.94826)
(-0.268295 0.102436 2.13556)
(-0.165525 0.126595 1.5273)
(-0.28555 0.130825 1.87296)
(-0.123788 0.157674 1.93127)
(-0.241086 0.133835 1.56635)
(-0.240983 0.281125 2.12749)
(-0.243003 0.311164 2.33908)
(-0.274218 0.157009 2.05209)
(-0.374189 0.0999344 1.88705)
(-0.145112 0.229602 2.20797)
(-0.3348 0.218332 2.12509)
(-0.432312 0.18979 2.09625)
(0.100122 0.0252095 1.59948)
(-0.107062 0.0181459 1.47473)
(-0.169109 0.147079 1.7083)
(-0.279921 0.164652 1.83254)
(-0.131981 0.0792123 1.62841)
(-0.098394 0.100704 1.63945)
(0.179051 -0.000120958 1.46754)
(-0.271265 0.209343 2.20027)
(-0.201284 0.123974 1.71459)
(-0.0606873 0.0333085 1.4773)
(-0.348634 0.226108 2.00509)
(-0.409814 0.218238 2.16557)
(-0.190849 0.126832 1.73855)
(-0.313257 0.129569 1.97511)
(-0.00216149 0.0402753 1.44979)
(0.129915 0.158105 1.72496)
(-0.165513 0.190222 2.29336)
(0.00749876 0.11036 1.89226)
(-0.228226 0.161874 1.79798)
(-0.0643745 0.186533 2.12174)
(0.0270321 0.15516 1.96487)
(-0.0753216 0.113082 1.89341)
(-0.0269068 0.108846 1.97251)
(-0.257377 0.221547 2.3574)
(-0.239595 0.135879 2.30967)
(-0.151681 0.132846 2.1286)
(-0.229946 0.216203 1.9258)
(-0.254338 0.174298 2.2427)
(-0.26406 0.184238 2.39273)
(-0.214931 0.126145 1.98789)
(-0.225731 0.165379 2.15146)
(0.00234458 0.0883996 1.81612)
(-0.0231753 0.0809583 1.92898)
(-0.0104635 0.0700251 1.82165)
(-0.0908213 0.0205483 1.65513)
(-0.0186679 0.0818557 1.87675)
(0.0147917 0.0558437 1.82234)
(-0.0414424 0.0819192 1.85464)
(-0.0137209 0.0728472 1.8525)
(-0.0187112 -0.0599654 1.34439)
(-0.106103 0.0802224 1.35931)
(-0.0953423 0.0525108 1.36285)
(-0.0693108 0.040588 1.21145)
(-0.0284512 -0.0137395 1.36643)
(0.0169196 -0.0439545 1.31478)
(-0.095721 0.0652619 1.36659)
(-0.0382103 0.0165911 1.33508)
(-0.222867 0.231727 2.22817)
(-0.0409493 0.108682 1.9332)
(-0.171684 0.0652732 1.78225)
(-0.198989 0.149591 1.79654)
(-0.0461089 0.0778556 1.89919)
(-0.0404198 0.108672 1.94132)
(-0.18923 0.1001 1.8838)
(-0.126516 0.0320015 1.77658)
(-0.276101 0.221662 2.36987)
(-0.160337 0.160282 1.97157)
(-0.0300201 0.110798 2.13974)
(0.00972126 0.0744117 1.9381)
(-0.150712 0.179752 2.08774)
(-0.132015 0.157219 2.13593)
(-0.00254211 0.0640369 1.97425)
(-0.085744 0.14226 2.05417)
(-0.0491136 0.0689746 1.83402)
(-0.119766 0.0358302 1.63232)
(-0.11795 0.000814902 1.5463)
(-0.12502 0.0436094 1.56509)
(-0.122509 0.0537987 1.74326)
(-0.137468 0.0803001 1.68556)