/*--------------------------------*- C++ -*----------------------------------*\
| =========                 |                                                 |
| \\      /  F ield         | OpenFOAM: The Open Source CFD Toolbox           |
|  \\    /   O peration     | Version:  2506                                  |
|   \\  /    A nd           | Website:  www.openfoam.com                      |
|    \\/     M anipulation  |                                                 |
\*---------------------------------------------------------------------------*/
FoamFile
{
    version     2.0;
    format      ascii;
    arch        "LSB;label=32;scalar=64";
    class       volScalarField;
    location    "200";
    object      p;
}
// * * * * * * * * * * * * * * * * * * * * * * * * * * * * * * * * * * * * * //

dimensions      [0 2 -2 0 0 0 0];

internalField   nonuniform List<scalar> 
58176
(
-55.1834
-109.333
-59.7155
-49.3958
-40.8808
-60.701
-35.1062
-49.8804
-83.6436
-408.716
-371.814
-97.9651
-268.236
-364.619
-288.115
-180.547
-67.2
-223.602
-114.752
-121.35
-114.012
-182.593
-82.4168
-117.055
-49.4901
-74.4587
-64.8356
-45.6376
-56.8958
-70.6671
-51.84
-67.3527
-118.997
-52.4789
-49.1206
-143.727
-63.0401
-21.4939
-68.0128
-51.8149
-173.37
-194.358
-341.11
-77.0594
-158.435
-298.728
-91.3751
-208.35
-24.9679
-45.0529
-97.7174
-84.3041
-59.0804
-67.5457
-97.96
-105.44
-81.6735
-120.708
-137.313
-232.923
-129.079
-135.658
-175.573
-154.281
-34.2075
-46.5041
-54.0305
-49.3121
-46.886
-47.725
-50.1512
-55.3852
-46.1394
-119.614
-136.927
-105.101
-105.71
-125.371
-101.01
-145.458
-133.218
-192.851
-381.457
-211.622
-166.108
-195.791
-244.919
-338.477
-56.2525
-65.6565
-128.148
-51.7881
-56.0013
-69.2064
-63.1204
-87.1529
-57.7081
-87.3783
-57.0317
-88.3413
-49.3514
-51.339
-61.9424
-61.3199
-46.9171
-104.91
-132.956
-99.1904
-84.8827
-93.9412
-96.497
-128.965
-102.647
-61.7543
-92.5764
-140.82
-97.2544
-79.152
-120.485
-99.4626
-129.965
-176.073
-127.468
-183.95
-132.504
-142.601
-126.147
-146.715
6.18223
6.99032
4.76163
5.3841
5.90161
6.17972
5.37095
5.33695
7.92496
9.82217
5.89612
5.54072
6.18942
6.01131
5.9782
4.75529
2.97718
3.13213
1.83894
2.9401
2.99887
2.22507
2.33609
0.847727
4.82511
4.57692
3.73898
4.15755
4.47811
4.66808
4.06537
4.47856
6.72511
4.63569
5.13918
5.28448
5.72461
5.52387
5.96388
5.3451
7.20863
6.01533
5.3294
4.61961
5.98366
6.39926
5.29251
5.23264
4.18729
4.68566
4.75276
3.72031
4.33
4.80631
4.25201
4.74921
3.88962
3.56853
4.61935
5.27151
3.86141
4.19297
4.50336
5.17967
147.706
112.165
106.372
107.744
125.077
116.597
112.772
105.5
86.4968
66.3394
61.5449
63.4411
75.2466
69.1845
67.9609
63.0092
76.2695
55.8694
49.6071
53.4846
63.9801
58.2784
56.8155
51.2213
81.5997
61.7228
56.2753
65.7814
69.8494
63.8099
62.3394
57.0236
96.086
90.7004
91.0704
70.4398
87.3771
91.7854
80.936
83.7778
90.2068
66.1917
64.1445
84.8775
82.1452
71.6682
81.6539
70.1657
81.8139
82.216
64.0505
59.7833
75.206
75.7361
65.4285
66.9964
76.3665
54.9215
59.6966
57.707
66.124
61.7013
63.027
59.0279
-72.3257
-24.1093
-44.7006
-2.81241
-10.0313
-29.1167
-3.34386
-12.4727
-13.7889
-4.99407
-6.47816
-2.84048
-0.899603
-6.04842
1.08325
-1.66802
-27.3697
-7.24819
-20.0887
-1.02608
-4.22576
-10.8538
-0.84818
-3.04109
0.542073
0.370837
0.154469
0.668027
0.00586826
0.0820067
-0.75956
-0.686559
-5.2793
-5.3027
-2.23875
-0.787645
-1.02391
0.393073
-1.86145
-3.06141
-16.3377
-2.87796
-8.51888
-17.0429
-4.91456
1.17068
-13.8036
-3.39656
-0.763559
-2.64929
-1.95021
0.221301
-3.96931
-3.44238
-0.302738
-0.173278
-5.63448
-0.679428
-2.53985
-2.65689
1.82257
-1.48999
0.451659
-2.32341
3.49711
2.00922
2.9241
2.40962
3.00094
2.71884
2.60103
2.94891
4.38658
7.15301
1.00122
1.53916
2.38153
5.01322
2.13487
4.11855
2.0023
1.89083
2.08614
1.81146
1.74016
1.72729
1.63072
0.998132
1.92602
1.80723
1.73992
1.61639
1.76496
1.85281
1.68608
1.79624
2.34823
2.41658
2.13146
1.96859
2.17105
2.20656
2.27577
2.24191
2.61225
1.68206
2.65472
2.14249
2.23348
2.40306
1.59152
2.26864
2.28633
2.03483
1.75188
1.79634
2.19661
2.1036
1.88671
1.88214
2.12385
1.79347
1.78154
1.71197
2.1858
1.92096
2.11051
1.83162
-2.41752
-1.52563
-1.65604
-1.42499
-1.96964
-1.67021
-1.98054
-1.60928
-0.477781
-0.139406
0.255454
-0.646629
-0.332455
0.0184179
-0.562526
0.236207
-0.73757
-0.53182
-0.300523
-1.00915
-0.803824
-0.609113
-1.29142
-0.794829
-0.983559
-0.562151
-0.577692
-0.260308
-0.620399
-0.538597
-0.119771
-0.310408
-1.38755
-1.41443
-1.12225
-0.58213
-1.26563
-1.37624
-0.816381
-1.18981
-0.865704
-0.785994
0.0427991
-0.844701
-0.990097
-0.808756
-0.831275
-0.69459
-1.25928
-0.679951
-0.518377
-0.363711
-0.861729
-0.714511
-0.703005
-0.622465
-1.08183
-0.573727
-0.668792
-0.0112978
-0.916327
-0.651989
-0.733222
-0.878992
-1.96134
-0.234132
-1.3131
-0.823283
-0.448557
-1.19698
-1.16189
-1.59578
0.336383
0.390434
0.455756
0.0957907
0.320806
0.500693
-0.10311
0.391809
-1.03717
-0.0241525
-7.347
0.786205
-0.966164
-2.84139
-4.45227
-2.30964
-0.260288
0.406041
0.245424
-1.23266
0.254809
0.208503
-1.18464
0.788877
0.107801
-0.340151
-0.120206
0.166977
0.360897
-0.705714
0.144748
0.494256
-0.286583
0.032505
-0.00541681
-1.23928
0.0102875
-0.339866
-0.336551
-0.126203
-3.03828
-0.199964
0.271926
-3.16602
-0.722474
0.280797
0.775233
0.478856
-1.91749
0.412602
0.0857642
-0.0611657
0.191611
0.653936
-0.240344
-0.0862702
13.3462
5.4756
5.98997
7.00099
6.29522
5.62852
5.86308
6.87622
2.73004
2.39044
1.35872
2.64651
2.41352
2.46148
2.08123
1.92792
2.19424
1.05979
0.625195
2.64567
2.17878
1.48285
2.09987
1.15905
6.76564
4.29742
4.68327
6.1397
6.16782
5.15559
6.07888
5.00075
4.42818
5.11109
7.26965
4.19321
4.84251
5.65176
5.06896
5.76856
2.9107
3.1659
1.83749
2.65766
2.70889
2.43457
2.20916
2.50131
4.75402
7.19149
4.09192
4.29062
5.31563
5.72169
4.40475
4.914
2.85564
2.98593
3.05418
1.51953
2.55834
3.19478
2.28866
2.70667
11.307
10.3046
2.91032
5.73259
12.995
7.90159
6.59964
4.34198
21.8875
10.1193
13.0947
4.96357
23.2263
18.0629
1.80466
-5.56066
2.65766
2.46101
2.82016
2.89983
2.43641
1.95039
2.0791
1.1164
3.06938
3.8737
3.29486
4.12988
3.93812
4.45505
4.69395
4.40475
17.4002
6.3403
3.66077
3.92543
4.85804
5.04661
6.55135
6.22907
6.02153
2.49675
9.33634
4.64569
5.38169
-0.526488
8.04733
8.04837
5.58095
4.25166
4.46556
3.98464
5.69709
4.7836
3.84715
4.97378
5.17017
3.81388
4.78755
6.97005
6.57748
4.67695
7.20979
3.16432
-199573
-18561.7
-31399
-39918.5
-54671.6
-37635.6
-41582.2
-26877.2
-2519.38
-467.27
-1033.9
-576.56
-1114.44
-800.665
-942.968
-751.159
-11761.6
-2267.01
-3612.42
-3359.2
-5912.76
-4047.96
-4385.26
-3326.7
-6238.79
-602.942
-1748.67
-542.767
-2163.07
-1575.82
-1387.66
-1170.8
-7077.26
-16632.1
-20257.9
-1567.58
-6614.12
-13057.8
-3047.2
-10862.2
-4418.12
-1121.9
-1963.49
-10635.9
-4376.9
-1727.58
-5876.27
-2804.29
-15112.8
-13226.2
-1118.87
-3659.18
-11122.6
-9892.7
-5240.99
-2765.59
-9580.18
-3052.19
-1076.87
-1708.37
-4037.49
-3127.49
-2120.65
-1355.17
-655.4
-10215.4
-4859.74
-6663.1
-7824.97
-8054.25
-11332.6
-8067.49
-6385.99
-3483.45
-1830.97
-3502.22
-5044.34
-3405.04
-3355.69
-2530.33
-1760.37
-896.963
-562.336
-503.134
-891.089
-884.684
-679.104
-536.742
-3957.35
-1459.99
-643.089
-508.412
-1872.66
-1378.91
-1029.03
-616.778
-7742.23
-3514.16
-8847.86
-6014.97
-7069.68
-6142.35
-5572.47
-4554.24
-5082.88
-3504.47
-1766.12
-2735.51
-5170.24
-3059.38
-3028.04
-2166.82
-2907.61
-5762.23
-3340.87
-957.683
-3455.52
-4503.87
-2080.83
-3431.81
-2111.76
-589.104
-2048.02
-1134.08
-1188.55
-1192.42
-1407.44
-1282.84
-1.33671
-0.18396
-3.41477
-1.12589
-1.66552
-2.93098
-4.12444
-2.62581
-0.493931
-0.420171
-0.861412
-0.26657
-0.505841
-0.784937
-0.654969
-0.547138
-2.39145
-1.68136
-3.82483
-5.4876
-0.69065
-3.06513
-1.85827
-2.30774
-0.264069
-0.52664
-0.279074
0.264053
1.00085
-0.928822
3.76403
0.654185
0.0362685
-1.39191
-2.03699
0.0491444
-0.921999
-0.290336
-0.572138
-3.06326
-0.291697
-1.29783
-1.58564
-1.43906
-0.184494
-0.435298
-1.50561
-0.59889
-2.2435
-3.89604
0.773957
0.56431
-4.35093
-1.92078
-0.198454
0.94959
-0.873894
0.231962
-0.213209
-1.09649
-1.00696
-1.9531
-1.04079
-0.654391
4.73367
-1.76242
0.290645
0.21165
0.262049
2.51831
0.935631
0.526399
-1.16246
-0.773997
0.185343
-0.00994022
-0.441563
-0.204933
-0.161091
-0.363469
0.377037
0.387245
0.400297
0.418227
0.431498
0.368326
0.369894
0.331951
0.516082
0.403553
0.419449
0.374488
0.660275
0.314408
0.532809
0.34398
-1.55037
0.189543
0.0849204
0.366505
0.0783697
-0.134202
0.0676883
0.0767031
-0.0407646
-0.0490584
0.198454
0.138123
0.0966527
-0.196183
0.130572
0.231083
0.326904
0.394742
0.426763
0.449534
0.452405
0.456704
0.453257
0.5294
0.339245
0.433116
0.441026
0.348947
0.392343
0.399273
0.30859
0.382261
-29.5751
0.708192
-9.22638
8.08314
-12.2611
-24.6944
14.6754
-15.6932
0.944977
1.99796
0.874842
2.41207
-0.288695
-2.00727
-1.00129
1.26659
-13.3214
-1.69202
-6.9436
1.20692
7.61626
0.830209
1.23901
-19.0608
1.44187
-2.49749
3.25294
8.49516
2.94754
10.1856
-0.674147
8.09364
3.98053
5.33928
6.55932
3.24608
-16.7493
10.0026
1.86372
2.76099
-6.09411
-5.44703
-11.4338
-2.88795
-2.25897
-0.436793
3.229
-2.21853
5.09239
2.56738
1.03728
6.84108
0.557698
14.3519
5.75992
9.80674
-4.05124
18.3347
-1.37134
-2.96664
26.4531
8.52061
-13.33
-0.413376
4.89237
16.2536
13.6812
16.4909
14.7156
14.0939
18.3493
19.2498
19.4517
31.2871
18.5946
30.6887
28.6035
32.1342
33.9485
32.6482
5.58283
17.9119
-0.433916
12.3506
20.8119
14.7635
22.5391
12.547
11.7433
14.9353
10.4156
7.6442
12.092
13.0038
11.1879
11.7394
19.6738
16.0771
17.5944
24.0027
24.9624
21.0097
23.8439
18.3709
18.7316
26.0352
15.9643
14.4089
25.4635
26.9915
17.8898
20.8407
16.665
16.0018
21.1385
15.1012
15.1604
17.1624
16.3039
18.1507
16.7225
16.0488
22.6671
25.6323
24.0694
17.1854
23.8172
20.1334
0.347061
0.464072
0.354555
0.462282
0.414838
0.332373
0.380511
0.332463
0.523842
0.527683
0.460464
0.528817
0.520072
0.510404
0.516023
0.506801
0.433874
0.427722
0.414218
0.464873
0.449541
0.431115
0.455823
0.433694
0.517975
0.535768
0.511132
0.555205
0.532505
0.529017
0.545781
0.530835
0.516411
0.437048
0.4836
0.533861
0.513843
0.471941
0.501652
0.499089
0.504976
0.512832
0.457344
0.446172
0.498013
0.499028
0.458869
0.478119
0.458354
0.507573
0.527051
0.50415
0.481108
0.4968
0.497645
0.513285
0.45201
0.483529
0.509609
0.456146
0.465714
0.48057
0.475853
0.488009
0.128205
0.233831
0.275104
0.233162
0.170138
0.208053
0.219547
0.24563
0.320828
0.398187
0.414214
0.362601
0.350163
0.385262
0.365555
0.390665
0.412395
0.458823
0.521441
0.450886
0.431632
0.467349
0.455432
0.481082
0.31388
0.345303
0.400102
0.350102
0.329006
0.355269
0.348626
0.365362
0.275513
0.325218
0.277812
0.334589
0.30563
0.296647
0.307796
0.307183
0.308007
0.358688
0.415307
0.355891
0.326459
0.358538
0.35403
0.382162
0.35807
0.312757
0.350308
0.398159
0.356929
0.320863
0.373336
0.354648
0.373395
0.41607
0.365757
0.425024
0.402681
0.40402
0.403939
0.399088
0.0488837
0.0577181
0.224728
0.0400762
0.046101
0.0992313
0.101734
0.129069
0.0812186
0.329338
0.40698
0.0777468
0.101995
0.289067
0.187602
0.297557
0.395122
0.463497
0.522405
0.395178
0.406519
0.458244
0.425078
0.471899
0.0369264
0.0566237
0.219152
0.0350032
0.0416321
0.0976544
0.0978831
0.140665
0.0478182
0.230067
0.0370434
0.0547382
0.119834
0.143963
0.0521984
0.099799
0.145111
0.142399
0.387595
0.309744
0.175093
0.192864
0.278763
0.313354
0.276056
0.0942343
0.121525
0.280812
0.230227
0.139727
0.232299
0.151538
0.336661
0.335757
0.213248
0.391549
0.352747
0.297187
0.340933
0.279613
0.0406499
0.0570457
0.233854
0.0744791
0.0470447
0.0943268
0.106805
0.159181
0.0678181
0.335653
0.394561
0.010348
-0.00561026
0.199598
0.127605
0.703565
0.408126
0.445963
0.52006
0.4726
0.437466
0.495179
0.510017
0.504146
0.154407
0.0865522
0.286046
0.0505787
0.12351
0.124428
0.169715
0.307543
0.0661025
0.243606
0.0741685
0.0926156
0.135999
0.180692
0.062867
0.120232
0.131319
0.15818
0.363666
0.309959
0.163902
0.250152
0.284379
0.34149
0.305448
0.155852
0.227138
0.360972
0.28725
0.221518
0.312274
0.28236
0.37486
0.415162
0.195177
0.418537
0.414709
0.357609
0.38937
0.323263
0.401039
0.299597
0.409894
0.338767
0.3679
0.35973
0.375144
0.368304
0.197981
0.0878802
0.247004
0.0773689
0.148808
0.147817
0.153658
0.154162
0.450171
0.386721
0.507047
0.396606
0.440412
0.441342
0.452202
0.454684
0.239732
0.0744965
0.252355
0.0677624
0.167712
0.163186
0.16976
0.16639
0.263834
0.391947
0.288989
0.15675
0.269474
0.32471
0.22106
0.283979
0.264826
0.159447
0.31057
0.39082
0.27412
0.22499
0.33404
0.299435
0.403063
0.295919
0.16046
0.324975
0.347495
0.292334
0.317701
0.235992
0.400049
0.324991
0.165663
0.322462
0.369904
0.312507
0.309902
0.251753
0.079875
0.265735
0.259873
0.102725
0.143263
0.210961
0.147087
0.216463
0.403929
0.504307
0.448277
0.483042
0.481107
0.468285
0.4843
0.472664
0.358132
0.415782
0.407117
0.419249
0.38808
0.403443
0.405282
0.409001
0.140418
0.305558
0.342726
0.0438084
0.184112
0.258781
0.212904
0.259584
0.311221
0.290728
0.183004
0.388069
0.313273
0.279778
0.304383
0.232059
0.355925
0.432849
0.429723
0.334891
0.358697
0.43098
0.3611
0.418706
0.301812
0.188436
0.385464
0.339451
0.293574
0.240258
0.333459
0.308815
0.344053
0.389811
0.428246
0.430674
0.392032
0.389949
0.426631
0.440558
12.8923
6.95052
12.8872
8.62227
8.92407
7.50267
13.0063
11.1414
3.40831
1.28507
4.29703
3.69675
2.88986
2.5686
3.33176
3.13691
11.5754
9.59683
12.0811
14.216
11.9221
12.7586
13.5418
15.3166
8.30001
5.85392
9.74716
6.70045
7.69336
7.41232
8.85147
8.88395
6.26359
12.782
8.76404
5.56705
6.45949
9.32768
6.04534
8.21048
6.25132
5.54047
7.02229
10.6735
6.30907
5.53936
8.40519
6.74338
14.5588
10.6494
6.26304
12.4125
11.5679
10.2987
10.7302
9.50986
12.9088
12.414
6.37182
7.70905
12.9166
10.8935
7.92751
8.42681
0.104596
0.299428
0.257894
0.119564
0.12764
0.205062
0.140201
0.214289
0.480068
0.644078
0.615181
0.569964
0.525356
0.585135
0.561444
0.609669
0.424286
0.584472
0.55347
0.491831
0.452216
0.528582
0.485484
0.554955
0.137804
0.48944
0.432802
0.134088
0.187963
0.382693
0.173261
0.405339
0.352405
0.298416
0.140002
0.402869
0.381355
0.303904
0.342973
0.286573
0.385519
0.488868
0.558914
0.405074
0.398196
0.469445
0.442994
0.468967
0.325496
0.150559
0.438443
0.398514
0.305857
0.277808
0.350601
0.36042
0.413686
0.511185
0.504059
0.570666
0.453684
0.491276
0.506029
0.549984
0.263931
0.276491
0.295931
0.238054
0.25343
0.270286
0.263328
0.280774
0.301233
0.328154
0.322195
0.290125
0.304779
0.319902
0.306584
0.328454
0.341326
0.339942
0.371363
0.291902
0.331486
0.349295
0.339428
0.355037
0.188652
0.217813
0.204441
0.106875
0.187797
0.205018
0.161413
0.190238
0.270613
0.290994
0.235113
0.261963
0.279378
0.272282
0.262233
0.250968
0.288087
0.282225
0.324672
0.311552
0.299021
0.299107
0.303697
0.307688
0.300678
0.235853
0.258743
0.256226
0.268128
0.250854
0.258718
0.251797
0.322398
0.276124
0.285568
0.337995
0.317904
0.284493
0.315114
0.28312
0.0704134
0.188741
0.171766
0.0645195
0.11606
0.168131
0.10403
0.17359
0.290938
0.385633
0.349108
0.328639
0.324701
0.360282
0.325423
0.368844
0.224492
0.306481
0.26046
0.263343
0.268754
0.273104
0.265633
0.277958
0.0643311
0.242366
0.205884
0.0694934
0.110611
0.180993
0.10478
0.192038
0.22764
0.217574
0.112622
0.249342
0.215136
0.189617
0.207991
0.169356
0.266174
0.290229
0.315994
0.225915
0.270488
0.286018
0.259546
0.302731
0.207403
0.101491
0.240678
0.229418
0.177632
0.17864
0.236146
0.204844
0.229962
0.26646
0.299195
0.32331
0.254016
0.259009
0.30373
0.299784
1.48095
1.03765
1.08226
1.14171
1.31502
1.17367
1.22419
1.08744
0.6102
0.199507
0.456073
0.492953
0.491732
0.386282
0.502964
0.411162
0.746656
0.549371
0.505712
0.615087
0.681105
0.58855
0.624824
0.5415
0.903403
0.665361
0.688881
0.732472
0.829978
0.743524
0.76938
0.688814
0.906596
0.95928
1.04921
0.727053
0.872006
0.962575
0.804291
0.934731
0.785742
0.615014
0.57344
0.84431
0.766659
0.646311
0.765617
0.677075
0.882445
0.963241
0.695686
0.718658
0.840848
0.853904
0.771611
0.76647
0.777704
0.622545
0.609435
0.54772
0.674296
0.67281
0.642209
0.635934
0.336342
0.261579
0.653795
0.92959
0.514576
0.467025
0.644923
0.615704
0.188773
0.140009
0.405155
0.576161
0.271187
0.254115
0.448432
0.401417
0.686728
0.530065
0.50801
0.77543
0.679595
0.569937
0.651589
0.590744
1.39558
1.05789
1.10234
1.56417
1.38426
1.1428
1.37689
1.23289
0.346503
0.725679
1.06517
0.80653
0.538799
0.679122
0.739227
0.900691
0.344029
0.702487
0.508741
0.636558
0.494938
0.53925
0.525155
0.566625
0.812324
1.10714
0.913062
0.935888
1.00483
0.974579
0.993644
1.01681
0.731071
0.877851
0.815423
0.585888
0.733104
0.819421
0.644845
0.774999
0.227376
0.196071
0.254798
0.223636
0.220862
0.222532
0.238146
0.239722
0.173
0.165087
0.232384
0.241813
0.194965
0.199648
0.233564
0.236077
0.284744
0.272802
0.313268
0.276859
0.28588
0.293248
0.29483
0.311148
0.179295
0.197333
0.210112
0.111604
0.175217
0.197333
0.150011
0.190609
0.198216
0.248133
0.225799
0.229116
0.219843
0.228994
0.225712
0.240283
0.204829
0.24845
0.255214
0.257096
0.228173
0.231543
0.234064
0.243186
0.259733
0.219774
0.230038
0.244611
0.251917
0.233818
0.246931
0.225612
0.272728
0.266891
0.243985
0.273149
0.267481
0.263195
0.263
0.247065
0.0598428
0.12888
0.068175
0.165864
0.125483
0.11013
0.143489
0.126085
0.159499
0.219426
0.214081
0.188325
0.186133
0.206078
0.189804
0.210514
0.0702665
0.159957
0.0824232
0.173693
0.11594
0.113933
0.12407
0.116783
0.1807
0.17212
0.242068
0.166888
0.19809
0.204951
0.219438
0.219297
0.144749
0.120784
0.184825
0.178232
0.156593
0.162921
0.157968
0.175269
0.153742
0.192132
0.175456
0.0998321
0.164095
0.192117
0.136967
0.176185
0.129249
0.215339
0.188324
0.198436
0.164895
0.196986
0.187221
0.216526
0.108872
0.192948
0.196785
0.180043
0.151108
0.186939
0.181184
0.212383
0.537019
0.492779
0.397719
0.417453
0.539003
0.465889
0.446276
0.38966
0.384031
0.277154
0.073078
0.111843
0.2985
0.262501
0.226267
0.117885
0.245043
0.0586289
0.0685
0.117252
0.166743
0.0924799
0.113781
0.0622609
0.289442
0.0994961
0.138252
0.0948206
0.240159
0.153568
0.097377
0.117043
0.568224
0.391221
0.526953
0.348616
0.362388
0.504105
0.331458
0.319461
0.395265
0.161692
0.148166
0.282973
0.308028
0.229521
0.272273
0.174281
0.26749
0.285027
0.157271
0.124558
0.26486
0.248683
0.219647
0.259772
0.248951
0.0823658
0.0980079
0.0782955
0.184805
0.133048
0.123967
0.0826494
0.548995
0.468213
0.564854
0.439534
0.495614
0.515506
0.484231
0.500645
0.41722
0.371496
0.42431
0.319026
0.392361
0.400334
0.386943
0.392928
0.586146
0.502428
0.624831
0.498421
0.537817
0.555048
0.534216
0.546189
0.273841
0.244846
0.331402
0.135799
0.22506
0.266535
0.209752
0.238713
0.440436
0.514507
0.392919
0.334663
0.436417
0.450996
0.366448
0.408607
0.450636
0.355886
0.464967
0.531887
0.445022
0.403513
0.490487
0.45452
0.509431
0.379586
0.32237
0.386557
0.450249
0.393929
0.395324
0.343961
0.522224
0.402071
0.336032
0.459765
0.467509
0.417386
0.454376
0.374908
0.123338
0.270107
0.250527
0.290197
0.210942
0.233303
0.245436
0.263741
0.355281
0.393489
0.353224
0.426596
0.391258
0.385873
0.394639
0.389396
0.286432
0.314701
0.268308
0.340777
0.319789
0.308958
0.314022
0.309787
0.439486
0.487876
0.448243
0.587605
0.481107
0.475768
0.50531
0.492677
0.332018
0.298982
0.356274
0.422313
0.348085
0.31434
0.387823
0.364118
0.335405
0.416937
0.345395
0.303595
0.346852
0.372768
0.321151
0.3557
0.313502
0.3853
0.43516
0.394547
0.347573
0.38693
0.384507
0.406428
0.315757
0.384227
0.423567
0.349548
0.33166
0.37904
0.353843
0.390218
0.787546
0.982745
0.709311
1.00787
0.924521
0.897551
0.908777
0.899148
1.24776
1.64934
1.16182
1.68214
1.47597
1.43702
1.44817
1.42297
0.52808
0.666918
0.194909
0.649168
0.59465
0.504875
0.517239
0.44683
1.27323
1.68167
1.17321
1.642
1.48298
1.45343
1.44256
1.42645
1.1547
0.815145
1.1701
1.49525
1.14341
1.00412
1.29633
1.14892
1.13676
1.46258
0.954538
0.754648
1.13929
1.26611
0.866059
1.0245
0.768742
1.152
1.46047
0.99719
0.902702
1.14994
1.04459
1.2706
0.734685
0.948164
1.45636
0.925306
0.835504
0.978321
0.974306
1.17601
1.72657
1.48164
1.16465
1.78362
1.70163
1.4669
1.59589
1.39734
1.03072
0.350152
0.238946
1.04511
0.860845
0.504975
0.83327
0.542282
0.632887
0.202621
0.151206
0.634691
0.529089
0.285842
0.515181
0.304298
1.77493
1.54474
1.21384
1.71032
1.71052
1.50694
1.60182
1.43076
1.40006
1.08588
1.73561
1.44826
1.35182
1.35931
1.49377
1.48853
1.115
1.11666
0.362913
0.867097
1.07454
0.92693
0.818163
0.708246
1.05284
1.62821
1.38775
1.07723
1.20505
1.42195
1.14531
1.37916
0.831038
0.830758
1.13291
0.429178
0.718717
0.870596
0.658733
0.821216
0.276703
0.305295
0.272837
0.360415
0.306784
0.292238
0.30426
0.320499
0.268947
0.112398
0.0979255
0.384331
0.268448
0.168653
0.264419
0.18216
0.212683
0.087974
0.0759577
0.263875
0.208086
0.1307
0.2069
0.144793
0.472309
0.540579
0.439318
0.613152
0.508275
0.492072
0.513094
0.515159
0.327404
0.286292
0.390743
0.419595
0.32814
0.330225
0.424346
0.381457
0.288472
0.366547
0.146487
0.250739
0.310452
0.293553
0.234021
0.230761
0.287041
0.393358
0.425699
0.363114
0.347401
0.406141
0.362462
0.425324
0.272614
0.336476
0.388782
0.162372
0.260814
0.31385
0.226595
0.317637
0.451723
0.363314
0.462736
0.590707
0.464542
0.413235
0.527738
0.453626
0.239025
0.0559175
0.0527485
0.0461862
0.166567
0.108958
0.122986
0.0447551
0.323733
0.0587942
0.060412
0.0783965
0.23748
0.139717
0.152104
0.0562493
0.508052
0.075391
0.104411
0.0854811
0.397849
0.212537
0.261986
0.0925707
0.360466
0.440363
0.534081
0.264636
0.367346
0.456226
0.33761
0.426431
0.311404
0.144734
0.131234
0.373562
0.28963
0.222441
0.300442
0.215392
0.419871
0.514328
0.178855
0.205302
0.407406
0.404949
0.299921
0.316653
0.329729
0.0720287
0.0597091
0.0538352
0.255299
0.167226
0.142204
0.0585936
0.883787
1.04859
0.802525
1.22508
1.10454
1.05349
1.04637
0.982271
1.0459
0.637413
0.795698
1.29919
0.990898
0.745341
1.04958
0.839589
0.622746
0.694649
0.503316
0.822878
0.728478
0.672683
0.702502
0.646819
1.46332
1.59926
1.19586
1.67969
1.57077
1.40537
1.50366
1.36026
1.20508
0.914517
1.33989
1.42293
1.17743
1.07002
1.39668
1.23225
1.06253
1.17516
0.84588
0.837607
1.06554
1.02777
0.872871
0.993667
0.877274
1.2945
1.39315
1.04682
1.02499
1.18123
1.08734
1.22897
0.784239
0.936607
1.21157
0.881047
0.833006
0.957317
0.96892
1.1215
0.133083
0.143094
0.118694
0.933986
0.42674
0.154163
0.544381
0.333395
0.161075
0.186193
0.139475
1.00642
0.423364
0.151154
0.530312
0.330302
0.0912804
0.105227
0.0835492
0.552876
0.225893
0.0798272
0.294431
0.184919
1.49712
1.45592
1.10025
1.62468
1.65056
1.382
1.56887
1.34535
0.442238
0.310393
1.18156
1.22269
0.561428
0.551513
1.09604
0.912326
0.167847
0.890506
0.107014
0.108693
0.342088
0.545359
0.129707
0.295169
0.393426
1.18261
1.15785
0.862906
0.706882
0.980942
0.885032
1.11249
0.246893
0.722523
0.948644
0.244993
0.396028
0.652442
0.389445
0.736613
0.40521
0.438954
0.354732
0.521201
0.464752
0.449149
0.441944
0.425254
0.393018
0.2039
0.337405
0.437152
0.385664
0.296656
0.380672
0.322966
0.29991
0.325757
0.273446
0.370733
0.342634
0.316254
0.325931
0.308846
0.593112
0.60084
0.492152
0.657134
0.603203
0.541441
0.591915
0.532244
0.475637
0.408123
0.538722
0.555652
0.464803
0.455815
0.551614
0.489832
0.436623
0.466726
0.351463
0.372327
0.422241
0.426441
0.37318
0.402418
0.384443
0.524419
0.54106
0.446856
0.441077
0.484267
0.462958
0.499268
0.356058
0.404469
0.483384
0.355332
0.376228
0.414671
0.394222
0.454118
0.0196938
0.0232212
0.124601
0.0238692
0.0229577
0.0492756
0.0537362
0.0745998
0.0303002
0.0409088
0.133828
0.0403692
0.0347348
0.0722621
0.0698754
0.0946447
0.199751
0.202232
0.247935
0.242433
0.211019
0.212576
0.241405
0.237513
0.0243521
0.0378077
0.168663
0.0354243
0.0330359
0.0749953
0.0779755
0.103585
0.0267962
0.128002
0.0254375
0.0341407
0.0528276
0.0916549
0.0286011
0.058732
0.0589939
0.0733215
0.151983
0.145948
0.0808845
0.10376
0.128201
0.127754
0.168125
0.0597697
0.073375
0.194626
0.14957
0.0895123
0.150413
0.106107
0.178298
0.200274
0.0966549
0.180328
0.193513
0.174447
0.165715
0.14455
0.235556
0.166127
0.192036
0.192396
0.201037
0.194956
0.205435
0.196494
0.118537
0.0269331
0.0239808
0.0111875
0.0623774
0.0491441
0.0373694
0.0244838
0.126627
0.0292568
0.039926
0.0248121
0.0809968
0.0541475
0.0558895
0.0311905
0.110553
0.0121248
0.0178435
0.0129517
0.0504167
0.031963
0.0318998
0.0184686
0.131416
0.151635
0.135324
0.0551423
0.117594
0.135715
0.0913595
0.122041
0.132813
0.0350479
0.0578799
0.137339
0.117615
0.0648564
0.102243
0.0766825
0.140242
0.12973
0.0354176
0.0430152
0.121761
0.112618
0.0623652
0.0576298
0.130662
0.0247685
0.0200219
0.033393
0.0739709
0.0428541
0.0551447
0.0231993
0.0440087
0.0340637
0.2035
0.0392937
0.0350419
0.0793323
0.0756973
0.125193
0.0294225
0.0300623
0.122292
0.0293611
0.0232491
0.0521935
0.0506149
0.0874239
0.264113
0.20045
0.250738
0.249993
0.248147
0.237392
0.257603
0.251459
0.0377393
0.0316715
0.182552
0.041073
0.0314288
0.0639123
0.0678071
0.113324
0.0288644
0.188212
0.032657
0.027178
0.0626605
0.123634
0.0323381
0.0735289
0.0618818
0.0595932
0.165456
0.208604
0.0997224
0.102399
0.160696
0.151128
0.216756
0.0681214
0.0576514
0.202886
0.185268
0.110547
0.174132
0.108326
0.230664
0.220835
0.0982798
0.189647
0.214947
0.191298
0.179919
0.154608
1.17357
1.7236
1.29737
1.46119
1.39293
1.47197
1.38026
1.47244
2.57222
3.9447
2.54016
3.14611
3.08379
3.24435
2.96999
3.04289
1.15651
1.52233
0.614809
1.38862
1.30439
1.21451
1.13982
1.02874
1.73311
2.47107
1.82889
1.977
1.98489
2.09894
1.8892
1.938
2.07985
1.49746
1.70834
2.46677
2.03657
1.68682
2.12947
1.80453
2.16913
2.60838
2.12177
1.51342
2.09455
2.35486
1.77897
2.1307
1.42098
1.64942
2.38362
1.6955
1.57802
1.71224
1.78856
1.9671
1.41668
1.67562
2.41857
1.95075
1.58699
1.84005
2.00773
2.17282
0.265935
0.312065
0.4523
0.590343
0.375319
0.368325
0.445088
0.460852
0.354457
0.335338
0.672485
0.891788
0.559603
0.506415
0.618504
0.638872
0.516479
0.645587
0.481803
0.609348
0.587341
0.581053
0.543702
0.581722
0.811947
0.985165
0.770481
0.905806
0.838163
0.891841
0.875549
0.939508
0.458331
0.559033
0.705086
0.913554
0.576254
0.601562
0.771869
0.714233
0.438216
0.872554
0.653167
0.527585
0.5563
0.72089
0.563081
0.693849
0.534138
0.691935
0.929491
0.664156
0.638778
0.713977
0.714188
0.836425
0.558278
0.729819
0.946798
0.723434
0.652421
0.703404
0.696003
0.804148
0.0958451
0.505918
0.0722974
0.118892
0.285833
0.408075
0.107456
0.23115
0.601916
0.455788
0.355914
0.423009
0.531558
0.473034
0.45932
0.411117
0.0464778
0.217696
0.0304394
0.0364083
0.116829
0.182765
0.0399765
0.0937182
0.116516
0.338222
0.0491722
0.0862778
0.220275
0.295094
0.0793115
0.169242
0.559636
0.179115
0.26592
0.459299
0.458801
0.312447
0.431127
0.346419
0.559983
0.454456
0.369373
0.265835
0.428057
0.428448
0.332325
0.36045
0.0648347
0.100072
0.361552
0.0507236
0.0660926
0.205038
0.151424
0.276039
0.145082
0.123275
0.358536
0.287437
0.216797
0.227138
0.288277
0.269433
0.120967
0.353087
0.278413
0.111117
0.187427
0.263481
0.177558
0.242238
0.419245
0.406857
0.344596
0.365376
0.438043
0.388722
0.362008
0.352433
0.29415
0.292384
0.256999
0.252831
0.313299
0.276546
0.283533
0.258618
0.0961174
0.266342
0.179413
0.0781829
0.123389
0.185111
0.114222
0.160252
0.377798
0.313206
0.160594
0.311349
0.330222
0.307626
0.334342
0.23226
0.374301
0.298804
0.317364
0.311037
0.350469
0.349601
0.34928
0.373596
0.27973
0.149826
0.265627
0.233695
0.23623
0.209579
0.264513
0.256902
0.290259
0.23711
0.266581
0.293948
0.293514
0.255925
0.317286
0.30817
0.242265
0.213374
0.203814
0.268276
0.259128
0.227868
0.260339
0.216154
0.136347
0.0338851
0.0213389
0.0421703
0.0997502
0.0564957
0.0697791
0.0337841
0.121509
0.0182124
0.0178833
0.0265289
0.0752232
0.0418334
0.0484595
0.022987
0.217541
0.0416637
0.033237
0.0469388
0.141385
0.0871106
0.092384
0.0434881
0.200568
0.184177
0.24869
0.125469
0.186658
0.213733
0.179424
0.202795
0.159641
0.0740448
0.0469437
0.15022
0.138264
0.107721
0.125145
0.0856069
0.176233
0.230314
0.0823864
0.0658491
0.161187
0.173126
0.105125
0.125841
0.131486
0.0330019
0.0386279
0.0275472
0.095023
0.0649678
0.0587613
0.0314226
0.302734
0.282064
1.17541
0.93958
0.599881
0.523106
0.853179
0.879292
0.248109
0.173129
0.845405
0.691028
0.418537
0.389632
0.590172
0.615201
2.22274
1.65537
3.69452
2.42007
2.18954
2.27778
2.69063
2.81345
1.13982
0.933068
1.6066
1.07758
1.0951
1.15404
1.25075
1.29868
0.513299
1.36249
1.07179
0.874809
0.71702
1.0173
0.847131
1.06826
0.451665
0.87994
1.13079
1.37233
0.74943
0.857468
1.02045
1.13387
1.65908
1.21628
0.954374
1.86302
1.58816
1.26281
1.53679
1.20305
1.72494
1.92671
1.00809
1.35573
1.68864
1.6169
1.31026
1.27325
0.150919
0.136016
0.113743
1.06114
0.351235
0.150585
0.594095
0.302978
0.111177
0.0711436
0.0962742
0.743801
0.262178
0.0819068
0.489469
0.218374
0.11038
0.11803
0.134467
1.09525
0.374349
0.13925
0.663146
0.225479
2.15728
1.5855
2.47577
3.74648
2.40681
1.97687
2.8121
2.49666
0.312675
0.351517
1.30186
1.07493
0.553602
0.566572
0.893477
0.999695
0.108355
0.818934
0.0974101
0.1268
0.254584
0.480944
0.111814
0.304191
0.615712
1.63215
1.34966
1.68726
1.14795
1.33684
1.4524
1.55226
0.274377
1.1838
1.06513
0.22256
0.614348
1.13036
0.590694
0.921714
2.1584
2.75454
1.88314
2.93128
2.52355
2.40011
2.50078
2.38354
3.57161
4.8113
2.90009
5.48224
4.29504
3.96937
4.24659
3.94706
1.47876
1.64069
0.598774
1.76836
1.48945
1.26309
1.32749
1.0855
4.00686
5.74736
3.34329
5.58469
4.82815
4.65427
4.6424
4.45733
3.27687
2.14978
3.49187
4.713
3.25315
2.67997
3.89656
3.3383
3.08816
4.48211
2.37412
2.02955
3.0869
3.44643
2.36069
2.62946
2.09577
3.40608
4.58442
2.68867
2.53756
3.2453
2.83438
3.64781
1.93443
2.4438
4.39037
2.22543
2.15739
2.60776
2.486
3.17159
0.579711
1.33978
1.71994
1.35408
1.04144
1.30299
1.31649
1.54132
1.7836
2.02405
2.78781
2.09534
1.96688
2.16304
2.20516
2.34287
3.20295
3.74965
5.00267
3.58024
3.52875
3.91158
3.74534
4.0626
1.85765
2.04111
2.63864
1.97015
1.93535
2.12876
2.07926
2.24124
1.60603
2.12614
1.635
1.98859
1.84774
1.88711
1.8347
1.88538
1.81584
2.19797
2.9072
2.42946
2.04479
2.31464
2.45979
2.63999
2.4399
1.87902
2.16893
2.76099
2.4805
2.08687
2.55369
2.28009
2.68802
3.02401
2.33463
3.08503
3.04001
2.85308
2.88129
2.78413
0.206499
0.1856
0.10171