/*--------------------------------*- C++ -*----------------------------------*\
| =========                 |                                                 |
| \\      /  F ield         | OpenFOAM: The Open Source CFD Toolbox           |
|  \\    /   O peration     | Version:  2506                                  |
|   \\  /    A nd           | Website:  www.openfoam.com                      |
|    \\/     M anipulation  |                                                 |
\*---------------------------------------------------------------------------*/
FoamFile
{
    version     2.0;
    format      ascii;
    arch        "LSB;label=32;scalar=64";
    class       volScalarField;
    location    "1600";
    object      p;
}
// * * * * * * * * * * * * * * * * * * * * * * * * * * * * * * * * * * * * * //

dimensions      [0 2 -2 0 0 0 0];

internalField   nonuniform List<scalar> 
54912
(
3.59606e+09
3.36271e+09
4.05172e+09
3.56675e+09
3.57589e+09
3.68549e+09
3.5187e+09
3.67014e+09
2.92754e+09
1.84056e+09
3.12528e+09
2.63573e+09
2.74679e+09
2.52062e+09
2.80863e+09
2.76074e+09
4.7694e+09
4.30288e+09
5.89528e+09
4.51166e+09
4.57394e+09
4.75139e+09
4.72319e+09
4.79291e+09
2.7183e+09
2.34822e+09
3.07948e+09
2.0726e+09
2.53442e+09
2.57744e+09
2.49488e+09
2.6002e+09
3.18296e+09
3.91535e+09
3.15342e+09
2.79616e+09
3.21067e+09
3.69805e+09
3.14411e+09
3.23101e+09
3.21593e+09
2.75822e+09
3.57775e+09
4.26981e+09
3.28738e+09
3.07594e+09
3.69227e+09
3.62251e+09
3.96466e+09
3.13565e+09
2.73511e+09
3.52738e+09
3.79362e+09
3.26859e+09
3.52534e+09
2.99817e+09
4.21215e+09
3.64347e+09
2.80089e+09
3.83561e+09
4.14936e+09
3.63509e+09
3.75475e+09
3.12664e+09
3.37464e+09
3.61846e+09
3.56863e+09
3.30164e+09
3.48278e+09
3.75398e+09
3.53552e+09
3.76285e+09
4.02635e+09
4.58477e+09
4.68443e+09
4.12412e+09
4.25565e+09
4.29018e+09
4.58633e+09
4.88894e+09
3.52272e+09
3.83419e+09
3.39759e+09
2.91514e+09
3.48497e+09
3.83274e+09
3.21046e+09
3.48891e+09
2.63711e+09
3.02328e+09
2.47557e+09
2.05373e+09
2.56113e+09
2.83853e+09
2.25146e+09
2.4962e+09
3.74594e+09
3.51774e+09
3.2109e+09
3.50322e+09
3.91829e+09
3.6307e+09
3.70231e+09
3.54739e+09
4.09845e+09
3.75954e+09
4.44281e+09
3.85304e+09
4.31425e+09
4.13483e+09
4.17157e+09
3.95038e+09
3.38679e+09
2.91871e+09
3.37813e+09
2.76355e+09
3.13626e+09
3.18284e+09
3.018e+09
3.05156e+09
3.65916e+09
2.98637e+09
3.60662e+09
4.05863e+09
3.58153e+09
3.2924e+09
3.88572e+09
3.5898e+09
4.163e+09
7.22061e+09
6.06647e+09
6.27229e+09
6.31787e+09
6.34096e+09
6.13007e+09
6.61672e+09
9.90809e+09
1.32715e+10
1.07083e+10
1.23249e+10
1.13611e+10
1.07008e+10
1.08432e+10
1.15033e+10
7.2803e+09
9.18745e+09
8.06517e+09
8.0146e+09
8.76099e+09
7.8546e+09
8.34865e+09
8.6409e+09
8.33716e+09
1.03649e+10
8.69672e+09
7.94665e+09
8.7432e+09
8.54933e+09
8.5427e+09
8.90264e+09
8.37324e+09
7.54666e+09
7.87899e+09
1.05163e+10
8.34166e+09
7.84046e+09
9.59586e+09
8.23559e+09
8.67238e+09
1.01383e+10
9.06408e+09
7.24162e+09
9.10774e+09
1.05445e+10
8.49597e+09
9.76087e+09
7.38128e+09
7.84439e+09
9.81978e+09
8.3596e+09
7.78659e+09
8.57572e+09
8.52719e+09
1.00905e+10
7.85782e+09
8.21674e+09
1.03151e+10
1.0184e+10
9.27124e+09
7.97394e+09
9.39779e+09
9.01297e+09
1.80653e+08
7.68272e+08
3.7152e+08
1.51151e+09
6.63539e+08
5.76161e+08
7.61326e+08
7.83992e+08
1.42652e+09
1.97837e+09
2.12171e+09
3.00971e+09
2.04553e+09
2.00055e+09
2.53721e+09
2.47178e+09
4.43882e+08
1.74495e+09
6.1533e+08
2.29848e+09
1.26902e+09
1.30053e+09
1.12191e+09
1.42035e+09
3.23228e+09
4.19592e+09
4.2018e+09
5.68102e+09
4.07181e+09
3.92543e+09
4.38716e+09
4.60064e+09
1.45043e+09
9.56529e+08
2.13216e+09
2.93996e+09
1.89663e+09
1.45135e+09
2.33373e+09
2.06299e+09
1.39926e+09
2.86092e+09
2.03237e+09
1.01e+09
1.79658e+09
2.39718e+09
1.20514e+09
1.97912e+09
1.05616e+09
2.28836e+09
3.29878e+09
2.88955e+09
2.07379e+09
2.32669e+09
2.7949e+09
3.21682e+09
1.08693e+09
3.00181e+09
3.27436e+09
2.2704e+09
2.02048e+09
2.71072e+09
2.28306e+09
2.93207e+09
1.45697e+09
3.6389e+09
4.01015e+09
5.34191e+09
3.05614e+09
3.26611e+09
3.68948e+09
4.392e+09
6.40667e+09
1.00702e+10
1.06935e+10
9.86691e+09
8.62304e+09
9.67602e+09
9.5069e+09
1.17497e+10
6.39616e+09
1.05197e+10
9.25643e+09
1.42368e+10
1.04538e+10
8.36861e+09
1.07243e+10
1.19246e+10
8.87528e+09
1.13755e+10
1.2661e+10
1.02316e+10
1.13123e+10
1.20962e+10
1.08726e+10
1.28347e+10
5.9494e+09
6.08058e+09
7.33301e+09
1.00179e+10
6.70187e+09
5.95561e+09
7.40064e+09
7.33719e+09
5.59688e+09
1.03275e+10
9.60395e+09
5.44116e+09
7.54505e+09
8.62045e+09
6.40455e+09
9.43098e+09
7.01612e+09
7.80244e+09
1.04696e+10
1.1334e+10
8.54154e+09
9.4513e+09
1.09618e+10
1.09719e+10
6.65158e+09
1.45252e+10
1.26742e+10
1.2527e+10
8.37607e+09
1.17144e+10
9.88854e+09
1.16949e+10
5.54165e+08
4.24801e+08
2.31995e+08
1.71391e+09
9.30994e+08
2.7703e+08
1.19884e+09
7.15982e+08
3.33801e+08
1.59391e+08
1.31545e+08
6.09687e+08
4.65568e+08
1.52272e+08
5.71697e+08
3.35253e+08
1.40229e+08
1.16616e+08
7.19693e+07
4.46658e+08
3.49626e+08
1.35403e+08
4.66803e+08
3.10247e+08
1.62738e+09
1.02107e+09
7.7145e+08
1.2799e+09
1.32547e+09
1.14075e+09
1.32708e+09
1.11542e+09
6.42821e+08
5.56068e+08
1.3642e+09
9.88895e+08
8.478e+08
8.67959e+08
1.05624e+09
9.93706e+08
1.78411e+08
6.57431e+08
1.67167e+08
2.02759e+08
4.71704e+08
6.83227e+08
1.96311e+08
4.50142e+08
7.86557e+08
1.46202e+09
9.72079e+08
9.55455e+08
8.16728e+08
1.17549e+09
8.75025e+08
9.36667e+08
4.70354e+08
7.51501e+08
8.04138e+08
3.33978e+08
6.15479e+08
7.44882e+08
5.48227e+08
5.59713e+08
1.81048e+09
2.13428e+09
1.45657e+09
1.94049e+09
1.91165e+09
1.84188e+09
1.76998e+09
1.78889e+09
2.55784e+09
3.34779e+09
2.06514e+09
2.67888e+09
3.2137e+09
3.01176e+09
2.35712e+09
2.57566e+09
9.2644e+08
1.11621e+09
3.61232e+08
8.17603e+08
9.68037e+08
8.50693e+08
5.84777e+08
5.51627e+08
1.85862e+09
2.16474e+09
1.29058e+09
1.88196e+09
1.90538e+09
1.9589e+09
1.50181e+09
1.5244e+09
2.37125e+09
1.55808e+09
2.01361e+09
2.48905e+09
2.17158e+09
1.84348e+09
2.2065e+09
2.04064e+09
2.34549e+09
2.40942e+09
1.72102e+09
1.49886e+09
2.14005e+09
2.20766e+09
1.7065e+09
1.82063e+09
1.28653e+09
1.74892e+09
2.0231e+09
1.14288e+09
1.47667e+09
1.74891e+09
1.54798e+09
1.8163e+09
1.22051e+09
1.09561e+09
2.10783e+09
1.41874e+09
1.25695e+09
1.49493e+09
1.47872e+09
1.69601e+09
1.23705e+09
3.99383e+09
1.68373e+09
5.39308e+09
2.68604e+09
2.658e+09
3.25531e+09
3.09451e+09
6.42466e+09
9.51723e+09
7.52357e+09
1.2102e+10
8.95038e+09
8.79932e+09
9.33053e+09
9.58406e+09
2.1947e+09
4.49393e+09
1.19005e+09
3.84305e+09
3.37634e+09
3.41511e+09
2.61298e+09
2.84561e+09
9.49804e+09
1.15672e+10
8.03155e+09
1.04121e+10
1.04818e+10
1.03498e+10
1.01772e+10
1.0528e+10
5.81336e+09
3.24784e+09
6.92033e+09
1.02389e+10
6.01737e+09
4.78943e+09
8.19028e+09
6.74988e+09
5.801e+09
9.71935e+09
6.17478e+09
3.18462e+09
6.06958e+09
7.09915e+09
4.59399e+09
6.0171e+09
3.50916e+09
7.71156e+09
1.03965e+10
7.04331e+09
5.90381e+09
7.58985e+09
7.61791e+09
8.95306e+09
3.5396e+09
7.508e+09
1.06224e+10
5.59713e+09
4.40484e+09
7.2799e+09
5.25928e+09
7.84338e+09
3.49663e+09
3.74367e+09
3.32296e+09
3.22763e+09
3.61012e+09
3.57762e+09
3.60996e+09
3.37328e+09
3.98362e+09
3.72387e+09
3.08383e+09
3.25743e+09
3.90061e+09
3.57806e+09
3.48917e+09
3.3246e+09
2.98404e+09
2.55461e+09
2.12211e+09
2.24347e+09
2.64289e+09
2.49444e+09
2.31727e+09
2.23068e+09
2.7118e+09
2.64911e+09
2.14419e+09
2.19848e+09
2.57534e+09
2.57941e+09
2.21223e+09
2.1954e+09
3.7453e+09
3.16948e+09
3.02475e+09
3.17666e+09
3.39108e+09
3.23409e+09
3.3117e+09
3.20817e+09
3.82929e+09
3.14788e+09
2.99163e+09
3.2736e+09
3.54851e+09
3.23599e+09
3.43873e+09
3.21304e+09
3.04238e+09
2.90099e+09
2.77955e+09
2.33698e+09
2.84367e+09
2.82023e+09
2.53148e+09
2.60538e+09
2.95273e+09
2.24107e+09
2.79224e+09
2.66484e+09
2.69179e+09
2.59597e+09
2.77558e+09
2.63528e+09
2.39116e+10
2.45929e+10
2.21565e+10
2.12807e+10
2.44535e+10
2.30238e+10
2.42316e+10
2.06517e+10
2.45096e+10
1.53133e+10
1.3716e+10
2.1474e+10
2.0555e+10
1.83145e+10
1.84994e+10
1.42298e+10
1.93164e+10
1.24908e+10
1.27308e+10
1.27997e+10
1.62605e+10
1.64905e+10
1.43157e+10
1.45687e+10
1.82236e+10
1.8256e+10
1.55261e+10
1.54935e+10
1.53293e+10
1.56601e+10
1.44144e+10
1.2031e+10
2.2878e+10
2.05211e+10
2.11369e+10
1.88154e+10
2.12269e+10
2.04058e+10
2.24907e+10
1.97244e+10
2.23702e+10
1.92399e+10
1.78099e+10
2.07063e+10
1.88952e+10
1.89549e+10
2.06117e+10
1.85362e+10
1.92154e+10
2.04731e+10
1.58032e+10
1.34616e+10
1.82587e+10
1.64824e+10
1.52155e+10
1.6917e+10
1.84263e+10
1.27535e+10
1.50964e+10
1.45755e+10
1.68271e+10
1.53913e+10
1.64945e+10
1.54499e+10
8.10268e+08
8.74335e+08
1.01226e+09
9.45445e+08
8.3601e+08
8.71972e+08
8.89352e+08
9.48285e+08
9.38244e+08
9.30097e+08
1.08898e+09
1.06199e+09
9.27349e+08
9.50721e+08
1.01608e+09
1.06023e+09
1.2844e+09
1.25858e+09
1.49364e+09
1.5081e+09
1.34146e+09
1.33959e+09
1.40956e+09
1.41377e+09
1.16886e+09
1.22726e+09
1.52717e+09
1.47056e+09
1.24948e+09
1.25556e+09
1.37844e+09
1.43381e+09
8.95761e+08
1.0552e+09
1.00433e+09
1.05631e+09
9.66691e+08
1.0106e+09
1.03263e+09
1.03724e+09
9.23137e+08
1.0707e+09
1.13201e+09
1.08637e+09
1.01475e+09
1.08537e+09
1.09387e+09
1.11684e+09
1.14605e+09
1.07993e+09
1.14373e+09
1.40456e+09
1.2491e+09
1.13528e+09
1.30421e+09
1.23103e+09
1.20151e+09
1.43082e+09
1.19026e+09
1.21597e+09
1.26821e+09
1.3053e+09
1.18524e+09
1.25003e+09
2.59598e+08
5.97113e+08
5.49463e+08
5.52204e+08
3.75454e+08
5.6522e+08
4.6615e+08
5.99899e+08
7.70454e+08
8.89173e+08
8.72982e+08
1.00027e+09
8.36037e+08
8.52968e+08
8.95063e+08
8.93335e+08
7.03956e+08
8.0941e+08
7.51644e+08
8.73805e+08
7.66767e+08
7.74185e+08
7.87357e+08
7.91373e+08
9.28822e+08
1.15261e+09
1.0721e+09
1.3475e+09
1.06607e+09
1.08993e+09
1.14369e+09
1.15383e+09
6.6811e+08
6.47899e+08
6.86076e+08
9.15285e+08
7.40542e+08
6.92815e+08
8.71183e+08
7.9402e+08
7.71952e+08
9.43761e+08
8.17977e+08
7.28054e+08
7.98125e+08
8.75401e+08
7.74036e+08
8.0795e+08
6.98602e+08
7.68832e+08
9.90167e+08
9.19804e+08
7.96713e+08
8.46611e+08
8.86389e+08
9.6243e+08
7.50257e+08
9.31619e+08
9.91922e+08
8.4179e+08
8.32822e+08
8.9508e+08
8.48529e+08
9.6981e+08
8.43526e+07
2.76106e+08
1.54429e+08
1.19339e+09
3.84373e+08
2.2121e+08
5.55037e+08
3.63535e+08
3.2848e+08
2.82319e+08
1.02281e+08
1.68299e+09
3.89884e+08
1.05331e+08
8.05558e+08
3.07897e+08
-5.10034e+07
2.42675e+07
1.78517e+08
1.40961e+09
4.50693e+08
1.90981e+08
1.39485e+09
6.74205e+08
3.12839e+09
4.01996e+09
3.50008e+09
5.47899e+09
3.89937e+09
4.09895e+09
3.63111e+09
3.22396e+09
5.34685e+08
2.79104e+08
1.84743e+09
2.03779e+09
7.95564e+08
8.68481e+08
1.82605e+09
1.76717e+09
2.55283e+08
1.69003e+09
1.45458e+08
1.38208e+08
4.32595e+08
9.88563e+08
3.13446e+08
4.94427e+08
5.57078e+08
2.15858e+09
2.54275e+09
2.83538e+09
1.69281e+09
1.77219e+09
2.32233e+09
2.82543e+09
-6.21652e+06
1.35945e+09
2.04247e+09
2.72236e+08
1.07675e+09
2.3933e+09
9.44159e+08
2.13317e+09
5.87506e+08
5.79761e+08
5.39458e+08
6.2921e+08
5.93537e+08
5.65219e+08
5.98494e+08
5.61375e+08
5.73665e+08
5.57078e+08
4.85237e+08
5.91372e+08
5.83517e+08
5.42872e+08
5.78245e+08
5.26483e+08
4.59361e+08
3.91256e+08
2.53125e+08
4.18508e+08
4.34479e+08
3.76144e+08
4.07852e+08
3.52216e+08
6.60988e+08
6.35838e+08
5.37732e+08
6.89085e+08
6.61804e+08
6.21529e+08
6.55322e+08
6.05398e+08
5.93271e+08
5.25539e+08
6.30856e+08
6.1446e+08
5.98312e+08
5.80405e+08
6.11597e+08
6.03179e+08
5.56227e+08
5.75121e+08
4.66667e+08
4.97007e+08
5.51334e+08
5.61964e+08
5.15687e+08
5.04529e+08
5.11063e+08
6.34571e+08
6.13151e+08
5.26762e+08
5.43666e+08
5.82804e+08
5.38091e+08
5.87871e+08
4.81448e+08
4.80672e+08
5.69574e+08
4.49227e+08
4.72603e+08
4.97852e+08
4.87149e+08
5.09541e+08
1.5153e+09
1.27788e+09
1.27898e+09
1.56341e+09
1.46383e+09
1.33356e+09
1.40009e+09
1.31644e+09
1.06282e+09
7.94382e+08
7.65092e+08
9.73948e+08
9.54311e+08
8.4515e+08
9.44206e+08
8.44096e+08
1.00746e+09
7.74465e+08
7.71327e+08
9.58748e+08
9.07867e+08
7.89855e+08
8.78214e+08
8.12935e+08
1.59371e+09
1.13427e+09
1.18138e+09
1.5165e+09
1.49012e+09
1.12859e+09
1.3816e+09
1.14456e+09
1.17009e+09
1.16735e+09
1.47942e+09
1.12592e+09
1.13333e+09
1.22361e+09
1.20125e+09
1.22213e+09
1.06588e+09
1.00913e+09
8.09019e+08
1.00469e+09
1.06432e+09
1.02046e+09
1.01076e+09
9.12168e+08
1.13042e+09
1.38691e+09
1.08424e+09
1.06589e+09
1.26089e+09
1.22263e+09
1.12542e+09
1.17356e+09
1.01222e+09
9.42744e+08
9.98566e+08
8.17637e+08
9.57737e+08
9.51687e+08
8.97681e+08
9.52501e+08
7.35906e+08
7.27846e+08
6.73304e+08
8.99846e+08
7.55178e+08
7.14786e+08
7.6509e+08
7.30769e+08
7.28436e+08
7.32468e+08
7.37937e+08
9.13898e+08
7.71458e+08
7.4438e+08
8.17283e+08
7.71021e+08
5.58028e+08
5.17575e+08
2.6857e+08
5.81514e+08
5.54146e+08
5.28131e+08
4.75331e+08
3.93825e+08
1.06125e+09
1.1096e+09
9.73277e+08
1.39745e+09
1.1451e+09
1.05246e+09
1.15195e+09
1.12265e+09
7.40671e+08
7.1214e+08
8.95739e+08
9.4001e+08
7.83138e+08
8.03384e+08
8.95846e+08
8.47044e+08
7.18438e+08
8.82597e+08
6.77689e+08
6.83094e+08
7.3738e+08
8.19885e+08
6.99455e+08
7.53565e+08
6.87675e+08
9.1117e+08
9.33511e+08
7.75669e+08
7.75172e+08
8.76511e+08
8.12701e+08
9.25348e+08
6.4126e+08
7.28113e+08
8.76961e+08
6.14268e+08
6.52617e+08
7.41542e+08
6.78337e+08
8.23738e+08
4.33788e+10
3.27172e+10
3.5815e+10
4.57913e+10
3.79345e+10
3.32599e+10
4.03813e+10
3.35905e+10
2.30288e+10
1.42795e+10
1.83662e+10
1.8937e+10
1.97189e+10
1.77729e+10
2.09476e+10
1.82131e+10
2.85059e+10
2.19445e+10
2.31055e+10
2.56074e+10
2.64053e+10
2.25457e+10
2.66857e+10
2.50499e+10
4.15791e+10
1.96763e+10
2.61741e+10
1.70886e+10
2.52519e+10
2.38125e+10
2.64314e+10
2.42862e+10
2.92774e+10
3.18117e+10
3.81698e+10
2.33677e+10
3.03359e+10
3.14899e+10
3.19573e+10
3.12336e+10
2.59837e+10
2.22858e+10
2.11531e+10
2.6442e+10
2.61377e+10
2.35978e+10
2.56722e+10
2.40439e+10
3.25154e+10
3.85385e+10
2.42624e+10
2.83141e+10
3.34819e+10
3.3696e+10
2.85512e+10
3.12911e+10
2.82541e+10
2.69023e+10
2.13156e+10
2.27682e+10
2.72543e+10
2.48693e+10
2.48241e+10
2.25083e+10
8.51295e+08
8.51769e+08
7.87907e+08
6.96537e+08
8.12137e+08
8.30698e+08
7.56782e+08
7.80689e+08
8.07428e+08
7.21841e+08
6.92119e+08
6.03784e+08
7.3792e+08
7.33612e+08
6.53872e+08
6.78045e+08
7.15252e+08
6.65944e+08
6.43281e+08
5.65755e+08
6.66072e+08
6.70195e+08
6.18977e+08
6.27314e+08
5.63564e+08
5.23994e+08
5.05144e+08
4.4912e+08
5.29887e+08
5.34564e+08
4.94267e+08
4.94024e+08
7.87946e+08
7.4449e+08
6.55282e+08
6.08106e+08
7.16073e+08
7.15587e+08
6.56261e+08
6.6761e+08
8.00503e+08
6.1332e+08
6.99448e+08
7.52586e+08
7.44581e+08
6.77617e+08
7.51297e+08
6.93581e+08
6.90573e+08
6.17973e+08
5.56e+08
5.51783e+08
6.36747e+08
6.29756e+08
5.9223e+08
5.73443e+08
7.08853e+08
5.51321e+08
5.63949e+08
6.4969e+08
6.47877e+08
5.95202e+08
6.3641e+08
5.81469e+08
2.43153e+08
3.78104e+08
2.44908e+08
3.27562e+08
3.28942e+08
3.47345e+08
3.13116e+08
3.17228e+08
4.90245e+08
6.37274e+08
4.3742e+08
5.04994e+08
5.4175e+08
5.44973e+08
5.11153e+08
5.01553e+08
2.05722e+08
2.72943e+08
1.13109e+08
2.52055e+08
2.3473e+08
2.34307e+08
2.14769e+08
1.88811e+08
3.61651e+08
4.48111e+08
3.36499e+08
3.92991e+08
3.96718e+08
4.02332e+08
3.81549e+08
3.73726e+08
4.33488e+08
2.89608e+08
3.7344e+08
4.51069e+08
4.094e+08
3.479e+08
4.15541e+08
3.77641e+08
4.4884e+08
4.63471e+08
3.80871e+08
2.99161e+08
4.14769e+08
4.3791e+08
3.50644e+08
3.82557e+08
2.65172e+08
3.57028e+08
4.29891e+08
3.01675e+08
2.95704e+08
3.55099e+08
3.3247e+08
3.86641e+08
2.68976e+08
2.94007e+08
4.31444e+08
3.34006e+08
3.01517e+08
3.17664e+08
3.51342e+08
3.87845e+08
5.94299e+08
6.24168e+08
5.24662e+08
5.32878e+08
5.83323e+08
5.90062e+08
5.43866e+08
5.41796e+08
6.45991e+08
6.61607e+08
5.17821e+08
5.55264e+08
6.18417e+08
6.30624e+08
5.71314e+08
5.71582e+08
4.44098e+08
4.06618e+08
2.92472e+08
3.61053e+08
4.11515e+08
3.99429e+08
3.75689e+08
3.61363e+08
4.74636e+08
4.7955e+08
3.86257e+08
4.14455e+08
4.48765e+08
4.55746e+08
4.20982e+08
4.14884e+08
5.90358e+08
5.03752e+08
5.14512e+08
5.13621e+08
5.47825e+08
5.32682e+08
5.44224e+08
5.19005e+08
6.1102e+08
5.39276e+08
5.20902e+08
5.04497e+08
5.50947e+08
5.48785e+08
5.37282e+08
5.1167e+08
4.54141e+08
4.94957e+08
4.83518e+08
3.95155e+08
4.55288e+08
4.78499e+08
4.44328e+08
4.71308e+08
4.57656e+08
4.00506e+08
4.7483e+08
4.66843e+08
4.53262e+08
4.38558e+08
4.6668e+08
4.42926e+08
2.19574e+10
2.77342e+10
2.46076e+10
1.98232e+10
2.30131e+10
2.56756e+10
2.34259e+10
2.35249e+10
3.51178e+10
4.68585e+10
3.85441e+10
3.01211e+10
3.45553e+10
3.78688e+10
3.21248e+10
3.83027e+10
2.42674e+10
2.97208e+10
1.88467e+10
2.50329e+10
2.39678e+10
2.57582e+10
2.46801e+10
2.14726e+10
1.78542e+10
2.10673e+10
1.99719e+10
1.51929e+10
1.65729e+10
1.95274e+10
1.5553e+10
1.70484e+10
2.79285e+10
2.45135e+10
1.9759e+10
2.40644e+10
2.72789e+10
2.61803e+10
2.4876e+10
2.34458e+10
3.01484e+10
2.68785e+10
3.24432e+10
2.7277e+10
2.67308e+10
3.04615e+10
3.0346e+10
3.04026e+10
2.43689e+10
2.02991e+10
2.29804e+10
2.04161e+10
2.32523e+10
2.03853e+10
2.15942e+10
2.16391e+10
2.50485e+10
2.24559e+10
2.49155e+10
2.92422e+10
2.62686e+10
2.48999e+10
2.90145e+10
2.7116e+10
1.13763e+09
1.21452e+09
1.06901e+09
1.13256e+09
1.13447e+09
1.14287e+09
1.10544e+09
1.0877e+09
1.36743e+09
1.51924e+09
1.25995e+09
1.22526e+09
1.39976e+09
1.46632e+09
1.31221e+09
1.34837e+09
9.70043e+08
9.95622e+08
8.35172e+08
8.91148e+08
9.32125e+08
9.38812e+08
8.97697e+08
8.92749e+08
1.06244e+09
1.09536e+09
9.52348e+08
9.52483e+08
1.03874e+09
1.0465e+09
9.7914e+08
9.84307e+08
1.22807e+09
1.05696e+09
1.12234e+09
1.18307e+09
1.21453e+09
1.11423e+09
1.16274e+09
1.12705e+09
1.22908e+09
1.2114e+09
1.15873e+09
1.06333e+09
1.18083e+09
1.20335e+09
1.10361e+09
1.12862e+09
1.03081e+09
1.0728e+09
1.12396e+09
9.47702e+08
1.03095e+09
1.0651e+09
9.93318e+08
1.05805e+09
1.01556e+09
9.41355e+08
1.1387e+09
1.06171e+09
1.00812e+09
9.9945e+08
1.06598e+09
1.05979e+09
2.44506e+08
2.86186e+08
8.59965e+08
9.68392e+08
4.75273e+08
5.29719e+08
8.46952e+08
7.30453e+08
2.91466e+08
2.43006e+08
7.96089e+08
9.68222e+08
4.25757e+08
4.23106e+08
7.33508e+08
6.57822e+08
1.27211e+09
1.28029e+09
1.56021e+09
1.82403e+09
1.46432e+09
1.53261e+09
1.73848e+09
1.6778e+09
1.84762e+09
1.88724e+09
2.19431e+09
2.99454e+09
2.10941e+09
2.21067e+09
2.5904e+09
2.27408e+09
4.8121e+08
1.0168e+09
1.22194e+09
1.33254e+09
7.93026e+08
9.52948e+08
1.08734e+09
1.37809e+09
4.94289e+08
1.31172e+09
1.07196e+09
1.1512e+09
7.48255e+08
9.35781e+08
8.72554e+08
1.06125e+09
1.42082e+09
1.60517e+09
1.56274e+09
2.15804e+09
1.54713e+09
1.44334e+09
1.78718e+09
1.68227e+09
1.26641e+09
1.95003e+09
1.47403e+09
1.28909e+09
1.4565e+09
1.89012e+09
1.36476e+09
1.52293e+09
3.57471e+09
3.69522e+09
3.49081e+09
3.83307e+09
3.44792e+09
3.25539e+09
3.48818e+09
3.56513e+09
4.00222e+09
4.35622e+09
3.60085e+09
4.65618e+09
4.03176e+09
3.96427e+09
4.32165e+09
4.40681e+09
2.98707e+09
2.90906e+09
2.13865e+09
2.67279e+09
2.8335e+09
2.68832e+09
2.58167e+09
2.55304e+09
4.15142e+09
4.33291e+09
3.47485e+09
4.19236e+09
3.82655e+09
3.61096e+09
3.64313e+09
3.87376e+09
3.7071e+09
3.46656e+09
3.89095e+09
4.28915e+09
3.70769e+09
3.61334e+09
4.24043e+09
3.67679e+09
3.47407e+09
4.15882e+09
3.27764e+09
3.35316e+09
3.80577e+09
4.13839e+09
3.49596e+09
3.55701e+09
3.31447e+09
3.8923e+09
4.02707e+09
3.12169e+09
3.65685e+09
3.90772e+09
3.50163e+09
3.7786e+09
3.19734e+09
3.10886e+09
4.15742e+09
3.29749e+09
3.30725e+09
3.27106e+09
3.44386e+09
3.4794e+09
6.51273e+07
2.45584e+08
8.34588e+07
2.7413e+08
2.00578e+08
2.04844e+08
2.23914e+08
2.27377e+08
4.32749e+08
6.69975e+08
6.24059e+08
7.1815e+08
6.31031e+08
6.28154e+08
6.61712e+08
7.00788e+08
1.19549e+08
4.72464e+08
1.90833e+08
5.60601e+08
3.39229e+08
3.68294e+08
3.92172e+08
3.94228e+08
5.21856e+08
7.62568e+08
7.16326e+08
7.99349e+08
6.80623e+08
6.91436e+08
6.94339e+08
7.41594e+08
4.14333e+08
2.57546e+08
4.36766e+08
6.59224e+08
4.57571e+08
3.40751e+08
4.75466e+08
4.4711e+08
4.07817e+08
6.78085e+08
5.47754e+08
3.15327e+08
4.53678e+08
5.69773e+08
3.51081e+08
5.24985e+08
3.21081e+08
4.53399e+08
6.79812e+08
5.9777e+08
3.8866e+08
4.72004e+08
5.60069e+08
5.92952e+08
3.00114e+08
6.33899e+08
7.32444e+08
5.95409e+08
4.19507e+08
5.89075e+08
5.58913e+08
6.84849e+08
1.70133e+09
1.38195e+09
1.94038e+09
1.70044e+09
1.70111e+09
1.58214e+09
1.97043e+09
1.7612e+09
1.15516e+09
9.94935e+08
1.20677e+09
1.15213e+09
1.11665e+09
1.09099e+09
1.18123e+09
1.12833e+09
1.80879e+09
1.49032e+09
1.76735e+09
1.87478e+09
1.71383e+09
1.55328e+09
1.87093e+09
1.71896e+09
1.80411e+09
1.38889e+09
2.00774e+09
1.83434e+09
1.74312e+09
1.63801e+09
2.00849e+09
1.80988e+09
1.32052e+09
1.75429e+09
1.74523e+09
1.3038e+09
1.42795e+09
1.65146e+09
1.38537e+09
1.64731e+09
1.29746e+09
1.28675e+09
1.33613e+09
1.53966e+09
1.36672e+09
1.34099e+09
1.45613e+09
1.39304e+09
2.01754e+09
1.99569e+09
1.41235e+09
2.02991e+09
1.96372e+09
1.81939e+09
1.82437e+09
1.74279e+09
1.72052e+09
1.78726e+09
1.36903e+09
1.4062e+09
1.58434e+09
1.63179e+09
1.49034e+09
1.47111e+09
8.19254e+09
5.54981e+09
9.84764e+09
7.98391e+09
6.62414e+09
6.28339e+09
7.50206e+09
7.13059e+09
3.53129e+09
1.53959e+09
3.13334e+09
2.33434e+09
2.91189e+09
2.41861e+09
2.90381e+09
2.40591e+09
1.04672e+10
5.43201e+09
9.71101e+09
7.16066e+09
8.24361e+09
7.32445e+09
8.87332e+09
7.87219e+09
6.18797e+09
3.14563e+09
5.67976e+09
4.54581e+09
4.74848e+09
4.4472e+09
5.51436e+09
4.94983e+09
4.79554e+09
7.88669e+09
5.94141e+09
3.90253e+09
5.25718e+09
7.18166e+09
4.69778e+09
6.13741e+09
4.60571e+09
3.60301e+09
4.44091e+09
7.50198e+09
5.09688e+09
4.11779e+09
5.96814e+09
4.98299e+09
8.31273e+09
6.79833e+09
4.111e+09
7.07011e+09
8.634e+09
6.95492e+09
6.28295e+09
5.21788e+09
7.95419e+09
6.38025e+09
3.89599e+09
4.46813e+09
6.8248e+09
5.90371e+09
5.27243e+09
4.21885e+09
1.38004e+08
4.67792e+08
1.37772e+08
4.69016e+08
3.57327e+08
3.91659e+08
2.98851e+08
3.27121e+08
7.19938e+08
8.86798e+08
7.5128e+08
1.00096e+09
8.54829e+08
8.44959e+08
8.7996e+08
8.43876e+08
1.46412e+08
5.40707e+08
1.45221e+08
4.91908e+08
3.54119e+08
3.85919e+08
2.99602e+08
3.2772e+08
8.89567e+08
1.19829e+09
9.34763e+08
1.48106e+09
1.09508e+09
1.05233e+09
1.2045e+09
1.0707e+09
6.80263e+08
3.57853e+08
6.7948e+08
1.00396e+09
6.50042e+08
5.10647e+08
8.17542e+08
6.82625e+08
7.16123e+08
9.73431e+08
6.91934e+08
4.00383e+08
6.37144e+08
7.87523e+08
5.14052e+08
6.48631e+08
3.04161e+08
6.76617e+08
1.00771e+09
6.87449e+08
5.07177e+08
6.2053e+08
6.63551e+08
7.95825e+08
3.25824e+08
6.55986e+08
9.53375e+08
6.49716e+08
4.96494e+08
6.35769e+08
6.54665e+08
8.39777e+08
2.24746e+10
1.94225e+10
2.81018e+10
2.15637e+10
2.12151e+10
2.16495e+10
2.18445e+10
2.10953e+10
1.81111e+10
2.10456e+10
2.82931e+10
2.53552e+10
1.64739e+10
1.79917e+10
1.86575e+10
1.89037e+10
3.49171e+10
3.86926e+10
4.52344e+10
2.91179e+10
3.30384e+10
4.44941e+10
3.41007e+10
3.59571e+10
1.73582e+10
1.93383e+10
2.11158e+10
1.5101e+10
1.67715e+10
1.79572e+10
1.58136e+10
1.72775e+10
1.91865e+10
2.80756e+10
2.09615e+10
2.10871e+10
2.22689e+10
2.265e+10
2.23867e+10
2.17467e+10
1.88487e+10
2.37624e+10
3.17354e+10
3.21909e+10
1.93396e+10
2.25562e+10
2.68065e+10
2.53187e+10
3.09326e+10
2.00396e+10
2.03422e+10
2.2996e+10
2.49617e+10
2.01812e+10
2.35698e+10
2.10172e+10
2.65996e+10
2.52954e+10
2.3237e+10
2.88065e+10
2.96644e+10
2.68838e+10
2.8277e+10
2.76664e+10
1.40101e+09
1.58241e+09
4.99809e+09
5.94661e+09
2.48904e+09
2.39298e+09
4.0763e+09
3.94465e+09
1.55934e+09
1.33759e+09
4.69633e+09
4.34017e+09
2.36652e+09
2.28773e+09
4.09595e+09
4.01498e+09
8.58552e+09
7.77428e+09
1.00797e+10
1.36456e+10
9.56804e+09
9.48423e+09
1.12876e+10
1.07606e+10
1.03277e+10
8.64327e+09
1.23838e+10
1.07116e+10
1.05098e+10
1.0146e+10
1.13314e+10
1.12846e+10
2.34767e+09
6.12862e+09
7.07604e+09
6.51882e+09
4.07009e+09
4.99311e+09
6.28049e+09
6.521e+09
2.30762e+09
6.42311e+09
5.67349e+09
5.81347e+09
3.82454e+09
5.29107e+09
5.07368e+09
5.94474e+09
7.37804e+09
8.5203e+09
8.73867e+09
1.14584e+10
9.21978e+09
8.34118e+09
1.02316e+10
9.65186e+09
7.02557e+09
1.16648e+10
8.43632e+09
7.0221e+09
8.39996e+09
9.94782e+09
7.49611e+09
8.74021e+09
2.6276e+09
6.1565e+09
7.73664e+09
6.64696e+09
4.95606e+09
5.55674e+09
5.83571e+09
7.04812e+09
9.40239e+09
1.36866e+10
1.69085e+10
2.01428e+10
1.17552e+10
1.27751e+10
1.32228e+10
1.55746e+10
1.34631e+10
1.94261e+10
1.90614e+10
1.73356e+10
1.56945e+10
2.04962e+10
1.77685e+10
2.00159e+10
1.05521e+10
1.7756e+10
1.58505e+10
1.25706e+10
1.31947e+10
1.58373e+10
1.27798e+10
1.54711e+10
9.5077e+09
9.27635e+09
1.02473e+10
1.4777e+10
9.71694e+09
8.96215e+09
1.16223e+10
1.13084e+10
1.0809e+10
1.77278e+10
1.80521e+10
1.14796e+10
1.14109e+10
1.28201e+10
1.15514e+10
1.38921e+10
1.1026e+10
1.02281e+10
1.41177e+10
1.60055e+10
1.20489e+10
1.2312e+10
1.45176e+10
1.45762e+10
1.27255e+10
1.80531e+10
1.79304e+10
1.81225e+10
1.65922e+10
1.55593e+10
1.86528e+10
1.89553e+10
3.97335e+08
4.57012e+08
3.75314e+08
3.94879e+08
4.08319e+08
4.22396e+08
3.92747e+08
3.95121e+08
5.25278e+08
5.75177e+08
5.12028e+08
5.02424e+08
5.24448e+08
5.5708e+08
5.2067e+08
5.24155e+08
3.4478e+08
4.22302e+08
2.88412e+08
3.66244e+08
3.53636e+08
3.53404e+08
3.41666e+08
3.34622e+08
3.96522e+08
4.4816e+08
3.85839e+08
4.05905e+08
4.09231e+08
4.08619e+08
3.95614e+08
3.97881e+08
4.63858e+08
3.85146e+08
4.06044e+08
4.60452e+08
4.52798e+08
4.08626e+08
4.47648e+08
4.16812e+08
4.85993e+08
4.72079e+08
4.71605e+08
3.95764e+08
4.61428e+08
4.78146e+08
4.38333e+08
4.45349e+08
3.6779e+08
3.91322e+08
4.52593e+08
3.72453e+08
3.79122e+08
3.97555e+08
3.8613e+08
4.09753e+08
3.68976e+08
3.76165e+08
4.51937e+08
4.41192e+08
3.91597e+08
3.92551e+08
4.32069e+08
4.28673e+08
2.22183e+08
5.71732e+08
6.05102e+08
5.18785e+08
4.12065e+08
4.72892e+08
5.01474e+08
5.3321e+08
9.14676e+08
1.25925e+09
1.15557e+09
1.33953e+09
1.0921e+09
1.11747e+09
1.14076e+09
1.14475e+09
8.3599e+08
1.03125e+09
9.33229e+08
1.08139e+09
9.17426e+08
9.46926e+08
9.63794e+08
9.65479e+08
9.58678e+08
1.48585e+09
1.31877e+09
1.59212e+09
1.26936e+09
1.27039e+09
1.38532e+09
1.35447e+09
7.52879e+08
7.3142e+08
7.32553e+08
1.1545e+09
8.34501e+08
7.73839e+08
8.56952e+08
7.63265e+08
7.74081e+08
1.17456e+09
1.06012e+09
7.79658e+08
8.39189e+08
1.062e+09
8.70915e+08
1.03514e+09
8.35698e+08
8.2348e+08
1.25431e+09
1.12048e+09
9.17852e+08
8.48891e+08
1.03083e+09
1.13937e+09
8.00305e+08
1.11802e+09
1.21879e+09
1.06758e+09
9.79795e+08
1.10191e+09
1.08328e+09
1.19617e+09
1.83692e+08
1.66854e+08
7.78474e+08
6.23045e+08
2.76109e+08
2.71921e+08
4.61083e+08
6.31526e+08
1.5713e+08
1.37399e+08
6.17043e+08
5.50616e+08
2.46725e+08
2.48749e+08
4.21051e+08
5.13982e+08
1.27451e+09
1.08753e+09
1.58279e+09
1.69126e+09
1.34228e+09
1.26339e+09
1.52394e+09
1.49179e+09
1.06338e+09
9.35036e+08
1.65805e+09
1.52515e+09
1.08629e+09
1.1479e+09
1.27741e+09
1.45785e+09
2.71669e+08
8.70744e+08
7.03001e+08
6.4748e+08
4.42041e+08
6.54902e+08
6.42373e+08
7.65079e+08
2.68794e+08
6.6613e+08
7.4792e+08
8.31534e+08
5.48383e+08
5.97152e+08
6.62542e+08
7.29118e+08
1.09503e+09
9.09389e+08
8.64798e+08
1.46459e+09
1.28634e+09
9.9993e+08
1.2837e+09
1.06315e+09
1.12798e+09
1.48558e+09
9.2406e+08
9.68446e+08
1.11511e+09
1.25582e+09
8.92908e+08
1.09074e+09
1.65305e+09
1.42277e+09
1.61116e+09
1.73109e+09
1.68146e+09
1.56176e+09
1.78185e+09
1.59791e+09
1.16343e+09
9.7186e+08
1.09622e+09
1.09466e+09
1.1231e+09
1.07022e+09
1.157e+09
1.05749e+09
1.49226e+09
1.22637e+09
1.33747e+09
1.50251e+09
1.40919e+09
1.34579e+09
1.48978e+09
1.25784e+09
1.82228e+09
1.31916e+09
1.6829e+09
1.85489e+09
1.70767e+09
1.60878e+09
1.86105e+09
1.58219e+09
1.39622e+09
1.55613e+09
1.71495e+09
1.35614e+09
1.44825e+09
1.5537e+09
1.41184e+09
1.60046e+09
1.2942e+09
1.28557e+09
1.19972e+09
1.46164e+09
1.3075e+09
1.24078e+09
1.34333e+09
1.25435e+09
1.64102e+09
1.79145e+09
1.40918e+09
1.65414e+09
1.60422e+09
1.59745e+09
1.53234e+09
1.5274e+09
1.44482e+09
1.37047e+09
1.26071e+09
1.16924e+09
1.40333e+09
1.49066e+09
1.29476e+09
1.29976e+09
7.68788e+08
7.66807e+08
7.6986e+08
6.49048e+08
7.23551e+08
7.6967e+08
6.83532e+08
7.33641e+08
7.67695e+08
7.51672e+08
8.07283e+08
6.22811e+08
7.24265e+08
7.77245e+08
6.98366e+08
7.47915e+08
8.11965e+08
8.49394e+08
8.56749e+08
6.99311e+08
7.9664e+08
8.54509e+08
7.62724e+08
8.23157e+08
5.64758e+08
5.35679e+08
5.70712e+08
4.63957e+08
5.37535e+08
5.56447e+08
5.21804e+08
5.43588e+08
7.37471e+08
7.55974e+08
6.31964e+08
6.13664e+08
7.06638e+08
6.93766e+08
6.48056e+08
6.59734e+08
7.80948e+08
6.44665e+08
8.33671e+08
8.0816e+08
7.50987e+08
7.12679e+08
7.91331e+08
7.71685e+08
7.23853e+08
6.04034e+08
5.91651e+08
6.2877e+08
6.66475e+08
6.36877e+08
6.47916e+08
6.10273e+08
7.78998e+08
6.64146e+08
6.25343e+08
8.05373e+08
7.44842e+08
6.84078e+08
7.40693e+08
6.67937e+08
9.19986e+07
2.62709e+08
8.54486e+07
2.35556e+08
1.69315e+08
1.62344e+08
1.66467e+08
1.62602e+08
4.24517e+08
6.25923e+08
3.93007e+08
5.09482e+08
4.88184e+08
5.00128e+08
4.55016e+08
4.73505e+08
8.26425e+07
2.20419e+08
6.27466e+07
2.00456e+08
1.4973e+08
1.45783e+08
1.52823e+08
1.47925e+08
3.28943e+08
4.36464e+08
3e+08
3.90313e+08
3.69202e+08
3.75964e+08
3.5924e+08
3.60557e+08
3.23765e+08
1.5516e+08
2.89385e+08
4.25015e+08
2.93881e+08
2.18292e+08
3.73284e+08
2.88614e+08
3.30258e+08
4.3017e+08
3.05778e+08
1.54421e+08
3.01866e+08
3.56242e+08
2.38048e+08
2.98329e+08
1.67232e+08
2.85411e+08
3.8838e+08
2.7075e+08
2.14903e+08
2.8379e+08
2.78335e+08
3.33582e+08
1.60228e+08
2.68282e+08
4.05145e+08
2.84704e+08
2.1482e+08
2.74698e+08
2.74176e+08
3.37988e+08
2.22863e+09
2.46472e+09
2.38358e+09
2.00565e+09
2.20353e+09
2.62574e+09
2.22427e+09
2.34823e+09
2.77593e+09
3.57045e+09
3.24835e+09
3.06645e+09
2.84978e+09
3.31505e+09
2.89051e+09
3.18957e+09
2.42692e+09
3.0067e+09
2.20319e+09
2.06275e+09
2.32746e+09
2.47602e+09
2.12043e+09
2.20244e+09
1.91103e+09
2.59408e+09
2.04766e+09
1.88223e+09
2.00823e+09
2.18787e+09
1.78295e+09
1.96475e+09
2.48883e+09
2.44881e+09
2.0286e+09
2.39484e+09
2.57986e+09
2.59321e+09
2.38994e+09
2.26316e+09
2.97863e+09
2.74314e+09
3.00689e+09
2.61685e+09
2.793e+09
2.91534e+09
2.77986e+09
2.81769e+09
2.24737e+09
1.981e+09
2.40798e+09
1.98753e+09
2.12469e+09
2.12049e+09
2.08157e+09
2.31126e+09
2.37606e+09
2.11636e+09
2.6951e+09
2.84454e+09
2.45248e+09
2.28453e+09
2.65156e+09
2.83555e+09
4.27345e+08
5.18347e+08
4.57017e+08
4.80001e+08
4.5883e+08
4.72432e+08
4.471e+08
4.72191e+08
6.23225e+08
7.06693e+08
6.89671e+08
6.95905e+08
6.57025e+08
6.67417e+08
6.55676e+08