/*--------------------------------*- C++ -*----------------------------------*\
| =========                 |                                                 |
| \\      /  F ield         | OpenFOAM: The Open Source CFD Toolbox           |
|  \\    /   O peration     | Version:  2506                                  |
|   \\  /    A nd           | Website:  www.openfoam.com                      |
|    \\/     M anipulation  |                                                 |
\*---------------------------------------------------------------------------*/
FoamFile
{
    version     2.0;
    format      ascii;
    arch        "LSB;label=32;scalar=64";
    class       volVectorField;
    location    "2000";
    object      U;
}
// * * * * * * * * * * * * * * * * * * * * * * * * * * * * * * * * * * * * * //

dimensions      [0 1 -1 0 0 0 0];

internalField   nonuniform List<vector> 
50112
(
(0.00278265 -0.00309992 1.00624)
(0.0125103 -0.0030601 1.02973)
(0.00168658 -0.00362026 1.03965)
(0.0079706 -0.0120907 1.0247)
(0.00944381 -0.00731449 1.01246)
(0.011005 -0.00351881 1.03396)
(0.00884529 -0.0110124 1.02877)
(0.00728195 -0.00609474 1.03502)
(0.0146456 -0.00302668 1.07735)
(0.0100953 -0.00320145 1.20379)
(-0.00358759 0.0215442 1.11268)
(0.0132246 -0.000715985 1.1887)
(0.0276983 -0.0132501 1.11338)
(0.00719216 -0.00146798 1.14462)
(0.0184725 -0.00422484 1.1282)
(-0.00126825 0.0120756 1.1394)
(-0.00689444 0.00853966 1.05172)
(-0.0215387 0.0192104 1.05771)
(-0.0198526 0.0126137 1.02613)
(-0.0148002 0.0236936 1.04219)
(-0.0116016 0.0151493 1.05482)
(-0.0217087 0.0253392 1.04313)
(-0.0151205 0.0208607 1.04913)
(-0.0228347 0.0235766 1.04203)
(0.00145877 -0.0171774 1.0724)
(0.00314123 -0.000890391 1.17692)
(-0.0103251 0.0161055 1.1218)
(0.0160343 -0.01542 1.19783)
(0.0100466 -0.011858 1.09656)
(0.0032643 -0.00491829 1.12085)
(0.00948972 -0.0154044 1.12321)
(-0.0100106 0.00561301 1.11448)
(0.0202773 -0.00714595 1.05012)
(0.00360004 0.000101177 1.04572)
(0.016616 -0.0175321 1.04101)
(0.0149764 -0.0104139 1.09185)
(0.013034 -0.00634707 1.06624)
(0.00514354 0.00105715 1.05006)
(0.0100391 -0.00463054 1.07308)
(0.0130165 -0.00549184 1.06838)
(0.0146264 -0.00070067 1.08009)
(0.00345488 0.00566321 1.12916)
(-0.0131288 0.0209739 1.0878)
(-0.00133378 0.00620205 1.05214)
(0.0130582 -0.00139808 1.07959)
(0.000814268 0.00902314 1.0904)
(0.00522273 0.00244302 1.07836)
(0.00481638 0.0059578 1.08611)
(0.000721315 0.00166666 1.04995)
(0.0118728 -0.0120495 1.06157)
(0.00839409 -0.00183387 1.1176)
(-0.00252169 0.0126519 1.0833)
(0.00330637 0.000686136 1.07123)
(0.0081889 -0.00620854 1.06799)
(-0.00232315 0.00122534 1.07674)
(-0.000695609 0.00115147 1.08798)
(-0.00126683 0.00663143 1.05338)
(-0.0187195 0.0368594 1.06591)
(0.000369335 0.00729319 1.11813)
(-0.016414 0.0189278 1.08683)
(-0.0130602 0.0175343 1.05344)
(-0.00984894 0.00913357 1.07917)
(-0.00506674 0.0128798 1.08662)
(-0.0111638 0.0188662 1.11803)
(0.00897885 -0.00706614 1.19191)
(0.0217703 0.0309044 1.11078)
(0.00363783 -0.0151086 1.08956)
(0.0213419 0.0047896 1.18825)
(0.0160834 -0.00355048 1.19251)
(0.015955 0.0326021 1.12187)
(-0.00370409 -0.0238637 1.17001)
(0.00931116 -0.00556073 1.10004)
(0.0184153 0.0302028 1.02998)
(0.0305261 0.0269394 0.998198)
(0.0227428 0.024872 1.03497)
(0.0287571 0.0290203 1.03573)
(0.0288958 0.0297866 1.0328)
(0.0297707 0.0300491 1.02253)
(0.02877 0.0311427 1.04601)
(0.0265819 0.0217525 1.02737)
(0.00301721 -0.0050569 1.02684)
(0.00304362 0.00504235 1.0286)
(-0.000204555 -0.00293303 1.00635)
(-0.0134828 -0.0064954 1.02205)
(-0.0102266 -0.00224499 1.03778)
(-0.00283235 0.00289479 1.01991)
(-0.00919811 -0.00504333 1.02842)
(-0.00253746 -0.00479216 1.00861)
(-0.00117392 0.00628948 1.19005)
(0.0067025 0.0166563 1.08015)
(-0.0127508 -0.00201175 1.06785)
(-0.0230254 0.0172802 1.22794)
(-0.00225438 0.003018 1.15748)
(0.00192518 0.0360536 1.09589)
(-0.0398142 -0.0133033 1.13862)
(-0.0206692 -0.0121102 1.07033)
(0.0277678 0.0306249 1.09654)
(-0.00201117 -0.00678364 1.09185)
(0.0158555 0.00905243 1.15747)
(0.0253918 0.0193268 1.08417)
(0.0254579 0.0212001 1.10455)
(0.00819781 0.0146066 1.10389)
(0.0304962 0.0287049 1.09074)
(0.0202954 0.0300914 1.10234)
(0.0307528 0.0381546 1.06211)
(0.0213113 0.0372529 1.05359)
(0.0171179 0.0152261 1.03296)
(0.00280795 0.00707811 1.05293)
(0.0132127 0.0277845 1.05824)
(0.0213783 0.0356817 1.05699)
(0.0135769 0.00819349 1.06214)
(0.0116379 0.0133538 1.05774)
(0.00607141 -0.00942211 1.08532)
(-0.00227168 -0.00572632 1.13757)
(0.0193607 -0.000281701 1.09141)
(-0.0222893 -0.0183252 1.05952)
(0.00418704 -0.000531599 1.07742)
(0.00189148 0.00187568 1.07945)
(-0.00781349 -0.0093357 1.07862)
(-0.00103914 0.00521162 1.08243)
(0.0024967 9.5869e-05 1.04376)
(-0.0122462 -0.00820516 1.02706)
(0.00771911 0.00167006 1.05225)
(0.00662007 0.00515982 1.0313)
(-0.00548219 0.00827299 1.04709)
(-0.00622324 0.00308569 1.04497)
(0.00244383 0.00588623 1.05452)
(0.00425237 0.0130243 1.05306)
(-0.0233359 -0.0339979 1.04864)
(0.0532581 0.0102392 1.09946)
(0.00326434 -0.0055098 1.06369)
(-0.0180312 -0.0625408 1.07316)
(0.00492756 -0.0191565 0.965388)
(-0.0049856 -0.0224957 1.14627)
(-0.028785 -0.047381 1.09562)
(-0.0300531 -0.0531862 1.1813)
(0.0145837 -0.0131889 1.05794)
(-0.0186539 -0.041 1.06033)
(-0.0097924 -0.024978 1.05241)
(-0.0188545 0.0210411 1.12735)
(-0.00418363 -0.010245 1.07561)
(-0.00617969 -0.0323952 1.07196)
(-0.00705233 0.00412067 1.07192)
(-0.0291588 -0.00157507 1.05883)
(-0.00212351 -0.0185056 1.01289)
(0.000995856 -0.0159448 1.01622)
(-0.00152062 -0.00290345 1.00214)
(0.000393322 -0.0130451 1.01374)
(0.00431956 -0.0196237 1.01884)
(0.00178304 -0.0148049 1.00768)
(-0.000455176 -0.0173484 1.01238)
(0.00238714 -0.0114884 1.0016)
(0.0500991 -0.0680247 1.02779)
(-0.0972841 0.305445 0.701373)
(-0.0130171 0.00984914 1.06474)
(0.00368402 -0.0279556 0.970297)
(0.163337 -0.0987548 0.933547)
(0.0372712 -0.00356927 1.1147)
(-0.0165723 -0.0105179 1.00931)
(-0.0218423 0.168067 1.02741)
(0.0156913 0.00886542 1.07132)
(-0.0033173 -0.0192864 1.05981)
(0.032014 -0.0236435 0.960101)
(-0.00601633 0.038794 1.0932)
(0.00176794 0.0189472 1.05991)
(-0.0147363 -0.102179 1.1636)
(0.105004 0.154471 1.03679)
(0.0233512 -0.0230657 1.13034)
(-0.00666719 -0.0123626 1.07437)
(-0.0139374 0.0180439 1.10506)
(-0.00381636 -0.0260605 1.03796)
(-0.00461531 -0.0294615 1.0246)
(-0.0312442 0.00343229 1.07118)
(-0.024395 -0.00509836 1.02209)
(-0.0103226 -0.018787 1.04173)
(-0.00516815 -0.0202492 1.03711)
(-0.00752214 -0.0214663 1.03204)
(-0.00245734 -0.0623527 1.0931)
(0.0412671 0.0835157 1.06845)
(-0.0188915 -0.0127799 1.05616)
(-0.00488732 -0.000686046 1.04824)
(0.0108705 -0.0410733 1.191)
(-0.0064854 -0.0141738 1.10371)
(0.0456979 -0.140824 1.25712)
(-0.00893228 -0.0181686 1.01767)
(-0.0123406 -0.000622315 1.0079)
(-0.102168 0.012375 0.984457)
(-0.0105611 -0.0183225 1.04062)
(-0.0136004 -0.0186194 1.04617)
(-0.0170434 -0.0125417 1.03864)
(-0.00859412 -0.0184833 1.03975)
(-0.00526864 -0.00378954 1.04521)
(0.0531294 -0.108622 1.2282)
(0.0293337 -0.0476635 1.06737)
(0.0297429 -0.124876 1.09361)
(0.0263205 -0.09018 1.14654)
(0.0508631 -0.0367291 1.18541)
(0.0565974 -0.0588294 1.24542)
(0.0806269 -0.135072 1.10656)
(0.0221771 -0.0577567 1.15607)
(0.0124688 -0.0122405 1.00773)
(0.00249887 -0.00435679 1.00131)
(-0.00107543 -0.0129002 1.00138)
(-0.000391757 -0.0193058 1.01032)
(0.005764 -0.00527022 1.00611)
(0.0133021 -0.00369397 1.00837)
(0.000376843 -0.0190877 1.00684)
(0.000880253 -0.00971999 1.00288)
(0.00646621 -0.0808485 1.05008)
(-0.000230672 -0.0120239 1.0372)
(-0.00735719 -0.0995929 1.01447)
(0.017518 -0.0746982 1.01883)
(0.00682358 -0.0639832 1.10257)
(0.0108932 -0.0417533 1.12649)
(0.0159117 -0.0863076 1.02266)
(0.00134541 -0.0548064 1.07186)
(0.00351102 -0.08465 1.11756)
(0.00281383 -0.0351868 1.04693)
(0.0241404 -0.0795486 1.07616)
(0.00963257 -0.109074 1.13571)
(-0.0171183 -0.0612231 1.12481)
(-0.0117698 -0.0663594 1.14012)
(0.0435336 -0.058345 1.08712)
(-0.0126357 -0.0557221 1.13678)
(0.0130065 -0.0178378 1.056)
(0.0269437 -0.0708471 1.15293)
(0.0127583 -0.0341251 1.13437)
(0.000706355 -0.0240462 1.03755)
(0.00247151 -0.0374506 1.02826)
(0.0203013 -0.079178 1.15091)
(0.000647552 -0.0372092 1.0307)
(0.0171333 -0.0514154 1.17066)
(0.0345505 -0.0307478 1.07972)
(0.00308313 -0.0230108 1.03343)
(0.00328579 -0.0251 1.03046)
(0.0376159 -0.050974 1.16829)
(-0.00010275 -0.0296824 1.02528)
(-0.00141179 -0.0243861 1.03217)
(-0.000352812 -0.0354612 1.03315)
(9.5139e-05 -0.0252166 1.03283)
(0.0210554 -0.0953441 1.05418)
(0.0532059 -0.0962176 1.06299)
(0.00408527 -0.0415514 1.04167)
(0.0274972 -0.0544199 1.03527)
(0.0290072 -0.101512 1.06336)
(0.00288006 -0.0510453 1.10869)
(-0.000430233 -0.0672836 1.10941)
(0.00176357 -0.0645133 1.10217)
(0.0241659 -0.0718402 1.11251)
(0.00515627 -0.0502578 1.09791)
(-0.00145952 -0.031759 1.03491)
(-0.00362546 -0.0239429 1.02738)
(0.00796804 -0.0722747 1.11715)
(0.000784825 -0.0647553 1.12212)
(-0.00579003 -0.0233921 1.03125)
(-0.000249822 -0.0288854 1.03697)
(-0.0843631 0.00572975 1.11405)
(-0.0926629 0.00455269 1.15175)
(-0.0927858 0.00690383 1.08914)
(-0.0412919 0.00159808 1.04367)
(-0.0465706 -0.00706576 1.12203)
(-0.114754 0.039464 1.10869)
(-0.0380737 -0.00891585 1.1318)
(-0.0630527 -0.0056019 1.14298)
(-0.0927525 -0.0268208 1.18298)
(-0.12202 -0.0765047 1.21888)
(-0.0756721 0.010842 1.1373)
(-0.0393228 -0.0331663 1.04943)
(-0.0605275 -0.0507975 1.192)
(-0.0679974 -0.00754498 1.14683)
(-0.0729686 -0.0594501 1.20754)
(-0.0679257 -0.069326 1.19653)
(-0.0833845 -0.000328524 1.07031)
(-0.0715097 0.00718042 1.09711)
(-0.077859 -0.00696672 1.03066)
(-0.0163229 -0.0115192 1.03642)
(-0.0654453 -0.0145163 1.12593)
(-0.0698535 0.00223536 1.05368)
(-0.0586544 -0.0148865 1.13053)
(-0.0497462 -0.00902441 1.12168)
(-0.01119 0.000603328 1.00865)
(-0.0145486 -0.00922802 1.00352)
(-0.00784324 0.00307137 1.00394)
(-0.000103904 -0.00125235 1.00076)
(-0.012968 -0.00196134 1.00543)
(-0.0136489 -0.00287621 1.0025)
(-0.0111152 -0.00232416 1.007)
(-0.0125455 -0.00145626 1.00377)
(-0.0494073 -0.0150803 1.15241)
(-0.0654667 -0.00139762 1.13498)
(-0.034195 -0.00852355 1.03626)
(-0.027566 -0.0155213 1.0442)
(-0.0520899 -0.0157915 1.16834)
(-0.0739879 -0.00261287 1.12865)
(-0.0285673 -0.00608188 1.03033)
(-0.0298522 -0.00666676 1.03161)
(-0.120161 0.0174663 1.11389)
(-0.02659 -0.0209228 1.04289)
(-0.0676645 -0.00838506 1.11424)
(-0.105611 0.00906177 1.1004)
(-0.0612172 -0.023488 1.16717)
(-0.0836585 -0.0269854 1.15802)
(-0.0948165 0.00339234 1.10141)
(-0.066826 -0.031978 1.15836)
(-0.0338025 0.000450271 1.11683)
(-0.0347022 -0.00119835 1.03201)
(-0.034686 -0.0127084 1.04154)
(-0.0288229 -0.00281757 1.02677)
(-0.0306722 -0.00684718 1.03061)
(-0.0282112 -0.00706415 1.03083)
(-0.0295663 -0.0102008 1.03272)
(-0.0219318 -0.00377095 1.03407)
(-0.0750599 0.00108116 1.12719)
(-0.0268531 -0.0094555 1.03212)
(-0.0287845 -0.0192151 1.03756)
(-0.0512483 -0.0226357 1.15893)
(-0.0713982 -0.0219673 1.12626)
(-0.0219415 -0.010879 1.03235)
(-0.0626598 -0.0217409 1.16262)
(-0.014546 -0.00377679 1.04355)
(0.096808 -0.0897521 1.25849)
(0.064807 -0.0372943 1.06651)
(0.0979481 -0.0398618 1.16148)
(0.10454 -0.0560813 1.11814)
(0.0495344 -0.0703565 1.18575)
(0.0246429 -0.0676 1.13664)
(0.0947881 -0.0523682 1.08548)
(0.0917965 -0.045741 1.14849)
(0.0194846 -0.0116694 1.01659)
(0.00413933 -0.00103913 1.00191)
(0.0134988 0.00093436 1.0126)
(0.00929767 -0.00199904 1.0018)
(0.0131403 -0.00459987 1.00866)
(0.00908596 -0.00554341 1.00718)
(0.0132546 -0.000118738 1.01035)
(0.012313 -0.00173027 1.0091)
(0.0942156 -0.017584 1.13875)
(0.0376492 0.00690681 1.05268)
(0.0907842 -0.00611211 1.13358)
(0.0874229 0.00216389 1.0887)
(0.0668755 0.0235548 1.12211)
(0.0286035 0.0248064 1.09495)
(0.0825249 -0.00138723 1.06148)
(0.058183 0.00307733 1.11366)
(0.122653 -0.0354246 1.1037)
(0.0257536 -0.00150898 1.02119)
(0.105064 0.0120458 1.08078)
(0.104199 -0.0100412 1.14061)
(0.130135 -0.00525367 1.11818)
(0.0853691 -0.00750208 1.11329)
(0.0691299 -0.0180661 0.967582)
(0.10519 -0.00183208 1.10621)
(0.0489549 -0.0134599 1.04882)
(0.0902659 -0.00808044 1.15426)
(0.0889512 -0.0485375 1.112)
(0.0310638 -0.00995833 1.02585)
(0.0424954 -0.012685 1.04254)
(0.10805 -0.0345773 1.13994)
(0.039332 -0.0153651 1.03001)
(0.0792367 -0.0263796 1.12669)
(0.0288987 -0.0185846 1.04379)
(0.0297443 -0.00806923 1.03593)
(0.0302204 -0.00357942 1.03248)
(0.0665176 -0.0162547 1.12952)
(0.0376047 -0.0152721 1.04603)
(0.0419226 -0.00901036 1.03315)
(0.0396879 -0.00881199 1.04519)
(0.0403195 0.00116823 1.04202)
(0.112651 -0.0144192 1.10421)
(0.11751 -0.0389794 1.07008)
(0.0338527 0.00462304 1.04179)
(0.107315 0.016412 1.04114)
(0.108927 -0.0120771 1.12811)
(0.106799 -0.0171358 1.1312)
(0.077469 -0.00128494 1.1199)
(0.0767253 -0.00674758 1.13358)
(0.0691664 -0.0168902 1.14355)
(0.0730582 0.0201153 1.10011)
(0.0393974 -0.00333503 1.03141)
(0.0418643 -0.00328938 1.03632)
(0.0792567 0.0120883 1.12219)
(0.0607454 0.00219386 1.1155)
(0.0389516 -0.000667239 1.03682)
(0.0373919 0.000932998 1.03363)
(-0.0316115 -0.103182 1.26169)
(-0.0360114 -0.0468582 1.0832)
(-0.0367249 -0.0950635 1.15857)
(-0.0227146 -0.0966206 1.13627)
(-0.0294432 -0.0447998 1.22129)
(-0.0432673 -0.0169135 1.16425)
(-0.0243537 -0.0929287 1.10676)
(-0.032313 -0.0830471 1.13641)
(-0.011613 -0.00902063 1.0191)
(-0.000406249 -0.00094034 1.00146)
(0.00593567 -0.00964428 1.0047)
(-0.00223533 -0.00534162 1.00276)
(-0.00112826 -0.00657848 1.01212)
(-0.0011119 -0.00516652 1.00753)
(0.00181705 -0.00728027 1.00865)
(-0.00105084 -0.0086903 1.0033)
(-0.0142715 -0.0910076 1.11607)
(0.00704647 -0.025002 1.03369)
(-0.0152584 -0.0923233 1.14018)
(0.00301275 -0.0795452 1.09046)
(0.020747 -0.0647489 1.10979)
(0.00682084 -0.0343496 1.10558)
(0.0122332 -0.0744782 1.08153)
(-0.0151311 -0.056373 1.11611)
(-0.0199265 -0.119228 1.09879)
(0.00631086 -0.00730498 1.01427)
(0.0053837 -0.0906126 1.06737)
(-0.00754021 -0.104481 1.12484)
(0.00645205 -0.13322 1.1012)
(-0.00619078 -0.0909277 1.08128)
(-0.0070387 -0.108165 0.945102)
(-0.0148009 -0.0903747 1.05811)
(-0.0100441 -0.0322977 1.05757)
(-0.00752801 -0.0771759 1.15076)
(-0.0244171 -0.0841291 1.13547)
(-0.00189115 -0.018456 1.01719)
(-0.0105717 -0.0313265 1.042)
(-0.0281388 -0.0923713 1.13621)
(-0.00928051 -0.0261837 1.02221)
(-0.0197064 -0.0771269 1.12372)
(-0.0136003 -0.0153725 1.05029)
(0.00850954 -0.0225397 1.03183)
(0.0130896 -0.0206885 1.04726)
(-0.0140071 -0.0520833 1.11704)
(-0.00448448 -0.0221948 1.03667)
(0.00263684 -0.0285206 1.03095)
(0.00024596 -0.0318723 1.04266)
(0.0118569 -0.0312037 1.04369)
(-0.0119254 -0.103808 1.08453)
(-0.026776 -0.117192 1.07053)
(0.0129983 -0.0198298 1.03734)
(0.0149035 -0.0891663 1.05088)
(-0.010736 -0.101567 1.10567)
(-0.0163589 -0.10002 1.09163)
(-0.00301274 -0.0777974 1.10984)
(-0.00717702 -0.0797989 1.09758)
(-0.0121781 -0.0682113 1.11517)
(0.0060663 -0.058857 1.07538)
(0.0104784 -0.0281481 1.035)
(0.0055354 -0.0293081 1.03622)
(0.00218759 -0.0747949 1.10364)
(0.0024339 -0.0576742 1.09569)
(0.0120606 -0.0281131 1.04168)
(0.00623213 -0.0278658 1.03161)
(-0.0734118 0.0408813 1.17294)
(-0.0510999 0.0492498 1.14037)
(-0.0244018 0.0557734 1.1554)
(-0.0385655 0.0521298 1.10219)
(-0.0648075 0.0509317 1.16669)
(-0.013562 0.0483312 1.16679)
(-0.0425374 0.0378713 1.13376)
(-0.0181998 0.0503951 1.12093)
(-0.0353931 0.0438994 1.04289)
(-0.0221839 0.0283534 1.01276)
(-0.0217637 0.0369105 1.03318)
(-0.026078 0.032607 1.03168)
(-0.0287083 0.0349352 1.03649)
(-0.0279611 0.027025 1.03139)
(-0.0262622 0.0318951 1.03267)
(-0.0244822 0.0295048 1.02695)
(-0.00191534 0.0598866 1.1064)
(-0.0057084 0.0315896 1.10228)
(0.025581 0.027517 1.04693)
(0.0222284 0.0255338 1.03835)
(-0.0117268 0.0601757 1.10481)
(0.00532804 0.0218424 1.10354)
(0.0103857 0.0170804 1.05612)
(0.0159809 0.0112631 1.04209)
(-0.0195958 0.0557419 1.08823)
(-0.0286577 0.0429635 1.08779)
(0.0124791 0.0437272 1.04851)
(-0.0106558 0.0438127 1.0638)
(-0.0320612 0.0810739 1.09745)
(-0.0242984 0.0663732 1.08507)
(-0.0150094 0.0453272 1.05803)
(-0.00483631 0.0443007 1.06221)
(-0.0348486 0.0522166 1.12698)
(-0.0235128 0.0620618 1.14379)
(-0.032254 0.0581179 1.14906)
(-0.0407766 0.0326899 1.10925)
(-0.0385924 0.0347514 1.11962)
(-0.019277 0.0579341 1.1273)
(-0.0335512 0.0399466 1.11738)
(-0.0223814 0.059173 1.13057)
(-0.0447235 0.031659 1.10666)
(-0.0287604 0.0325056 1.10154)
(-0.0181656 0.0337298 1.10458)
(0.00900262 0.0391682 1.14277)
(-0.0406958 0.0319884 1.11953)
(-0.0354905 0.0337514 1.11386)
(-0.026725 0.0242501 1.11635)
(-0.017638 0.0257314 1.1061)
(-0.00825841 0.037568 1.1036)
(-0.0258786 0.0493178 1.09038)
(-0.025748 0.0392845 1.09525)
(0.000877921 0.0318572 1.0631)
(-0.00954115 0.0648849 1.07868)
(-0.0121138 0.0606853 1.07832)
(-0.0226733 0.0741956 1.09476)
(-0.0206866 0.0658114 1.08633)
(0.00310276 0.049526 1.0855)
(0.0112414 0.0308309 1.05432)
(-0.0247962 0.0438932 1.10111)
(-0.0144485 0.039038 1.10566)
(-0.0128513 0.0539521 1.08599)
(-0.00442037 0.0497733 1.1039)
(-0.0188103 0.0322553 1.10165)
(-0.0177447 0.0327976 1.09521)
(0.0569636 -0.0392221 1.13033)
(0.0316006 -0.0433288 1.12529)
(0.0166674 -0.0502336 1.14146)
(0.0292694 -0.0457299 1.07419)
(0.0484505 -0.0457432 1.12254)
(0.00272133 -0.0381526 1.13516)
(0.0289881 -0.036101 1.11052)
(0.00838363 -0.0476688 1.10507)
(0.0253857 -0.0299138 1.06395)
(0.0189119 -0.0157758 1.02059)
(0.014306 -0.0201781 1.05621)
(0.0172227 -0.0198478 1.05482)
(0.0205907 -0.0266294 1.06347)
(0.0186622 -0.0169221 1.05939)
(0.0195595 -0.0229006 1.05746)
(0.0156434 -0.011973 1.05103)
(-0.00790036 -0.0438465 1.16967)
(0.0146418 -0.032762 1.08997)
(-0.0070846 -0.0492939 1.12124)
(-0.00603068 -0.0359769 1.08852)
(0.00687003 -0.0344562 1.14453)
(0.00653071 -0.0154858 1.13631)
(-0.0186013 -0.0260537 1.11907)
(-0.00427129 -0.0526911 1.10774)
(0.00991598 -0.0528794 1.08121)
(0.0223276 -0.0348696 1.08706)
(0.00150997 -0.0479628 1.09204)
(0.00862321 -0.0421514 1.08103)
(0.021468 -0.0699867 1.09231)
(0.0119539 -0.0563637 1.0966)
(0.0111999 -0.042366 1.07491)
(0.00392242 -0.0492636 1.10508)
(0.0236128 -0.0415822 1.12577)
(0.0207732 -0.0544229 1.13293)
(0.0131164 -0.0644681 1.12431)
(0.0299258 -0.0284058 1.1033)
(0.022853 -0.0283822 1.11262)
(0.0106974 -0.0570291 1.11)
(0.0241833 -0.0344395 1.10806)
(0.0162396 -0.0572702 1.11376)
(0.0235212 -0.0247268 1.10827)
(0.0194838 -0.0292668 1.10059)
(0.0152658 -0.0240725 1.10876)
(-0.00338826 -0.0373569 1.14505)
(0.0248872 -0.0271521 1.1085)
(0.0231999 -0.0302218 1.10894)
(0.0150673 -0.0278293 1.10812)
(0.0124176 -0.0285089 1.10934)
(0.00738406 -0.0329108 1.13111)
(0.0186483 -0.0420452 1.08552)
(0.0180369 -0.0338997 1.09152)
(-0.0075908 -0.0331733 1.10834)
(0.00912933 -0.0534164 1.09205)
(0.00981442 -0.0513874 1.08143)
(0.0114225 -0.0622434 1.12106)
(0.0125572 -0.0622064 1.10291)
(-0.00894359 -0.0408184 1.1329)
(0.00128617 -0.0484157 1.11995)
(0.0163311 -0.0335234 1.1008)
(0.0158115 -0.0288747 1.09548)
(-0.000765833 -0.0408513 1.13829)
(-0.00208531 -0.0475666 1.13814)
(0.0175325 -0.0317721 1.09901)
(0.013432 -0.0320633 1.09837)
(0.0372003 0.0280895 0.999364)
(0.0359683 0.0327338 1.04923)
(0.0404437 0.0255736 1.02163)
(0.0425591 0.0209939 1.02004)
(0.0391741 0.0273919 1.02043)
(0.033709 0.0285409 1.04179)
(0.0418948 0.0226535 1.00836)
(0.0375528 0.0258473 1.02392)
(0.0472624 0.0407249 1.1515)
(0.0172027 0.0362087 1.28072)
(0.0669374 0.0285177 1.17252)
(0.0512577 0.0273978 1.21869)
(0.0953542 0.0203793 1.18137)
(0.0579249 0.0390934 1.2487)
(0.0634709 0.0191337 1.16479)
(0.0493148 0.0383534 1.19502)
(0.0483741 0.0261246 1.06918)
(0.0604951 0.0148122 1.15204)
(0.0416325 0.00334205 1.1229)
(0.0419054 -0.006252 1.10679)
(0.0658655 0.0264123 1.14457)
(0.0821509 0.0309009 1.16314)
(0.0413927 0.00894732 1.11418)
(0.0429483 0.010371 1.11575)
(0.0387597 0.00370601 1.06683)
(0.0511643 0.0260586 1.1797)
(0.0265972 -0.0156836 1.09976)
(0.0157236 -0.0130406 1.12157)
(0.0291805 -0.0153616 1.17445)
(0.0558988 0.0232152 1.17229)
(0.0145159 -0.0138314 1.11154)
(0.0183928 -0.0037931 1.12477)
(0.0450674 0.0347865 1.09456)
(0.037158 0.025022 1.0799)
(0.0387642 0.0173211 1.06383)
(0.0341695 -0.00570227 1.18509)
(0.0340761 0.0381814 1.0968)
(0.0382885 0.0309548 1.09071)
(0.0275261 0.0263204 1.09734)
(0.0325037 0.0128682 1.08194)
(0.0520647 0.0336687 1.13013)
(0.0560957 0.0288505 1.19648)
(0.074812 0.0311251 1.22648)
(0.0402871 0.0370858 1.09063)
(0.0411528 0.0356884 1.10659)
(0.0665054 0.0214111 1.17987)
(0.0449157 0.0305898 1.10711)
(0.0714346 0.0161824 1.17586)
(0.0485986 0.0213146 1.07119)
(0.0437672 0.0146125 1.05985)
(0.045116 0.0123135 1.14564)
(0.0289626 -0.00990525 1.12042)
(0.0396015 0.0174059 1.06773)
(0.0334901 0.0148628 1.06564)
(0.0523158 0.0150754 1.16451)
(0.0487532 0.0230024 1.15201)
(0.0447268 0.0254663 1.07648)
(0.0357025 0.0118218 1.12432)
(0.0335361 0.0228883 1.16318)
(0.0546684 0.0229777 1.15052)
(0.06447 0.0277555 1.14119)
(0.0740654 0.0311724 1.15712)
(0.053844 0.0162242 1.12393)
(0.0580491 0.0209097 1.13126)
(-0.0521742 0.106522 1.16254)
(-0.0381764 0.0603508 1.15839)
(-0.0787172 0.026328 1.12407)
(-0.0214431 0.00950922 1.19032)
(-0.0973932 0.0716654 1.18416)
(-0.160986 0.10849 1.13479)
(0.00656772 -0.0161419 1.12275)
(-0.0815754 0.0144893 1.11487)
(-0.0334026 0.0292273 1.0573)
(-0.0313826 0.0271441 1.00745)
(-0.0469589 0.0281547 1.04358)
(-0.0374807 0.0204363 1.03532)
(-0.0284433 0.0271682 1.05005)
(-0.0241615 0.0280228 1.03832)
(-0.0520793 0.0271808 1.05118)
(-0.0351405 0.0238281 1.03789)
(-0.0652334 0.0468107 1.09108)
(-0.0516057 0.0272532 1.09499)
(-0.0464711 0.0500376 1.12555)
(-0.0514979 0.0385996 1.08866)
(-0.0724014 0.0390545 1.1155)
(-0.0745772 0.040071 1.13934)
(-0.0685336 0.0412811 1.08384)
(-0.0773216 0.0376995 1.08676)
(-0.0309124 0.0108406 1.20869)
(-0.0268775 0.0172171 1.08413)
(-0.0446597 0.0207459 1.09317)
(-0.00384975 -0.00971466 1.14568)
(-0.0650609 0.0382238 1.16474)
(-0.0805001 0.0536777 1.13581)
(-0.0365147 8.4055e-05 1.08206)
(-0.0620305 0.00351506 1.09548)
(-0.04193 0.0510576 1.14645)
(-0.0730961 0.0335195 1.13013)
(-0.059857 0.0383331 1.16682)
(-0.0319902 0.0332315 1.1039)
(-0.030198 0.0374362 1.11563)
(-0.0528931 0.0570289 1.14578)
(-0.0156837 0.0338386 1.10858)
(-0.0582995 0.0559967 1.13925)
(-0.0624596 0.0521547 1.13999)
(-0.0461117 0.0335129 1.09527)
(-0.064518 0.049183 1.10517)
(-0.0675501 0.0432906 1.14817)
(-0.0361138 0.0409206 1.11744)
(-0.0420095 0.0436054 1.09074)
(-0.0553975 0.036518 1.13434)
(-0.0394734 0.0417158 1.11171)
(-0.071574 0.0314682 1.08381)
(-0.0427056 0.00570145 1.12353)
(-0.0281903 0.0269043 1.09914)
(-0.063781 0.0266728 1.07091)
(-0.0580399 0.0313344 1.09279)
(-0.0552207 0.0150623 1.13099)
(-0.0664023 0.0314891 1.13788)
(-0.0450629 0.0528839 1.17775)
(-0.0753962 0.0349795 1.09626)
(-0.0720953 0.0259168 1.10014)
(-0.0388173 0.0262217 1.08692)
(-0.0456101 0.0351199 1.09193)
(-0.0648594 0.0392651 1.14886)
(-0.0585552 0.0378563 1.15885)
(-0.0323219 0.0233544 1.09088)
(-0.0446629 0.0298511 1.0968)
(0.0429544 -0.0919088 1.09218)
(0.0266992 -0.0435759 1.14984)
(0.0707579 -0.0440494 1.05544)
(0.0344848 -0.0375001 1.11111)
(0.070104 -0.0670375 1.10672)
(0.100918 -0.0840477 1.06511)
(0.0220096 -0.0204775 1.05628)
(0.0730233 -0.0357237 1.04874)
(0.0251211 -0.0257136 1.06861)
(0.0236463 -0.0151881 1.01486)
(0.0295304 -0.0155569 1.05188)
(0.0283188 -0.0170605 1.04786)
(0.0241915 -0.0236278 1.06159)
(0.0234546 -0.0235088 1.0601)
(0.032016 -0.0139071 1.04958)
(0.0289705 -0.0217612 1.05001)
(0.0590024 -0.0640238 1.00932)
(0.0431088 -0.0163827 1.06783)
(0.0522271 -0.0452087 1.00273)
(0.0426454 -0.0515504 1.02064)
(0.0727165 -0.0530507 1.0245)
(0.0560856 -0.036588 1.05033)
(0.062867 -0.0548909 0.991389)
(0.0705517 -0.0571185 1.01742)
(0.0370939 -0.0226076 1.11763)
(0.0366469 -0.0175589 1.0554)
(0.0369147 -0.0390234 1.02425)
(0.0136513 -0.00903082 1.07394)
(0.0654598 -0.0441624 1.062)
(0.0666769 -0.0528242 1.04051)
(0.0418329 -0.021194 1.02119)
(0.0560715 -0.0230402 1.02837)
(0.032883 -0.0326821 1.14354)
(0.0669354 -0.0532672 1.05452)
(0.0633501 -0.056044 1.08143)
(0.0329391 -0.0161022 1.08356)
(0.0244761 -0.0251059 1.0925)
(0.0453194 -0.0760054 1.06022)
(0.0179848 -0.0183518 1.09228)
(0.0597068 -0.0756459 1.05474)
(0.0473265 -0.0296594 1.1423)
(0.0405748 -0.0169811 1.08615)
(0.0410215 -0.0204199 1.10287)
(0.0479345 -0.0644411 1.06321)
(0.035254 -0.0230707 1.10588)
(0.0346695 -0.0161388 1.08568)
(0.0449027 -0.0269989 1.10946)
(0.0365353 -0.0253022 1.09644)
(0.0691082 -0.0477123 1.01474)
(0.046998 -0.0208185 1.04588)
(0.0389862 -0.0203628 1.05614)
(0.0562306 -0.0402689 1.00219)
(0.0574865 -0.0445501 1.0288)
(0.0568837 -0.0324109 1.05011)
(0.0637262 -0.0408311 1.04764)
(0.0522865 -0.0519862 1.06175)
(0.0680431 -0.0550119 1.02883)
(0.0654263 -0.0359506 1.02289)
(0.0394151 -0.0162701 1.06249)
(0.0399254 -0.0190672 1.07153)
(0.0519942 -0.0420334 1.05935)
(0.0631716 -0.0378705 1.05665)
(0.0383723 -0.0172267 1.05575)
(0.0452002 -0.0177526 1.06399)
(0.0310607 0.0349089 0.999164)
(0.0229505 0.0394882 1.04693)
(0.0254432 0.0308451 1.02078)
(0.034983 0.0358257 1.03072)
(0.0254863 0.0180121 1.03814)
(0.0234809 0.0338218 1.02818)
(0.0259391 0.0332883 1.02589)
(0.0278742 0.0492403 1.02546)
(0.0654693 0.0274363 1.15497)
(0.0653902 0.00684696 1.18734)
(0.0238573 0.0415573 1.25776)
(0.040771 0.0819245 1.16326)
(0.0928053 0.11549 1.11061)
(0.0692535 0.0592619 1.2008)
(0.0246666 0.085235 1.14958)
(0.0165816 0.00754225 1.19321)
(0.0218908 0.018715 1.11246)
(0.0193661 0.0329195 1.17951)
(0.0216993 -0.0155606 1.06416)
(0.0368204 0.0358016 1.0873)
(0.0701248 0.106738 1.11417)
(0.0512788 0.0626425 1.13616)
(0.0302358 0.044478 1.03772)
(0.021113 -0.0195689 1.04342)
(0.0231555 0.0573938 1.0904)
(0.0574079 0.0713757 1.08851)
(0.0499548 0.051633 1.13313)
(0.0490889 0.0566497 1.11418)
(0.0442936 0.0775 1.12411)
(0.0396097 0.0823145 1.11272)
(0.0465018 0.080087 1.11928)
(0.0457181 0.0720551 1.10422)
(0.0419226 0.0320549 1.12871)
(0.0208825 0.0514848 1.09469)
(0.0303181 0.0535193 1.08455)
(0.065634 0.060044 1.1761)
(0.0425397 0.0163561 1.11536)
(0.0343344 0.033156 1.08098)
(0.0356266 0.0460527 1.13728)
(0.0367803 0.0283492 1.11213)
(0.046001 0.0280155 1.13393)
(0.0496317 0.079621 1.15626)
(0.0451358 0.0730698 1.17424)
(0.0182535 0.0318203 1.09737)
(0.0294902 0.0343943 1.12913)
(0.0707585 0.0562154 1.16037)
(0.0304849 0.016328 1.11348)
(0.0674503 0.0778037 1.1542)
(0.0195725 0.0354036 1.09461)
(0.0377633 0.0472578 1.09621)
(0.043942 0.0803831 1.10886)
(0.0373688 0.0710558 1.0916)
(0.0302975 0.0565579 1.11295)
(0.0243494 0.035148 1.10194)
(0.0380585 0.0835396 1.15077)
(0.0414271 0.0750145 1.14459)
(0.0303279 0.0191701 1.12204)
(0.0346473 0.0608353 1.07937)
(0.0364518 0.0788639 1.08565)
(0.00385652 0.0443126 1.10335)
(0.0604582 0.0756104 1.154)
(0.04299 0.0826999 1.11888)
(0.0144345 0.0627738 1.1178)
(0.0302377 0.0657175 1.08968)
(-0.000145029 0.0101292 1.01114)
(-0.0083168 0.00319484 1.04798)
(-0.0167033 -0.00205046 1.0502)
(-0.0255625 0.00665291 1.06696)
(0.0210431 -0.000210298 1.06117)
(-0.0128805 -5.98677e-05 1.02426)
(-0.0301783 -0.0256713 1.14859)
(-0.0424277 -0.0215351 1.14012)
(-0.0384131 0.00102854 1.06821)
(-0.0851175 -0.0217043 1.08384)
(-0.0265342 -0.0165734 1.09554)
(-0.0240096 0.00733801 1.03893)
(-0.0381383 -0.014137 1.07292)
(-0.0800065 -0.0037877 1.05793)
(-0.0199518 -0.0233374 1.12847)
(-0.072811 -0.00623296 1.12881)
(-0.0132129 -0.00715822 1.08685)
(-0.0233398 -0.0157071 1.10887)
(-0.0205775 0.00354683 1.09847)
(-0.0256739 -0.00280546 1.0453)
(-0.0063853 -0.00738016 1.11057)
(-0.0198825 -0.0116875 1.08362)
(-0.0248934 -0.00645159 1.1276)
(-0.0275312 -0.0106191 1.11762)
(-0.0115067 0.00374241 1.01429)
(-0.0038999 0.00350988 1.00478)
(-0.013701 -0.0014819 1.01038)
(-0.00193614 0.0014292 1.00081)
(-0.00587643 0.00268604 1.01047)
(-0.00968164 0.00395731 1.01173)
(-0.00593018 -0.000567518 1.00258)
(-0.00618767 -0.00065627 1.00204)
(-0.00278306 0.00457877 1.0542)
(-0.00130829 -0.0126656 1.0908)
(-0.0155111 0.0093124 1.0596)
(-0.0216715 0.00566508 1.05462)
(-0.0407428 -0.0293167 1.13828)
(-0.046829 -0.0259414 1.14855)
(-0.0157053 0.00732681 1.05313)
(-0.0231755 0.00377331 1.06599)
(-0.0339754 0.00520207 1.05311)
(-0.0247668 0.00602179 1.05008)
(-0.0207485 -0.0151689 1.05749)
(-0.0281122 -0.0105861 1.03424)
(-0.0567937 -0.0248071 1.14323)
(-0.0667026 -0.0374835 1.15779)
(-0.0255227 -0.00885735 1.06976)
(-0.0153657 0.00305551 1.08355)
(-0.00524828 0.000138806 1.13561)
(-0.0213566 -0.00274431 1.04991)
(-0.0184134 -0.00383561 1.03302)
(-0.0137915 0.00135 1.04533)
(-0.0221397 0.00491753 1.06155)
(-0.0248234 -0.00375653 1.04652)
(-0.0199837 0.00427512 1.05103)
(-0.0277735 -0.00339423 1.04474)
(-0.00801099 0.000679776 1.12545)
(-0.0173499 0.00323726 1.03948)
(-0.0296284 0.000851824 1.0348)
(-0.0224679 -0.0027182 1.12821)
(-0.00981767 0.00203412 1.12872)
(-0.0271264 0.00160439 1.05875)
(-0.0259134 0.0101522 1.13313)
(-0.0282264 0.00237426 1.04853)
(0.00215817 0.000565988 1.00191)
(0.0139384 -0.00451707 1.00892)
(0.0187486 0.000953772 1.01122)
(0.0134452 0.000873496 1.01283)
(0.0086474 0.00426235 1.00286)
(0.0139959 0.000140877 1.00533)
(0.01733 0.000780397 1.01024)
(0.0216533 -0.00859021 1.01918)
(0.0282875 0.00086857 1.03435)
(0.0540809 -0.0281896 1.06851)
(0.030915 -0.00705338 1.05077)
(0.000452314 0.0156444 1.10754)
(0.0225182 0.0154748 1.10042)
(0.0344831 -0.00523172 1.10907)
(0.0129285 -0.0080117 1.10518)
(0.0320394 -0.0165867 1.09395)
(0.0053809 -0.00621749 1.0683)
(0.00978136 -0.0362706 1.12848)
(0.060949 0.0344196 1.04)
(0.0899154 0.00529673 1.05982)
(0.0743142 -0.00809664 1.25329)
(0.0139274 -0.00729466 1.19577)
(0.0620848 0.00177442 1.15836)
(0.0170674 0.0357491 0.939574)
(0.0133671 0.00815199 1.0627)
(-0.375102 0.0775362 0.707039)
(0.0831153 -0.0844468 1.04915)
(0.056268 -0.0198512 0.973389)
(-0.128059 -0.0112527 0.958114)
(0.0588974 -0.108064 1.11964)
(0.0355975 -0.0365932 0.997056)
(0.091561 -0.151877 0.994978)
(0.0201501 0.0104818 1.03453)
(0.0134882 0.0130486 1.01546)
(0.00354769 0.014564 1.01932)
(0.0116658 0.0484596 1.03417)
(0.0239065 0.00214512 1.04092)
(0.0256005 0.00980781 1.04463)