/*--------------------------------*- C++ -*----------------------------------*\
| =========                 |                                                 |
| \\      /  F ield         | OpenFOAM: The Open Source CFD Toolbox           |
|  \\    /   O peration     | Version:  2506                                  |
|   \\  /    A nd           | Website:  www.openfoam.com                      |
|    \\/     M anipulation  |                                                 |
\*---------------------------------------------------------------------------*/
FoamFile
{
    version     2.0;
    format      ascii;
    arch        "LSB;label=32;scalar=64";
    class       volScalarField;
    location    "1700";
    object      p;
}
// * * * * * * * * * * * * * * * * * * * * * * * * * * * * * * * * * * * * * //

dimensions      [0 2 -2 0 0 0 0];

internalField   nonuniform List<scalar> 
44672
(
2.51023e+29
-1.14972e+30
-6.3195e+30
1.26721e+30
1.15652e+30
1.25459e+29
5.80075e+29
-5.60716e+29
-1.18875e+30
-5.05043e+29
-5.39028e+29
4.8447e+29
-3.73671e+29
4.37704e+29
3.92071e+29
6.82927e+29
-4.02415e+30
-2.05732e+30
-1.29728e+30
-1.62472e+30
-2.94131e+30
-1.8654e+30
-2.26302e+30
-1.53018e+30
1.48539e+30
9.48718e+29
-1.25689e+30
1.20312e+30
1.3121e+30
8.14203e+29
9.89433e+29
4.26917e+29
-9.67756e+27
-4.72934e+30
1.12078e+30
7.35202e+29
4.80677e+29
-4.8526e+29
7.1856e+29
6.77065e+29
4.14361e+29
6.26191e+29
-9.86909e+29
-3.17255e+30
5.27504e+29
1.89588e+29
-2.85055e+30
-2.46146e+30
-4.76704e+30
7.57069e+29
7.54941e+29
-2.17543e+30
-2.10485e+30
1.67793e+29
-1.76984e+30
2.7693e+29
-2.65074e+30
-2.04343e+30
3.81158e+29
-3.79063e+29
-1.82102e+30
-2.29506e+30
-1.69792e+30
-1.59764e+30
2.27646e+29
4.73059e+29
2.21267e+29
4.79935e+29
3.69712e+29
2.51473e+29
3.3538e+29
2.34294e+29
6.16361e+29
6.99427e+29
6.10455e+29
7.50298e+29
6.47355e+29
6.3304e+29
6.11564e+29
6.27045e+29
2.29545e+29
4.69357e+29
2.0272e+29
4.44937e+29
3.30043e+29
3.49729e+29
3.64931e+29
3.35946e+29
6.44673e+29
7.50216e+29
6.0357e+29
7.57647e+29
7.22614e+29
7.09975e+29
7.06038e+29
7.15701e+29
5.34304e+29
3.43076e+29
5.49636e+29
6.77878e+29
4.8535e+29
3.99643e+29
6.24034e+29
5.10528e+29
4.54867e+29
6.57679e+29
5.38095e+29
3.81797e+29
4.33413e+29
5.60317e+29
4.19661e+29
5.03777e+29
3.90553e+29
5.19558e+29
6.56539e+29
5.63701e+29
3.78708e+29
4.987e+29
4.99717e+29
6.22327e+29
3.74676e+29
6.07902e+29
6.43201e+29
5.19465e+29
4.75566e+29
5.55474e+29
5.41711e+29
5.83579e+29
1.115e+29
1.50815e+29
1.66286e+29
1.25736e+29
1.25641e+29
1.52225e+29
1.39254e+29
1.58125e+29
1.78973e+29
2.09087e+29
2.03413e+29
1.85944e+29
1.79618e+29
2.16615e+29
1.96717e+29
2.35595e+29
2.06287e+29
2.19152e+29
2.1822e+29
1.9742e+29
2.07928e+29
2.14521e+29
2.0939e+29
2.21503e+29
1.3566e+29
1.66426e+29
1.83303e+29
1.42241e+29
1.43443e+29
1.65631e+29
1.5614e+29
1.71313e+29
1.56478e+29
1.72887e+29
1.33726e+29
1.67703e+29
1.71606e+29
1.68612e+29
1.60432e+29
1.60247e+29
1.83632e+29
1.89453e+29
2.0261e+29
1.99118e+29
1.89251e+29
1.94768e+29
1.93777e+29
2.01768e+29
1.89675e+29
1.50757e+29
1.7769e+29
1.87228e+29
1.75672e+29
1.67976e+29
1.80911e+29
1.75979e+29
2.0331e+29
1.95704e+29
1.96549e+29
2.27402e+29
2.05293e+29
1.96225e+29
2.07991e+29
1.96988e+29
8.67981e+30
-2.65945e+30
-1.20834e+31
-1.86115e+30
-5.9122e+30
-4.98746e+30
-3.41075e+30
-6.67769e+30
4.8486e+30
3.50432e+30
-7.92567e+30
1.32881e+30
2.99146e+29
-4.79062e+29
1.92562e+29
-1.15847e+30
-4.29267e+30
-5.50956e+30
-1.38187e+30
-1.99279e+30
-4.15088e+30
-3.44472e+30
-2.43159e+30
-2.54728e+30
-5.01577e+29
1.31748e+30
-1.63102e+30
1.11829e+30
5.27756e+29
2.6349e+29
5.96365e+29
1.77594e+28
-8.0688e+29
-6.84701e+30
-1.91738e+30
1.12735e+30
4.74419e+29
-1.4977e+30
6.3396e+29
-5.69466e+29
-5.79095e+29
2.36287e+29
-7.05131e+30
-8.26268e+30
-8.34158e+29
-4.42331e+29
-5.16394e+30
-4.56759e+30
-5.99854e+30
-1.14977e+30
7.97622e+29
-2.47586e+30
-4.08247e+30
-1.56726e+30
-2.36169e+30
-1.18918e+29
-6.5029e+30
-2.85752e+30
-7.25491e+29
-7.13203e+30
-4.56007e+30
-3.58966e+30
-4.39369e+30
-2.41854e+30
8.01055e+29
6.72569e+29
8.06756e+29
1.00316e+30
7.74465e+29
7.02043e+29
8.9756e+29
8.10819e+29
5.31011e+29
2.64803e+29
5.34085e+29
6.53282e+29
4.98759e+29
4.43532e+29
5.66021e+29
5.2158e+29
8.55906e+29
6.59706e+29
8.83135e+29
1.07147e+30
8.76755e+29
7.84928e+29
9.73448e+29
9.1527e+29
1.09346e+30
9.66885e+29
1.12844e+30
1.20964e+30
1.07158e+30
9.90268e+29
1.12043e+30
1.07245e+30
6.67114e+29
8.19829e+29
9.83675e+29
8.11138e+29
7.48222e+29
8.51534e+29
8.58357e+29
9.25465e+29
6.00545e+29
7.4325e+29
6.36216e+29
7.13056e+29
6.75849e+29
6.95555e+29
6.94709e+29
6.98764e+29
9.75539e+29
1.04951e+30
8.81839e+29
1.04298e+30
1.03573e+30
1.01461e+30
1.00824e+30
9.90164e+29
8.63345e+29
1.02566e+30
8.2566e+29
7.11038e+29
9.05993e+29
9.56161e+29
7.66596e+29
8.94008e+29
4.05112e+28
2.90136e+28
3.98351e+28
1.76908e+29
8.26258e+28
3.27143e+28
1.1928e+29
7.74292e+28
1.89351e+28
2.38754e+28
2.94754e+28
1.5271e+29
6.33399e+28
1.48358e+28
1.03781e+29
6.50925e+28
2.77405e+28
3.10845e+28
3.23712e+28
1.45447e+29
7.34254e+28
2.57037e+28
1.11105e+29
6.84752e+28
3.4691e+29
3.24683e+29
2.87218e+29
4.49367e+29
3.90993e+29
3.23164e+29
4.24683e+29
3.5593e+29
7.52684e+28
8.93132e+28
2.41983e+29
2.03096e+29
1.06526e+29
1.02086e+29
1.45004e+29
1.4176e+29
2.5645e+28
1.44767e+29
2.16587e+28
3.39413e+28
6.62368e+28
9.50915e+28
2.5216e+28
6.64807e+28
1.23238e+29
2.85473e+29
2.41017e+29
2.3858e+29
1.51883e+29
2.09704e+29
2.03941e+29
2.53322e+29
7.29949e+28
1.86342e+29
1.92735e+29
6.10928e+28
1.0791e+29
1.49466e+29
1.01167e+29
1.61739e+29
6.58389e+29
8.20619e+29
3.85176e+29
9.25566e+29
7.41543e+29
5.39264e+29
6.59097e+29
5.30976e+29
1.21871e+30
1.24691e+30
7.41869e+29
1.35673e+30
1.25799e+30
1.04075e+30
1.21385e+30
8.91296e+29
2.19302e+29
5.25522e+29
1.60389e+29
2.65924e+29
2.56479e+29
2.06412e+29
2.3851e+29
1.62061e+29
1.29208e+30
1.41412e+30
5.52441e+29
1.707e+30
1.34786e+30
7.70589e+29
1.18151e+30
7.31863e+29
9.58631e+29
4.03401e+29
1.09369e+30
1.15901e+30
8.78593e+29
5.54621e+29
1.05729e+30
8.10254e+29
8.52162e+29
8.61471e+29
3.44347e+29
4.57021e+29
7.2135e+29
8.55501e+29
5.4484e+29
4.79923e+29
3.80732e+29
8.92557e+29
1.13052e+30
4.38156e+29
4.51873e+29
7.24058e+29
5.81011e+29
8.5256e+29
3.75458e+29
4.30342e+29
7.0134e+29
1.34291e+29
3.85018e+29
4.05449e+29
3.76589e+29
5.88402e+29
8.46237e+28
2.04278e+29
1.91727e+29
2.19953e+29
1.62499e+29
1.71639e+29
1.73678e+29
1.7917e+29
3.15079e+29
3.82623e+29
3.44587e+29
4.26061e+29
3.86021e+29
3.7407e+29
3.93224e+29
3.54719e+29
2.57988e+29
3.13087e+29
2.79647e+29
3.35787e+29
3.14616e+29
3.06232e+29
3.19693e+29
2.96385e+29
3.85232e+29
4.48951e+29
4.13967e+29
4.96445e+29
4.28569e+29
4.313e+29
4.58229e+29
4.29221e+29
2.89743e+29
2.60823e+29
2.89394e+29
4.09078e+29
2.97304e+29
2.78218e+29
3.25497e+29
2.96403e+29
2.88549e+29
4.07268e+29
3.45646e+29
2.61211e+29
2.91204e+29
3.6874e+29
2.82174e+29
3.53396e+29
2.64423e+29
3.03058e+29
4.20039e+29
3.92999e+29
2.99659e+29
3.02358e+29
3.78475e+29
4.10112e+29
2.6046e+29
3.52948e+29
3.89916e+29
3.22361e+29
3.38281e+29
3.69676e+29
3.56786e+29
3.80547e+29
4.8394e+28
1.45017e+29
5.62542e+28
1.77952e+29
1.18049e+29
1.24882e+29
1.20621e+29
1.24885e+29
2.19486e+29
2.67899e+29
2.17315e+29
3.20489e+29
2.88065e+29
2.61976e+29
2.92034e+29
2.68793e+29
5.74899e+28
1.43827e+29
6.10275e+28
1.82606e+29
1.18625e+29
1.07425e+29
1.20396e+29
1.11023e+29
3.2033e+29
4.03356e+29
3.33951e+29
4.91256e+29
3.85119e+29
3.63311e+29
3.96075e+29
3.78344e+29
2.23415e+29
1.16318e+29
2.42752e+29
3.27262e+29
2.27277e+29
1.77349e+29
2.66166e+29
2.4479e+29
2.07914e+29
2.98624e+29
1.91981e+29
1.14905e+29
2.0569e+29
2.43835e+29
1.47202e+29
2.11621e+29
1.20764e+29
2.47124e+29
3.34444e+29
2.40094e+29
1.88782e+29
2.50411e+29
2.32277e+29
2.90646e+29
1.19164e+29
2.27739e+29
3.15203e+29
1.98107e+29
1.68203e+29
2.15711e+29
2.18832e+29
2.74522e+29
1.54852e+29
2.01343e+29
2.32863e+29
1.99943e+29
1.65431e+29
1.73817e+29
2.01775e+29
2.14662e+29
3.40217e+29
-1.90465e+29
4.19402e+29
7.93255e+29
5.1966e+29
4.62147e+29
5.48607e+29
3.68422e+29
3.19971e+29
6.10736e+29
5.57663e+29
7.93908e+29
5.88584e+29
5.97126e+29
6.77322e+29
6.36586e+29
4.87502e+29
7.20969e+29
9.08387e+29
1.1769e+30
7.80751e+29
8.46307e+29
1.16647e+30
9.76351e+29
3.43082e+29
3.83601e+29
3.32324e+29
5.93925e+29
3.55931e+29
4.08838e+29
3.7546e+29
3.65275e+29
3.11771e+29
6.59354e+29
6.69858e+29
3.3839e+29
3.90292e+29
5.41957e+29
3.8529e+29
6.51318e+29
3.63599e+29
4.21951e+29
8.14546e+29
8.32599e+29
3.4494e+29
4.54306e+29
7.98152e+29
8.88457e+29
3.28433e+29
8.10319e+29
8.07847e+29
6.49852e+29
7.04177e+29
7.75847e+29
7.10114e+29
7.36852e+29
1.3474e+29
1.69191e+29
1.34032e+29
1.05856e+29
1.33069e+29
1.51743e+29
1.13423e+29
1.29758e+29
1.90496e+29
2.11171e+29
2.01538e+29
1.77548e+29
1.95874e+29
2.10192e+29
1.74367e+29
1.97942e+29
1.21601e+29
1.65987e+29
9.44476e+28
1.0527e+29
1.20174e+29
1.32176e+29
1.06803e+29
1.17455e+29
7.98289e+28
1.13116e+29
8.92346e+28
4.87373e+28
8.15984e+28
9.39537e+28
6.46193e+28
8.03316e+28
1.69075e+29
1.26683e+29
1.09213e+29
1.45139e+29
1.49024e+29
1.34534e+29
1.4263e+29
1.18148e+29
1.83718e+29
1.57741e+29
1.90063e+29
1.44874e+29
1.68029e+29
1.75616e+29
1.74529e+29
1.72175e+29
1.05707e+29
1.01992e+29
1.3353e+29
9.25015e+28
1.07011e+29
1.09893e+29
1.0636e+29
1.07705e+29
1.23104e+29
1.04566e+29
1.48771e+29
1.69838e+29
1.34658e+29
1.20724e+29
1.46864e+29
1.48333e+29
5.69046e+28
1.4746e+29
4.82738e+28
9.14324e+28
8.35751e+28
9.269e+28
7.6219e+28
7.91667e+28
2.34719e+29
3.01376e+29
2.37543e+29
2.34885e+29
2.48532e+29
2.68364e+29
2.32965e+29
2.42229e+29
4.43887e+28
1.40519e+29
3.91065e+28
8.16081e+28
7.9324e+28
8.89658e+28
6.66279e+28
7.22604e+28
1.22736e+29
1.82481e+29
1.10685e+29
1.36876e+29
1.39968e+29
1.47005e+29
1.32814e+29
1.37797e+29
1.70558e+29
8.23092e+28
1.21435e+29
1.87862e+29
1.59545e+29
1.14264e+29
1.69597e+29
1.29412e+29
1.846e+29
2.02835e+29
1.85682e+29
9.00131e+28
1.6607e+29
1.93562e+29
1.51437e+29
1.71518e+29
7.21689e+28
1.11084e+29
1.701e+29
1.04884e+29
9.64512e+28
1.17073e+29
1.15506e+29
1.35249e+29
7.69683e+28
1.10658e+29
1.84947e+29
1.66145e+29
1.08948e+29
1.24216e+29
1.54789e+29
1.66959e+29
5.57451e+29
4.25931e+29
3.71792e+29
6.23863e+29
4.96676e+29
4.51596e+29
4.89641e+29
4.47938e+29
2.6773e+29
7.41813e+28
6.5239e+28
2.65317e+29
1.88532e+29
1.20755e+29
1.84572e+29
1.09542e+29
1.95493e+29
5.80899e+28
4.97938e+28
2.10753e+29
1.52507e+29
8.37151e+28
1.48491e+29
1.10971e+29
7.33142e+29
4.72721e+29
4.2445e+29
7.94185e+29
7.72536e+29
5.6995e+29
8.56426e+29
5.88568e+29
3.68012e+29
3.66705e+29
5.90624e+29
3.18574e+29
3.667e+29
4.17354e+29
4.48944e+29
4.75983e+29
2.93895e+29
2.60183e+29
9.11989e+28
2.60958e+29
2.99652e+29
2.51159e+29
2.14335e+29
1.43587e+29
3.43567e+29
5.63908e+29
3.37815e+29
3.51131e+29
3.85737e+29
4.72974e+29
3.49562e+29
4.38852e+29
2.68849e+29
2.64462e+29
2.85067e+29
1.10374e+29
2.20091e+29
2.51653e+29
1.40066e+29
2.13739e+29
7.22332e+28
2.01567e+29
2.16205e+29
2.32747e+29
1.63617e+29
1.96774e+29
1.97426e+29
2.16781e+29
3.11767e+29
4.01863e+29
4.379e+29
5.86716e+29
4.17591e+29
4.5874e+29
5.21702e+29
4.81098e+29
3.82749e+29
4.62663e+29
4.97712e+29
5.64476e+29
4.83263e+29
5.20856e+29
5.62198e+29
5.1481e+29
4.55881e+29
6.72342e+29
5.90552e+29
5.60217e+29
8.35099e+29
7.5938e+29
7.93126e+29
6.40787e+29
3.19008e+29
3.36342e+29
3.63714e+29
6.32751e+29
3.49145e+29
3.34417e+29
3.90292e+29
3.79995e+29
3.34175e+29
6.09079e+29
4.89267e+29
3.45211e+29
3.39e+29
4.79511e+29
3.37024e+29
4.85896e+29
3.78459e+29
4.16751e+29
6.671e+29
6.48946e+29
3.92215e+29
3.91461e+29
6.40959e+29
6.25644e+29
3.78532e+29
5.8704e+29
6.12925e+29
5.28399e+29
4.89793e+29
6.08863e+29
5.38723e+29
5.29725e+29
4.54274e+29
3.44758e+29
3.98678e+29
5.85035e+29
4.53067e+29
3.423e+29
5.09829e+29
3.76549e+29
1.97538e+29
4.88614e+28
5.05423e+28
2.09162e+29
1.78373e+29
7.32404e+28
1.92439e+29
6.01999e+28
2.56946e+29
5.56991e+28
5.96361e+28
2.95271e+29
2.55469e+29
1.07588e+29
2.49756e+29
1.01475e+29
6.58523e+29
4.44837e+29
6.73566e+29
1.00342e+30
8.42969e+29
4.95044e+29
1.00848e+30
4.23469e+29
3.39554e+29
4.1181e+29
6.31609e+29
4.06684e+29
3.67289e+29
4.00318e+29
4.02794e+29
4.44039e+29
2.19296e+29
2.53059e+29
8.16361e+28
2.56123e+29
2.2378e+29
2.1473e+29
2.32712e+29
2.27104e+29
4.36683e+29
6.14222e+29
4.55109e+29
5.32365e+29
4.91631e+29
4.44172e+29
5.24095e+29
4.60254e+29
2.56583e+29
3.1185e+29
2.47103e+29
7.07193e+28
2.52928e+29
3.09869e+29
2.48443e+29
2.6352e+29
2.32407e+29
4.3503e+29
4.57486e+29
4.05747e+29
3.28135e+29
4.06983e+29
4.024e+29
4.54286e+29
6.00417e+29
6.87464e+29
7.41012e+29
6.54081e+29
6.60528e+29
7.28527e+29
7.09406e+29
7.16408e+29
6.45468e+29
8.21081e+29
9.01298e+29
7.47346e+29
8.21449e+29
8.66106e+29
8.51366e+29
8.60075e+29
5.15933e+29
6.05517e+29
6.65506e+29
5.82257e+29
6.08148e+29
6.50436e+29
6.53538e+29
6.487e+29
5.11718e+29
5.44789e+29
5.03198e+29
6.36252e+29
5.60452e+29
5.40184e+29
5.64679e+29
5.46946e+29
5.80172e+29
6.91884e+29
7.91484e+29
6.12191e+29
6.15693e+29
7.00186e+29
6.1294e+29
7.38367e+29
5.81509e+29
5.44897e+29
6.76336e+29
7.62802e+29
5.83082e+29
5.86627e+29
7.13377e+29
6.64937e+29
6.39018e+29
7.33006e+29
6.79571e+29
7.84305e+29
7.80921e+29
7.74852e+29
7.76965e+29
7.0235e+29
1.43639e+29
9.9233e+28
7.52592e+28
3.71503e+29
1.42494e+29
7.89381e+28
2.12947e+29
1.4233e+29
9.61573e+28
7.69967e+28
8.72562e+28
2.76437e+29
1.32783e+29
6.73747e+28
1.74167e+29
1.23669e+29
7.49746e+28
7.60625e+28
7.4102e+28
2.76257e+29
9.65752e+28
6.17112e+28
1.18794e+29
9.25866e+28
5.07282e+29
4.47972e+29
4.32903e+29
5.53679e+29
4.73081e+29
4.5195e+29
4.79067e+29
4.73732e+29
1.26834e+29
1.16656e+29
3.46175e+29
3.2211e+29
1.82361e+29
1.92013e+29
3.15807e+29
3.27503e+29
7.48926e+28
2.82479e+29
5.95616e+28
6.69753e+28
1.2712e+29
1.76715e+29
7.2598e+28
1.06378e+29
1.74999e+29
3.71723e+29
3.61478e+29
3.13142e+29
2.70783e+29
3.2994e+29
3.11163e+29
3.72891e+29
1.26224e+29
2.97348e+29
3.21282e+29
1.07025e+29
1.55717e+29
2.77359e+29
1.52325e+29
2.99339e+29
8.92753e+29
7.58989e+29
7.54066e+29
9.07322e+29
1.13149e+30
1.03268e+30
8.97868e+29
1.1367e+30
4.11132e+29
1.04204e+29
2.88879e+29
3.94296e+29
3.64855e+29
2.14676e+29
3.72504e+29
3.03115e+29
5.73672e+29
4.05664e+29
4.33424e+29
5.47367e+29
6.00265e+29
5.02583e+29
5.38067e+29
5.50123e+29
9.10597e+29
6.76298e+29
6.52463e+29
7.61509e+29
1.00883e+30
7.62183e+29
8.17977e+29
8.21653e+29
7.68892e+29
7.83372e+29
1.01047e+30
6.69354e+29
6.83829e+29
8.06587e+29
7.56106e+29
8.31838e+29
4.82356e+29
4.81025e+29
4.04769e+29
6.4394e+29
6.20108e+29
5.00163e+29
5.81077e+29
5.39533e+29
7.57572e+29
9.0089e+29
6.64755e+29
6.64812e+29
7.49494e+29
9.42408e+29
7.50691e+29
7.75375e+29
7.44662e+29
6.76326e+29
5.89271e+29
4.8531e+29
6.21811e+29
5.97585e+29
5.29956e+29
5.62182e+29
6.76479e+29
6.29239e+29
5.57205e+29
5.17139e+29
6.1969e+29
6.3996e+29
5.65937e+29
5.28781e+29
5.94902e+29
5.32177e+29
5.22011e+29
4.32069e+29
5.40137e+29
5.74978e+29
5.00084e+29
4.57852e+29
4.04717e+29
3.83295e+29
1.89287e+29
2.7121e+29
3.80864e+29
3.70292e+29
2.87753e+29
2.39417e+29
4.12031e+29
3.77023e+29
3.08735e+29
3.26511e+29
3.79755e+29
3.70119e+29
3.45283e+29
3.17057e+29
5.6481e+29
5.13403e+29
4.88122e+29
4.46327e+29
5.19488e+29
5.24314e+29
4.70019e+29
4.96199e+29
6.10735e+29
4.4115e+29
5.11929e+29
5.27973e+29
4.81374e+29
4.82191e+29
5.40279e+29
4.88941e+29
4.35383e+29
4.44406e+29
4.10483e+29
3.19499e+29
4.25147e+29
4.10692e+29
3.94924e+29
3.88785e+29
3.98579e+29
2.82534e+29
3.79537e+29
3.78764e+29
3.88087e+29
3.78027e+29
4.25816e+29
4.05563e+29
1.63316e+29
1.39505e+30
-1.21819e+31
-1.40464e+31
-2.20127e+30
-3.645e+30
-1.34682e+31
-1.20047e+31
-5.38222e+30
-6.64531e+30
-1.56238e+31
-2.49095e+31
-8.11892e+30
-7.67097e+30
-1.53303e+31
-1.24091e+31
-5.31687e+30
-3.26814e+30
-1.34362e+30
-3.7235e+30
-4.44642e+30
-2.05252e+30
-2.75861e+30
-2.32842e+30
-3.24377e+31
-2.73684e+31
-7.0427e+30
-3.279e+31
-2.61602e+31
-1.86448e+31
-2.10276e+31
-1.5773e+31
-5.90494e+30
-1.02866e+31
-1.58218e+31
-3.04935e+31
-9.53579e+30
-1.35245e+31
-1.37632e+31
-1.14828e+31
-7.02247e+30
-2.60968e+31
-7.46117e+30
-7.13661e+30
-5.31671e+30
-1.46698e+31
-8.34183e+30
-1.11131e+31
-1.16312e+31
-2.65314e+31
-1.90659e+31
-8.62062e+30
-1.61089e+31
-2.24927e+31
-9.48368e+30
-1.58227e+31
-8.08057e+30
-6.35229e+30
-2.42928e+31
-7.74065e+30
-7.63155e+30
-6.8685e+30
-7.8896e+30
-1.24952e+31
1.5945e+29
3.82934e+29
1.19424e+29
2.17122e+29
2.08097e+29
2.36052e+29
1.74301e+29
1.89928e+29
5.21439e+29
5.55981e+29
4.06079e+29
4.19455e+29
4.70938e+29
5.2174e+29
4.29733e+29
4.4079e+29
1.15171e+29
2.54374e+29
8.7281e+28
1.58123e+29
1.746e+29
1.85253e+29
1.42474e+29
1.46156e+29
2.56728e+29
3.42351e+29
2.16395e+29
2.87102e+29
3.04876e+29
3.06743e+29
2.71049e+29
2.79701e+29
3.65415e+29
1.86749e+29
2.64237e+29
3.75954e+29
3.33564e+29
2.55718e+29
3.63123e+29
2.77814e+29
3.93614e+29
3.86629e+29
3.65345e+29
2.09175e+29
3.53194e+29
3.64577e+29
3.29384e+29
3.25193e+29
1.49341e+29
2.33136e+29
3.39538e+29
2.01942e+29
1.7014e+29
2.40483e+29
2.37633e+29
2.94944e+29
1.66681e+29
2.21541e+29
3.51274e+29
3.12068e+29
2.27623e+29
2.45178e+29
2.80986e+29
2.88971e+29
2.13309e+28
2.7799e+28
2.77496e+28
1.87775e+29
5.98003e+28
2.05968e+28
1.02642e+29
5.37891e+28
1.74556e+28
1.64274e+28
2.76752e+28
1.59382e+29
3.87513e+28
1.07963e+28
7.62185e+28
4.04494e+28
2.42378e+28
1.53627e+28
2.82405e+28
1.68848e+29
2.82036e+28
7.93001e+27
7.15388e+28
3.73375e+28
3.5273e+29
3.77965e+29
4.29825e+29
7.79899e+29
4.27645e+29
3.7971e+29
4.95932e+29
4.8531e+29
4.38391e+28
4.72798e+28
2.04254e+29
2.08082e+29
8.40301e+28
1.0955e+29
1.64543e+29
1.75217e+29
1.67694e+28
1.71164e+29
1.93114e+28
2.14719e+28
4.50783e+28
9.88542e+28
2.87098e+28
3.91947e+28
9.15873e+28
2.59635e+29
2.52731e+29
2.51778e+29
1.63313e+29
2.14602e+29
2.02931e+29
2.98286e+29
4.55178e+28
2.15948e+29
2.14831e+29
3.87845e+28
1.06877e+29
1.67029e+29
7.7106e+28
1.80863e+29
2.572e+28
1.08511e+28
2.19769e+28
1.999e+29
6.52911e+28
1.88591e+28
9.50964e+28
6.57274e+28
4.38125e+27
2.56842e+28
2.95322e+28
2.48037e+29
3.93271e+28
2.20371e+28
7.60424e+28
6.3291e+28
1.0369e+28
3.03529e+28
3.23358e+28
1.95112e+29
3.78813e+28
1.94667e+28
6.80232e+28
4.80008e+28
4.54214e+29
6.48104e+29
4.83635e+29
1.0623e+30
5.56537e+29
4.71247e+29
4.66449e+29
5.20634e+29
4.48869e+28
4.73745e+28
2.6683e+29
2.89136e+29
1.03072e+29
1.20359e+29
2.20883e+29
1.96822e+29
7.71552e+27
2.26275e+29
1.59392e+28
9.63295e+27
5.59446e+28
8.76586e+28
2.13843e+28
4.78096e+28
8.0597e+28
2.87182e+29
2.74271e+29
2.82991e+29
1.84546e+29
2.54711e+29
2.57193e+29
3.44478e+29
3.85413e+28
2.42981e+29
3.05068e+29
5.56879e+28
8.27667e+28
1.87554e+29
6.55149e+28
2.28648e+29
4.2607e+29
4.21527e+29
3.30634e+29
5.20757e+29
4.44103e+29
3.87194e+29
4.34907e+29
3.97648e+29
3.88943e+29
3.24931e+29
3.00659e+29
5.15045e+29
4.10188e+29
3.19504e+29
4.18126e+29
3.60365e+29
2.59808e+29
2.55414e+29
1.63758e+29
3.78399e+29
2.73004e+29
2.30673e+29
2.85574e+29
2.22681e+29
5.84554e+29
6.28421e+29
5.67589e+29
6.64139e+29
6.15228e+29
6.03835e+29
6.14688e+29
5.89222e+29
4.43929e+29
3.45557e+29
5.37377e+29
5.4423e+29
4.31893e+29
4.19341e+29
5.30068e+29
5.07322e+29
3.7802e+29
5.1173e+29
2.95147e+29
3.06059e+29
3.93676e+29
4.12437e+29
3.30574e+29
3.42015e+29
3.59451e+29
5.38044e+29
5.58225e+29
4.75605e+29
4.41593e+29
5.03388e+29
4.82044e+29
5.35969e+29
3.23726e+29
4.29778e+29
5.28401e+29
2.95815e+29
3.4729e+29
4.3049e+29
3.46732e+29
4.57917e+29
5.99222e+29
4.64763e+29
4.64659e+29
6.38669e+29
5.50394e+29
5.11556e+29
5.53893e+29
4.84933e+29
2.92009e+29
1.05931e+29
9.67061e+28
2.94738e+29
2.12255e+29
1.57164e+29
2.09613e+29
1.3835e+29
2.88916e+29
8.68686e+28
8.66737e+28
2.64324e+29
2.29989e+29
1.38232e+29
2.24131e+29
1.23048e+29
7.55841e+29
5.20231e+29
4.78479e+29
8.92027e+29
6.77117e+29
5.45123e+29
6.79368e+29
5.22964e+29
4.16005e+29
4.02242e+29
6.32967e+29
3.93541e+29
4.24411e+29
4.72739e+29
4.49245e+29
5.48284e+29
3.87243e+29
3.16817e+29
1.57955e+29
3.58839e+29
3.73004e+29
3.16667e+29
3.07668e+29
2.70346e+29
4.0011e+29
6.42418e+29
3.90627e+29
4.23722e+29
4.67497e+29
5.39836e+29
4.20512e+29
5.03226e+29
3.19796e+29
3.15395e+29
3.03335e+29
1.37429e+29
2.90852e+29
3.4525e+29
2.65447e+29
2.95014e+29
3.60631e+29
3.74558e+29
2.82164e+29
3.31122e+29
3.31324e+29
3.2626e+29
3.02055e+29
2.99206e+29
4.05286e+29
4.33287e+29
3.36186e+29
3.82336e+29
3.855e+29
3.66742e+29
3.52182e+29
3.42694e+29
1.82263e+29
2.02186e+29
6.60721e+28
7.52018e+28
1.38651e+29
1.49246e+29
9.7922e+28
1.02634e+29
2.3096e+29
2.48369e+29
8.82915e+28
8.62942e+28
1.83788e+29
1.73482e+29
1.17974e+29
1.38968e+29
3.67464e+29
2.49656e+29
3.11843e+29
3.29553e+29
3.19392e+29
3.05356e+29
3.47496e+29
2.9641e+29
3.5272e+29
3.14356e+29
2.72042e+29
2.49159e+29
3.09177e+29
3.32314e+29
2.99905e+29
2.62515e+29
2.06044e+29
2.46493e+29
2.67171e+29
1.09474e+29
2.13535e+29
2.49079e+29
1.49423e+29
2.25146e+29
2.08332e+29
1.18547e+29
2.68286e+29
2.2152e+29
1.99403e+29
1.6473e+29
2.31547e+29
2.29531e+29
9.76734e+29
9.58067e+29
6.9744e+29
1.33235e+30
1.04192e+30
1.04549e+30
1.13249e+30
1.04254e+30
1.02384e+30
9.15636e+29
6.86111e+29
1.15071e+30
1.05394e+30
1.37998e+30
1.53313e+30
1.40253e+30
3.96054e+29
4.24185e+29
1.07407e+29
3.98031e+29
4.08309e+29
3.49829e+29
3.49283e+29
2.67558e+29
2.05796e+30
1.64649e+30
1.14168e+30
2.93367e+30
2.10416e+30
2.13943e+30
2.25069e+30
2.12852e+30
1.1271e+30
7.49e+29
1.48276e+30
1.32527e+30
1.32669e+30
1.14684e+30
1.31215e+30
1.57511e+30
1.26412e+30
1.75586e+30
7.53683e+29
7.33603e+29
1.27168e+30
1.5581e+30
7.33631e+29
6.88877e+29
7.72296e+29
1.524e+30
1.91232e+30
8.77551e+29
1.05241e+30
1.40401e+30
9.23922e+29
1.7901e+30
6.77463e+29
7.31026e+29
1.89411e+30
6.50807e+29
7.59546e+29
8.3097e+29
7.33509e+29
9.98979e+29
1.06286e+30
6.60222e+29
8.72333e+29
1.3462e+30
1.05942e+30
6.91488e+29
1.20433e+30
8.36244e+29
3.42135e+29
8.68011e+28
1.24296e+29
3.54676e+29
3.01739e+29
1.73382e+29
3.46074e+29
1.22181e+29
4.60835e+29
6.56491e+28
8.11219e+28
3.45929e+29
4.3125e+29
2.36655e+29
4.2337e+29
1.48889e+29
1.86337e+30
1.13865e+30
1.14875e+30
2.67518e+30
1.87374e+30
1.46116e+30
2.19979e+30
1.0599e+30
6.28834e+29
8.58648e+29
1.32036e+30
6.91317e+29
7.96748e+29
8.65191e+29
7.69887e+29
9.80893e+29
4.1396e+29
5.2504e+29
2.23362e+29
5.81991e+29
3.97698e+29
3.78412e+29
4.3485e+29
3.78579e+29
9.639e+29
1.52637e+30
9.6522e+29
1.20044e+30
9.67086e+29
9.68066e+29
8.99019e+29
1.02163e+30
5.13437e+29
6.37236e+29
4.06493e+29
1.43756e+29
4.52765e+29
6.77546e+29
4.7365e+29
4.83375e+29
2.4373e+29
6.16073e+29
5.09082e+29
4.50405e+29
3.79506e+29
4.86176e+29
3.81998e+29
4.97643e+29
9.21129e+29
1.21687e+30
1.10859e+30
1.11932e+30
1.07138e+30
1.12734e+30
1.08323e+30
1.13765e+30
6.86279e+29
9.96259e+29
7.77642e+29
8.1949e+29
7.87538e+29
8.31024e+29
7.67148e+29
8.20241e+29
6.46075e+29
1.01411e+30
8.34164e+29
8.61833e+29
7.90343e+29
8.53494e+29
7.77464e+29
8.61413e+29
7.50593e+29
6.22802e+29
5.85239e+29
9.3954e+29
7.57809e+29
6.26778e+29
8.10024e+29
6.57501e+29
8.25507e+29
1.00489e+30
1.04084e+30
7.08079e+29
8.39077e+29
9.69773e+29
8.23521e+29
9.51836e+29
6.21874e+29
5.83168e+29
9.36671e+29
7.79438e+29
6.67305e+29
6.64831e+29
7.95354e+29
8.01526e+29
7.05725e+29
8.66791e+29
1.01884e+30
1.0477e+30
8.18151e+29
8.66344e+29
9.66256e+29
1.00942e+30
1.07631e+29
1.66844e+29
3.21273e+29
3.22754e+29
1.67406e+29
1.88622e+29
2.38871e+29
2.33321e+29
1.56072e+29
1.80814e+29
4.11303e+29
3.98922e+29
2.09325e+29
2.19856e+29
3.28484e+29
3.29874e+29
6.30372e+29
6.19288e+29
9.1486e+29
8.17128e+29
6.15438e+29
6.45663e+29
7.90622e+29
7.8064e+29
4.916e+29
5.21203e+29
7.12098e+29
6.12834e+29
5.11578e+29
5.34793e+29
5.82867e+29
5.79238e+29
1.94967e+29
3.77967e+29
3.77529e+29
3.98881e+29
2.95977e+29
3.37698e+29
3.61887e+29
4.05754e+29
2.02948e+29
4.17203e+29
4.43836e+29
4.01637e+29
2.93245e+29
3.77954e+29
3.75002e+29
4.29985e+29
4.86842e+29
4.43145e+29
4.90735e+29
6.6846e+29
5.34128e+29
4.35814e+29
5.37662e+29
5.01889e+29
4.73862e+29
6.59917e+29
4.93532e+29
5.18405e+29
5.42994e+29
5.67876e+29
5.14306e+29
5.67252e+29
3.7567e+29
3.98935e+29
3.45006e+29
4.23401e+29
3.98011e+29
3.85133e+29
4.0271e+29
3.83899e+29
4.14099e+29
4.19331e+29
3.91166e+29
5.14744e+29
4.33416e+29
4.47629e+29
4.80974e+29
4.65435e+29
2.58626e+29
2.8537e+29
1.38091e+29
3.38713e+29
2.67771e+29
2.4827e+29
2.71732e+29
2.50055e+29
5.44662e+29
5.77453e+29
5.80414e+29
6.5564e+29
6.24857e+29
6.22028e+29
6.365e+29
6.2283e+29
4.24266e+29
3.62168e+29
4.76482e+29
5.24162e+29
4.35628e+29
4.05404e+29
4.50465e+29
4.76458e+29
4.17901e+29
5.30083e+29
4.08056e+29
3.61232e+29
4.22212e+29
4.42121e+29
3.65399e+29
3.86665e+29
3.81509e+29
4.9844e+29
5.47603e+29
5.03225e+29
4.37914e+29
5.00171e+29
4.81115e+29
5.4435e+29
3.53529e+29
4.59813e+29
5.03852e+29
3.92442e+29
3.99873e+29
4.74164e+29
4.41075e+29
4.9944e+29
4.17916e+28
5.42102e+28
8.58855e+27
2.57975e+29
5.9491e+28
3.02943e+28
1.04667e+29
5.42448e+28
6.47396e+28
4.43665e+28
4.17424e+28
1.84752e+29
5.98488e+28
3.04149e+28
8.47478e+28
8.55874e+28
5.39246e+27
4.50691e+28
4.50841e+28
3.02361e+29
6.11466e+28
3.43666e+28
8.43155e+28
6.57606e+28
5.78509e+29
7.16986e+29
8.11825e+29
1.13697e+30
5.63416e+29
6.31008e+29
7.22229e+29
6.86536e+29
6.3957e+28
7.30231e+28
3.25375e+29
3.52201e+29
1.00176e+29
1.53027e+29
3.52143e+29
1.87195e+29
3.16572e+28
2.00566e+29
2.41253e+28
5.15185e+28
7.0837e+28
1.12343e+29
5.38667e+28
6.35619e+28
1.21056e+29
4.27033e+29
4.36812e+29
4.21153e+29
3.03396e+29
3.0991e+29
3.61204e+29
4.36943e+29
7.24282e+28
4.02221e+29
3.62837e+29
6.96478e+28
1.58528e+29
3.03442e+29
1.24163e+29
3.03645e+29
1.38539e+29
5.99995e+29
4.79802e+29
6.93887e+29
2.11558e+29
4.99373e+29
3.29809e+29
4.2235e+29
9.35302e+29
1.04759e+30
1.37591e+30
1.27213e+30
1.1515e+30
1.16483e+30
1.25917e+30
1.21808e+30
1.59977e+30
2.00657e+30
2.66853e+30
1.9951e+30
1.96328e+30
2.34485e+30
2.57636e+30
2.50268e+30
1.44927e+30
1.39747e+30
1.50062e+30
1.19365e+30
1.6261e+30
1.35289e+30
1.4785e+30
1.48742e+30
9.40209e+29
9.70609e+29
1.11534e+30
1.39227e+30
1.11797e+30
8.51699e+29
1.31996e+30
1.30237e+30
1.06335e+30
1.32107e+30
1.55133e+30
1.41654e+30
1.15429e+30
1.26027e+30
1.1444e+30
1.38945e+30
1.44261e+30
1.42884e+30
1.42752e+30
1.68577e+30
1.71657e+30
1.27658e+30
1.65033e+30
1.43825e+30
1.67994e+30
1.86189e+30
1.44163e+30
1.71159e+30
1.87489e+30
1.82992e+30
1.73535e+30
1.57299e+30
3.92356e+28
2.17476e+28
6.08943e+28
2.39356e+29
5.37243e+28
3.04519e+28
1.13486e+29
4.28293e+28
2.91792e+28
2.37491e+28
4.64843e+28
1.85832e+29
6.36049e+28
4.08557e+28
1.31489e+29
8.87816e+28
4.77531e+28
5.86329e+28
1.03026e+29
2.96838e+29
7.55674e+28
7.30595e+28
1.11296e+29
1.04756e+29
4.93821e+29
3.99661e+29
5.35858e+29
7.41899e+29
5.70992e+29
4.2514e+29
7.66312e+29
5.115e+29
4.91525e+28
7.23216e+28
2.79699e+29
2.50705e+29
1.13923e+29
8.1566e+28
1.87332e+29
2.16041e+29
4.09144e+28
2.1743e+29
5.47981e+28
4.94933e+28
6.57793e+28
1.05072e+29
3.94679e+28
6.64745e+28
1.27107e+29
3.80382e+29
3.50057e+29
3.54091e+29
2.71349e+29
2.50888e+29
2.92774e+29
2.92926e+29
5.98551e+28
2.80738e+29
2.76231e+29
1.00535e+29
1.01403e+29
2.65021e+29
1.32299e+29
2.48899e+29
2.46126e+29
2.66921e+29
2.55437e+29
2.39146e+29
2.57961e+29
2.62008e+29
2.56986e+29
2.64577e+29
3.07875e+29
3.68831e+29
3.26835e+29
2.91041e+29
3.21137e+29
3.37555e+29
3.24422e+29
3.36832e+29
2.60627e+29
3.01184e+29
2.83686e+29
2.67248e+29
2.80825e+29
2.93833e+29
2.76461e+29
2.92458e+29
1.86601e+29
1.98776e+29
2.07741e+29
1.04801e+29
1.66067e+29
1.88113e+29
1.56892e+29
1.61579e+29
2.87096e+29
2.7045e+29
2.35407e+29
2.60201e+29
2.80715e+29
2.68324e+29
2.6002e+29
2.49718e+29
2.99917e+29
2.82505e+29
3.15608e+29
2.80867e+29
2.94976e+29
3.05528e+29
2.82517e+29
3.10764e+29
2.71438e+29
2.32186e+29
2.49856e+29
2.33653e+29
2.53708e+29
2.40027e+29
2.44356e+29
2.51812e+29
2.81481e+29
2.46421e+29
2.6953e+29
3.20214e+29
2.8305e+29
2.64043e+29
2.98373e+29
2.77764e+29
1.37255e+30
7.19545e+29
7.64046e+29
1.67585e+30
1.24519e+30
1.09417e+30
1.30235e+30
1.02686e+30
2.17094e+29
8.12797e+28
6.44063e+28
1.76303e+29
1.67497e+29
1.31698e+29
1.68641e+29
1.24813e+29
3.69299e+29
5.31565e+28
7.06586e+28
3.14794e+29
3.11305e+29
1.03377e+29
3.09569e+29
1.01744e+29
2.03464e+30
4.39741e+29
9.54928e+29
2.40651e+30
1.75596e+30
8.21256e+29
1.63173e+30
8.42919e+29
4.14216e+29
6.35864e+29
1.56232e+30
3.41641e+29
4.11988e+29
8.47911e+29
4.6128e+29
9.93677e+29
3.08017e+29
2.67165e+29
1.00154e+29
3.89488e+29
3.7963e+29
2.46406e+29
3.00457e+29
2.64337e+29
6.26685e+29
1.61095e+30
3.44346e+29
6.84776e+29
9.16427e+29
1.00318e+30
6.59653e+29
7.17318e+29
4.04057e+29
3.25274e+29
2.84277e+29
1.03025e+29
3.21279e+29
3.01943e+29
2.48452e+29
2.38265e+29
4.41459e+28
3.78493e+28
1.15112e+29
3.16675e+29
6.68169e+28
4.27276e+28
1.14532e+29
1.00744e+29
3.59852e+28
4.39438e+28
4.3983e+28
1.30189e+29
8.44656e+28
5.1731e+28
1.00834e+29
8.49384e+28
6.21483e+28
8.90112e+27
6.01495e+28
3.73318e+29
1.04956e+29
8.33035e+27
1.30427e+29
3.24058e+28
1.09206e+30
9.94311e+29
1.23988e+30
2.87878e+30
1.0316e+30
8.89079e+29
7.81977e+29
1.27601e+30
9.43155e+28
4.11532e+28
2.65378e+29
2.0795e+29
8.89356e+28
1.3619e+29
2.14832e+29
2.31104e+29
2.85962e+28
1.39639e+29
4.51643e+28
5.57212e+27
4.67052e+28
8.13436e+28
2.85489e+28
7.75923e+28
7.52371e+28
2.54167e+29
2.75874e+29
4.12032e+29
5.78784e+29
2.54904e+29
2.63959e+29
4.11841e+29
-1.7446e+28
3.48302e+29
2.41634e+29
1.04785e+29
1.25672e+29
2.23961e+29
1.35518e+29
2.5119e+29
2.02299e+29
1.67968e+29
1.82348e+29
1.83466e+29
1.91756e+29
1.80403e+29
1.88451e+29
1.79452e+29
1.09753e+29
4.29891e+28
7.72282e+28
8.31496e+28
8.98544e+28
7.11558e+28
8.78654e+28
7.25635e+28
1.62152e+29
1.0622e+29
1.33835e+29
1.36355e+29
1.41529e+29
1.26683e+29
1.40135e+29
1.25337e+29
1.61523e+29
1.07312e+29
1.38442e+29
1.37991e+29
1.39409e+29
1.27097e+29
1.41314e+29
1.28001e+29
1.44978e+29
1.69701e+29
1.66715e+29
1.15082e+29
1.42612e+29
1.64332e+29
1.36561e+29
1.5336e+29
1.25698e+29
1.01005e+29
1.0116e+29
1.58185e+29
1.26751e+29
1.09349e+29
1.38712e+29
1.16613e+29
1.69237e+29
1.66621e+29
1.1496e+29
1.42945e+29
1.62971e+29
1.53248e+29
1.42909e+29
1.34896e+29
1.57059e+29
1.29029e+29
1.01295e+29
1.02014e+29
1.36756e+29
1.29911e+29
1.16385e+29
1.12999e+29
4.01937e+29
4.13406e+29