/*--------------------------------*- C++ -*----------------------------------*\
| =========                 |                                                 |
| \\      /  F ield         | OpenFOAM: The Open Source CFD Toolbox           |
|  \\    /   O peration     | Version:  2506                                  |
|   \\  /    A nd           | Website:  www.openfoam.com                      |
|    \\/     M anipulation  |                                                 |
\*---------------------------------------------------------------------------*/
FoamFile
{
    version     2.0;
    format      ascii;
    arch        "LSB;label=32;scalar=64";
    class       volScalarField;
    location    "1400";
    object      p;
}
// * * * * * * * * * * * * * * * * * * * * * * * * * * * * * * * * * * * * * //

dimensions      [0 2 -2 0 0 0 0];

internalField   nonuniform List<scalar> 
57600
(
-0.0210818
-0.0643125
-0.0466265
-0.0512507
-0.0375599
-0.0477733
-0.0448664
-0.0563701
-0.178232
-0.534907
-0.139974
-0.194164
-0.203016
-0.234225
-0.19773
-0.19319
-0.055094
-0.0962716
-0.0489809
-0.0697256
-0.0829819
-0.0833502
-0.063592
-0.0581624
-0.0846024
-0.115895
-0.0597157
-0.0843987
-0.0901423
-0.0922766
-0.0731607
-0.0760648
-0.094544
-0.0656813
-0.0743522
-0.132177
-0.106588
-0.0749439
-0.113093
-0.0851366
-0.10079
-0.158428
-0.158218
-0.0665248
-0.129339
-0.130214
-0.100233
-0.134214
-0.0577174
-0.0758995
-0.11764
-0.0568954
-0.0746569
-0.089747
-0.0782344
-0.0875881
-0.0619203
-0.0735761
-0.11332
-0.119936
-0.0809794
-0.0869774
-0.106271
-0.0942008
-0.00310792
-0.02026
0.000382507
-0.0226058
-0.0081692
-0.0101149
-0.0106913
-0.0103265
-0.0447826
-0.0626082
-0.0800272
-0.0584531
-0.0528264
-0.0611666
-0.0672275
-0.0792608
-0.0307568
-0.184165
-0.374766
-0.109413
-0.0656053
-0.07671
-0.0995146
-0.12864
-0.0481239
-0.0760196
-0.0852654
-0.0665285
-0.0617509
-0.0727727
-0.0708922
-0.086748
-0.0312744
-0.0159374
-0.0291477
-0.0603233
-0.0403793
-0.0291811
-0.0445992
-0.0388628
-0.0374133
-0.0664985
-0.0742414
-0.0282936
-0.0457591
-0.0615809
-0.040648
-0.0695485
-0.0307513
-0.0385679
-0.0700721
-0.0913653
-0.0540308
-0.0453657
-0.074895
-0.0632272
-0.0359992
-0.116495
-0.0644851
-0.0969005
-0.0820599
-0.0957368
-0.0911892
-0.108055
-0.0119129
-0.0157684
-0.0589066
-0.0471609
-0.0253631
-0.0278815
-0.0465996
-0.048109
-0.0192047
-0.0102984
-0.0845699
-0.0899691
-0.0409361
-0.0393179
-0.0893455
-0.0887703
-0.16658
-0.250181
-0.494537
-0.206636
-0.202928
-0.262936
-0.258698
-0.249464
-0.0798515
-0.106487
-0.132272
-0.0907705
-0.0927083
-0.118039
-0.106179
-0.116603
-0.031236
-0.0704911
-0.0613973
-0.089835
-0.0666563
-0.0644701
-0.0652142
-0.0757146
-0.0286855
-0.107964
-0.114857
-0.0868796
-0.0653995
-0.0790429
-0.0822248
-0.111385
-0.123533
-0.0963018
-0.129465
-0.167246
-0.112041
-0.10029
-0.13623
-0.113783
-0.0972846
-0.188007
-0.135272
-0.187225
-0.160023
-0.185468
-0.177211
-0.171711
-0.504447
-0.164582
-0.171896
-0.208082
-0.201302
-0.236929
-0.226506
-0.206004
-0.0739015
-0.038985
-0.0586914
-0.0574548
-0.0497627
-0.045598
-0.0561846
-0.0432455
-0.0697728
-0.0449759
-0.024021
-0.052122
-0.0548377
-0.0415886
-0.037568
-0.0271758
-0.138637
-0.0639812
-0.0728781
-0.0767619
-0.0737009
-0.076265
-0.0798031
-0.0742023
-0.116001
-0.127068
-0.114641
-0.0757324
-0.117768
-0.152787
-0.0899486
-0.119797
-0.1073
-0.0767695
-0.065151
-0.0974052
-0.0984926
-0.0767718
-0.0922222
-0.0745919
-0.112135
-0.133526
-0.0739257
-0.0753945
-0.0998718
-0.112443
-0.0843393
-0.0880855
-0.0729033
-0.0585839
-0.0657951
-0.0461783
-0.0777444
-0.0690643
-0.0625837
-0.0603643
-0.0160867
-0.0341328
-0.0124135
-0.0458855
-0.0322183
-0.0293041
-0.0287812
-0.0270583
-0.0469311
-0.0473511
-0.0407214
-0.0541267
-0.0507187
-0.0496816
-0.052832
-0.0490205
-0.00869181
-0.0243111
-0.00771502
-0.0293857
-0.0201052
-0.017876
-0.0175977
-0.0171769
-0.0713464
-0.0605502
-0.0527886
-0.0781352
-0.0743532
-0.0657374
-0.0685884
-0.0636087
-0.0550299
-0.023874
-0.0570818
-0.0659608
-0.047426
-0.0367965
-0.0589645
-0.0523414
-0.0532791
-0.061628
-0.0349872
-0.0212356
-0.0460191
-0.0514823
-0.0318612
-0.0385016
-0.0245497
-0.055525
-0.0613355
-0.0417759
-0.0367338
-0.0503455
-0.0429299
-0.0581908
-0.0229843
-0.0408491
-0.0580333
-0.0356754
-0.0293963
-0.0380677
-0.0367766
-0.0462259
-0.0212972
-0.0777036
-0.029776
-0.0927037
-0.0619398
-0.0634987
-0.0635048
-0.062042
-0.0915589
-0.0863529
-0.072095
-0.0783091
-0.0907011
-0.0897081
-0.0906253
-0.0864147
-0.0204578
-0.0485222
-0.0205952
-0.0558739
-0.0455077
-0.0445516
-0.0392034
-0.0397342
-0.101462
-0.0851292
-0.0928254
-0.111797
-0.0831837
-0.0809942
-0.0824161
-0.0765563
-0.104548
-0.0507382
-0.0939724
-0.0925199
-0.105474
-0.079084
-0.0997345
-0.0912026
-0.107952
-0.0896351
-0.0740914
-0.0558367
-0.0897548
-0.0934598
-0.0558166
-0.0803212
-0.0508551
-0.0907729
-0.083801
-0.0705963
-0.0832239
-0.0831692
-0.0753001
-0.0837002
-0.0542561
-0.0657702
-0.0801147
-0.0678695
-0.0676877
-0.0717286
-0.0698803
-0.0718083
-0.0464608
-0.0389982
-0.0529809
-0.0405882
-0.0459664
-0.0514122
-0.045946
-0.0505305
-0.0273521
-0.0102698
-0.033357
-0.0257329
-0.0226231
-0.0206154
-0.0293431
-0.0257055
-0.0595624
-0.048742
-0.0672763
-0.0514575
-0.0612564
-0.066903
-0.0586783
-0.0626336
-0.0337009
-0.0270301
-0.0389737
-0.0281163
-0.0338385
-0.0386084
-0.032851
-0.0381863
-0.0338161
-0.0520077
-0.0394756
-0.0305451
-0.0369621
-0.0452572
-0.031862
-0.0427126
-0.0355926
-0.0329489
-0.0398147
-0.05902
-0.0353328
-0.0347366
-0.04437
-0.0367986
-0.0501211
-0.0391287
-0.0325358
-0.044266
-0.043764
-0.0436891
-0.0456378
-0.0405414
-0.0590605
-0.0499093
-0.0324879
-0.0376906
-0.0551461
-0.0509371
-0.0441862
-0.0344258
-0.373013
-0.0376454
-0.191642
-0.174465
-0.0486931
-0.0919559
-0.2736
-0.111622
-0.00609573
-0.000822869
-0.0203032
-0.0212045
0.0021224
0.000224245
-0.015618
-0.010297
-0.0777465
-0.0424701
-0.052857
-0.0568752
-0.0528393
-0.0503221
-0.0696588
-0.0500002
-0.104382
-0.0515281
-0.0734997
-0.0776663
-0.0834589
-0.0707844
-0.105622
-0.0597913
-0.0163778
-0.0590617
-0.109739
-0.0352147
-0.0482527
-0.0688342
-0.0514724
-0.0786063
-0.0150418
-0.0289416
-0.0258658
-0.0714382
-0.0282108
-0.0219476
-0.0523113
-0.0308761
-0.14298
-0.135526
-0.0528454
-0.0852928
-0.0941083
-0.101681
-0.0701641
-0.063897
-0.084277
-0.0607595
-0.039405
-0.0355138
-0.0512971
-0.0644486
-0.0501589
-0.0479044
-0.0374818
-0.0262865
-0.026983
-0.0278049
-0.0306693
-0.0261945
-0.0294505
-0.0242504
-0.0208764
-0.0188301
-0.0166538
-0.0203156
-0.0199621
-0.0190071
-0.0195675
-0.0186772
-0.0150854
-0.0118827
-0.00576301
-0.0120128
-0.01399
-0.0106661
-0.0106057
-0.00725835
-0.0237666
-0.0209285
-0.0177048
-0.0236194
-0.0218371
-0.0197904
-0.0209316
-0.019188
-0.0226871
-0.0219918
-0.0243018
-0.0202598
-0.0220837
-0.0239389
-0.0221161
-0.0217486
-0.0206837
-0.0194221
-0.0161025
-0.0195909
-0.0200057
-0.0199201
-0.0200461
-0.0180986
-0.0196991
-0.0234379
-0.0203185
-0.0159156
-0.0201648
-0.0202991
-0.0181815
-0.0207697
-0.016737
-0.0135177
-0.0196875
-0.0145417
-0.016366
-0.0153197
-0.0162312
-0.0174046
-0.38426
-0.549709
-0.419161
-0.206817
-0.303603
-0.469515
-0.393651
-0.636457
-0.547175
-0.519739
-0.593025
-0.385376
-0.375935
-0.486763
-0.305856
-0.433836
-0.38118
-0.58455
-0.593207
-0.302929
-0.174588
-0.607664
-0.648262
-0.68552
-0.133503
-0.192139
-0.220695
-0.106727
-0.157828
-0.197978
-0.155599
-0.179647
-0.305754
-0.202901
-0.185783
-0.233609
-0.256264
-0.161132
-0.27092
-0.311972
-0.50217
-0.393434
-0.593719
-0.588654
-0.475943
-0.150015
-0.599753
-0.10792
-0.540221
-0.203101
-0.221971
-0.265993
-0.271339
-0.21329
-0.19817
-0.170677
-0.495137
-0.200065
-0.225275
-0.432478
-0.288601
-0.35644
-0.409652
-0.323175
-0.55863
-0.531632
-0.388401
-0.189218
-0.265484
-0.437582
-0.502747
-0.551278
-0.468561
-0.33434
-0.526789
-0.332451
-0.249127
-0.329857
-0.37154
-0.314106
-0.36104
-0.484555
-0.359485
-0.239112
-0.305655
-0.527697
-0.465412
-0.454895
-0.151303
-0.190823
-0.18219
-0.119783
-0.151877
-0.193471
-0.189974
-0.154894
-0.294905
-0.262221
-0.153034
-0.199009
-0.342661
-0.250882
-0.264639
-0.267957
-0.443944
-0.343594
-0.538157
-0.55047
-0.512039
-0.253614
-0.551789
-0.183438
-0.490174
-0.227696
-0.234458
-0.347126
-0.236462
-0.208263
-0.135473
-0.166382
-0.453853
-0.248948
-0.18597
-0.475176
-0.310224
-0.316587
-0.380618
-0.313861
-0.00632924
-0.0128495
-0.015167
-0.0155507
-0.0109524
-0.0130809
-0.013725
-0.0149765
-0.0175098
-0.0192656
-0.0192951
-0.0200652
-0.0185749
-0.0192183
-0.0194181
-0.0191853
-0.0241133
-0.021786
-0.0300826
-0.0258401
-0.0238736
-0.0243983
-0.0268749
-0.0262192
-0.0223109
-0.0226797
-0.0244112
-0.0259735
-0.023342
-0.0235932
-0.0256009
-0.0247422
-0.0161568
-0.0180428
-0.019914
-0.0204671
-0.0184297
-0.0178383
-0.0199569
-0.0206007
-0.0178426
-0.0207907
-0.0205953
-0.0200275
-0.018663
-0.0191466
-0.0191159
-0.0197961
-0.0222333
-0.0213159
-0.0218245
-0.0250253
-0.0221821
-0.0208362
-0.0238555
-0.0218696
-0.0228023
-0.0242274
-0.0216375
-0.0211642
-0.0228682
-0.0234938
-0.0215593
-0.0209213
0.108702
0.0526202
0.100744
0.0142297
0.0627401
0.0720455
0.0504802
0.0604628
0.0256943
0.00604481
0.0203845
-0.0121001
0.0116699
0.0153359
0.00417078
0.00808935
-0.0232754
-0.00421168
-0.182453
-0.137847
-0.0924281
-0.0754912
-0.139685
-0.209266
-0.0580531
-0.0386722
-0.0853935
-0.0691917
-0.0655344
-0.0555788
-0.0767204
-0.0787865
0.0340447
0.0228249
-0.020242
-0.0207176
0.0247338
0.0272217
-6.91594e-05
-0.00859318
0.0370427
-0.0190567
0.0205919
0.043868
0.0272788
0.00596564
0.0459499
0.0161276
0.00152219
-0.0416605
-0.0320734
-0.114596
-0.0684953
-0.0459354
-0.0924483
-0.0562869
0.000393302
-0.133147
-0.0371324
-0.00890689
-0.0472126
-0.0844902
-0.00650272
-0.038008
-0.0308495
-0.0777164
-0.0241579
-0.0896575
-0.0771458
-0.0769868
-0.0773282
-0.0708662
-0.0929858
-0.0807701
-0.0704205
-0.0782811
-0.0843003
-0.0820754
-0.0759696
-0.0737298
-0.0235664
-0.0457794
-0.0161955
-0.0529477
-0.0453672
-0.0440135
-0.0364456
-0.0358201
-0.100693
-0.08811
-0.0752805
-0.0930408
-0.0901386
-0.0867014
-0.0841911
-0.0804105
-0.103496
-0.0554701
-0.101029
-0.0964052
-0.103607
-0.0870903
-0.096632
-0.0971743
-0.105008
-0.092261
-0.0777238
-0.0567412
-0.0909819
-0.0980329
-0.0600974
-0.0828389
-0.0492832
-0.0948646
-0.0913118
-0.0623662
-0.0788358
-0.086636
-0.0718398
-0.0833886
-0.0521118
-0.061129
-0.0834258
-0.0672341
-0.0639369
-0.0703786
-0.0673789
-0.0696362
-0.00777552
-0.00695807
-0.0195849
-0.0230309
-0.011106
-0.00953232
-0.0182806
-0.0172297
-0.00579606
-0.00559268
-0.0149349
-0.0154817
-0.00784706
-0.00707914
-0.0122879
-0.0116703
-0.0274321
-0.0241784
-0.0332787
-0.0308672
-0.0284966
-0.0279035
-0.0306024
-0.0307366
-0.0273333
-0.0232147
-0.0281135
-0.0280268
-0.0258558
-0.0248434
-0.0268141
-0.0256375
-0.00890171
-0.0217742
-0.0227702
-0.0187275
-0.0150537
-0.0192135
-0.0186915
-0.0213316
-0.00790055
-0.0179634
-0.0172148
-0.0201269
-0.01404
-0.0158724
-0.016347
-0.0181794
-0.0267625
-0.0260611
-0.0211767
-0.0278852
-0.0275906
-0.0244953
-0.0269418
-0.0246675
-0.0259196
-0.027057
-0.0198955
-0.0221299
-0.0253661
-0.0260302
-0.0229122
-0.02369
-0.271018
-0.41436
-0.560038
-0.357042
-0.493184
-0.343624
-0.398812
-0.394109
-0.358954
-0.490484
-0.54649
-0.321945
-0.388138
-0.479181
-0.470928
-0.411737
-0.48012
-0.474601
-0.500908
-0.289618
-0.403794
-0.494941
-0.430236
-0.38894
-0.232149
-0.187507
-0.194599
-0.107031
-0.185659
-0.254639
-0.149004
-0.163186
-0.395322
-0.41057
-0.214533
-0.268398
-0.482361
-0.366454
-0.225697
-0.314641
-0.444224
-0.307775
-0.530457
-0.54824
-0.433294
-0.366581
-0.560689
-0.403269
-0.339152
-0.320153
-0.276401
-0.194236
-0.362305
-0.271055
-0.256862
-0.206266
-0.378178
-0.243498
-0.231389
-0.388039
-0.287074
-0.366204
-0.34128
-0.315255
-0.33299
-0.395533
-0.49789
-0.298489
-0.388738
-0.363018
-0.308602
-0.374589
-0.453576
-0.470508
-0.348126
-0.178165
-0.383774
-0.460047
-0.278941
-0.342271
-0.331898
-0.290383
-0.347575
-0.20413
-0.358953
-0.375217
-0.263057
-0.409131
-0.178251
-0.111894
-0.18554
-0.122181
-0.16019
-0.197487
-0.136471
-0.168093
-0.402663
-0.342474
-0.282466
-0.202425
-0.269411
-0.200418
-0.26256
-0.34538
-0.410678
-0.261195
-0.358153
-0.440377
-0.358817
-0.24105
-0.333724
-0.338564
-0.237971
-0.170246
-0.216468
-0.187703
-0.257619
-0.239735
-0.24067
-0.154456
-0.384588
-0.252737
-0.215532
-0.30658
-0.21813
-0.274093
-0.243334
-0.186575
-0.527206
-0.154944
-0.196468
-0.26031
-0.239128
-0.179208
-0.223563
-0.195714
-0.0445304
-0.0153593
-0.014828
-0.0459795
-0.0423233
-0.0269989
-0.0355375
-0.0294155
-0.113076
-0.0283578
-0.0356117
-0.0840157
-0.0760603
-0.0518065
-0.0791713
-0.0526465
-0.153803
-0.080603
-0.0998211
-0.0879884
-0.101666
-0.0911422
-0.0965349
-0.0927454
-0.10075
-0.147711
-0.148912
-0.0752995
-0.100744
-0.158504
-0.0994185
-0.129085
-0.0777093
-0.0636889
-0.0453254
-0.108125
-0.0830451
-0.0654877
-0.0836211
-0.0518845
-0.146013
-0.137895
-0.0818595
-0.107663
-0.132448
-0.126871
-0.109408
-0.107053
-0.11417
-0.0846534
-0.0645859
-0.0365031
-0.0870905
-0.0873111
-0.0541122
-0.0660911
-0.00763216
-0.0134887
-0.0172297
-0.0163623
-0.0102476
-0.012488
-0.0142724
-0.015659
-0.0180661
-0.0195097
-0.0210683
-0.0197933
-0.0187633
-0.0198681
-0.0202572
-0.0201482
-0.0275113
-0.0263223
-0.0360306
-0.0302098
-0.0276451
-0.0287862
-0.0320805
-0.0323157
-0.0227373
-0.0219816
-0.0257772
-0.0233146
-0.0238903
-0.0241599
-0.0254071
-0.0245962
-0.0160269
-0.0191755
-0.0186876
-0.0209836
-0.0182823
-0.0181023
-0.0188876
-0.0200858
-0.0176779
-0.021491
-0.0220966
-0.0213376
-0.0190244
-0.0205486
-0.0210414
-0.0207872
-0.024498
-0.0220176
-0.0223552
-0.0283507
-0.0248319
-0.0226672
-0.0254787
-0.0234421
-0.0256626
-0.0279137
-0.0223324
-0.0244375
-0.0256155
-0.0259721
-0.0242304
-0.0236366
-0.00854203
-0.0220316
-0.00812507
-0.0222964
-0.0153911
-0.0136773
-0.0155414
-0.0139047
-0.0352931
-0.0449565
-0.0353535
-0.0398713
-0.0399385
-0.0403239
-0.03851
-0.0394856
-0.00772195
-0.0217303
-0.00732698
-0.0199687
-0.0151118
-0.0141811
-0.0152655
-0.0143949
-0.0285071
-0.0337514
-0.0276764
-0.0297273
-0.0319968
-0.0305649
-0.0311327
-0.0297649
-0.0310175
-0.0157837
-0.0297623
-0.0355033
-0.0303208
-0.0212252
-0.0310592
-0.0267538
-0.028457
-0.0343384
-0.0283019
-0.01406
-0.0285139
-0.0324184
-0.0213006
-0.0288484
-0.0157803
-0.0285164
-0.0343444
-0.0260168
-0.0205687
-0.0263425
-0.0266338
-0.0298263
-0.0144
-0.0251295
-0.0332602
-0.0280482
-0.020789
-0.0257312
-0.0282327
-0.03028
-0.0459964
-0.115729
-0.124625
-0.0957199
-0.0993312
-0.0902704
-0.0818675
-0.107192
-0.268654
-0.787117
-0.701275
-0.324473
-0.333017
-0.610365
-0.357876
-0.504053
-0.285776
-0.704459
-0.681507
-0.308982
-0.311069
-0.546627
-0.313326
-0.471202
-0.142455
-0.183087
-0.1818
-0.114458
-0.128768
-0.171099
-0.12175
-0.135095
-0.190653
-0.19163
-0.130823
-0.191359
-0.189058
-0.168646
-0.194064
-0.1763
-0.236567
-0.276921
-0.555721
-0.224816
-0.229957
-0.258243
-0.275332
-0.332972
-0.185491
-0.128165
-0.198652
-0.212513
-0.195787
-0.161873
-0.199085
-0.180793
-0.261083
-0.223308
-0.230959
-0.498221
-0.252518
-0.288559
-0.369147
-0.332165
-0.91839
-0.473462
-0.478131
-0.126926
-0.335406
-0.513616
-0.291984
-0.343898
-0.419008
-0.357212
-0.329335
-0.215496
-0.32421
-0.343886
-0.289979
-0.338308
-0.421552
-0.348523
-0.339452
-0.263443
-0.302872
-0.347982
-0.322617
-0.343501
-0.0925709
-0.107749
-0.0970526
-0.0675077
-0.0884052
-0.0886474
-0.109176
-0.0941923
-0.351103
-0.371298
-0.175517
-0.169247
-0.240272
-0.247096
-0.174168
-0.198874
-0.367946
-0.230219
-0.331692
-0.423326
-0.307482
-0.289885
-0.435284
-0.319016
-0.337382
-0.166692
-0.12944
-0.203204
-0.133703
-0.178586
-0.193747
-0.12403
-0.321808
-0.185664
-0.168654
-0.340571
-0.350269
-0.225569
-0.315887
-0.247515
-0.339802
-0.362503
-0.337617
-0.203066
-0.317927
-0.31536
-0.272342
-0.322793
-0.398322
-0.4993
-0.440808
-0.278622
-0.349414
-0.425209
-0.329499
-0.385781
-0.351575
-0.371193
-0.342304
-0.235859
-0.304573
-0.369775
-0.263995
-0.33324
-0.119655
-0.121641
-0.0944125
-0.0708319
-0.108991
-0.122552
-0.0977563
-0.109293
-0.33124
-0.320232
-0.195195
-0.187402
-0.267031
-0.274468
-0.265297
-0.250642
-0.346311
-0.279172
-0.387146
-0.361802
-0.337808
-0.300726
-0.377633
-0.304301
-0.313523
-0.127861
-0.141868
-0.180575
-0.228384
-0.205366
-0.216703
-0.151302
-0.322859
-0.236609
-0.187984
-0.317221
-0.292328
-0.287954
-0.333039
-0.28129
-0.917609
-0.673886
-0.473628
-0.212368
-0.48885
-0.58693
-0.481233
-0.415817
-0.524433
-0.476738
-0.445312
-0.263053
-0.398851
-0.436834
-0.313273
-0.398035
-0.377504
-0.421522
-0.43238
-0.345781
-0.366643
-0.393936
-0.268092
-0.414336
-0.0929331
-0.130068
-0.216405
-0.122318
-0.133195
-0.14439
-0.114771
-0.138123
-0.434483
-0.381608
-0.184724
-0.209749
-0.419526
-0.361058
-0.247903
-0.275352
-0.494923
-0.287365
-0.480011
-0.520923
-0.408676
-0.314719
-0.548531
-0.396568
-0.231599
-0.137148
-0.105622
-0.120958
-0.172214
-0.235079
-0.251556
-0.152736
-0.383609
-0.244751
-0.201041
-0.418279
-0.31642
-0.303118
-0.240724
-0.289535
-0.328894
-0.146409
-0.442752
-0.148852
-0.252754
-0.338353
-0.256751
-0.283509
-0.0603064
-0.0603461
-0.125158
-0.0567097
-0.0824589
-0.106576
-0.0926831
-0.099134
-0.417339
-0.245968
-0.524955
-0.268782
-0.311382
-0.349601
-0.312877
-0.349593
-0.102644
-0.0860792
-0.14782
-0.0769103
-0.109772
-0.12838
-0.111895
-0.141809
-0.158871
-0.291235
-0.176
-0.113242
-0.172895
-0.180287
-0.347671
-0.17776
-0.197991
-0.105689
-0.14877
-0.280366
-0.180984
-0.0655136
-0.304385
-0.164606
-0.321719
-0.159475
-0.0979461
-0.166387
-0.225024
-0.200492
-0.170771
-0.158963
-0.286159
-0.206572
-0.115121
-0.154738
-0.25045
-0.193184
-0.185138
-0.145034
-0.695942
-0.537412
-0.456259
-0.173058
-0.378473
-0.563181
-0.301779
-0.349406
-0.480199
-0.432116
-0.376815
-0.256627
-0.332947
-0.416382
-0.213796
-0.341388
-0.36476
-0.367231
-0.375309
-0.318213
-0.268018
-0.357635
-0.172539
-0.29509
-0.115465
-0.136411
-0.184224
-0.127082
-0.149034
-0.147532
-0.117675
-0.155429
-0.330383
-0.329708
-0.192279
-0.209235
-0.227037
-0.216183
-0.190518
-0.24466
-0.468846
-0.277662
-0.372097
-0.436439
-0.33771
-0.229999
-0.432789
-0.308912
-0.180778
-0.142444
-0.10336
-0.105654
-0.227021
-0.208336
-0.231464
-0.125143
-0.316844
-0.219331
-0.190194
-0.344243
-0.25235
-0.311122
-0.247826
-0.287561
-0.455709
-0.42381
-0.52535
-0.359107
-0.38346
-0.478021
-0.489553
-0.411969
-0.465042
-0.448338
-0.398375
-0.219834
-0.372137
-0.467827
-0.30698
-0.387263
-0.525705
-0.448202
-0.480289
-0.303033
-0.380665
-0.483569
-0.346217
-0.429498
-0.225132
-0.133932
-0.165998
-0.110683
-0.13753
-0.197036
-0.102369
-0.16241
-0.333769
-0.379329
-0.252886
-0.21152
-0.434812
-0.433109
-0.28765
-0.297301
-0.456323
-0.28542
-0.40529
-0.462643
-0.391087
-0.28679
-0.431206
-0.373902
-0.375675
-0.17025
-0.190979
-0.181753
-0.331495
-0.26904
-0.252621
-0.2155
-0.433232
-0.29076
-0.180781
-0.349144
-0.392696
-0.322966
-0.340159
-0.30893
-0.385614
-0.364974
-0.413926
-0.331608
-0.295764
-0.403414
-0.259603
-0.340228
-0.389654
-0.401664
-0.317201
-0.192927
-0.319415
-0.36908
-0.325763
-0.345123
-0.425181
-0.330285
-0.383678
-0.215531
-0.345782
-0.368697
-0.394672
-0.372968
-0.199771
-0.138515
-0.0983688
-0.127354
-0.146729
-0.12653
-0.154024
-0.161445
-0.297483
-0.29151
-0.221486
-0.235372
-0.306246
-0.281443
-0.266855
-0.299566
-0.39406
-0.251107
-0.337259
-0.425236
-0.349447
-0.325766
-0.366101
-0.321846
-0.281627
-0.200333
-0.278376
-0.232652
-0.278538
-0.240996
-0.241718
-0.311226
-0.366058
-0.255746
-0.202616
-0.325468
-0.351226
-0.226017
-0.318115
-0.324304
-0.0130828
-0.0289771
-0.0255876
-0.0267496
-0.0196372
-0.0241993
-0.0224006
-0.0262288
-0.0530587
-0.0683653
-0.0580407
-0.0496708
-0.0538338
-0.0606504
-0.0518581
-0.0594721
-0.0367693
-0.0499118
-0.0417602
-0.0363613
-0.0386119
-0.0451558
-0.0376928
-0.0431503
-0.0324167
-0.0360542
-0.0306837
-0.0281784
-0.0309567
-0.0336195
-0.0288767
-0.0307489
-0.0381333
-0.0307621
-0.0297228
-0.0401166
-0.0396356
-0.0323275
-0.0411723
-0.0343133
-0.0432303
-0.0440385
-0.0506531
-0.0354929
-0.0450768
-0.0465275
-0.0460717
-0.0444164
-0.0324923
-0.0311244
-0.0386546
-0.0327656
-0.0337361
-0.0337281
-0.0346444
-0.0348584
-0.0367785
-0.0354641
-0.0412267
-0.0482116
-0.0403204
-0.0386146
-0.044145
-0.0423145
-0.188932
-0.054164
-0.378717
-0.228534
-0.138509
-0.322147
-0.216994
-0.234892
-0.0636534
-0.0516311
-0.0794748
-0.0657132
-0.0818953
-0.0828139
-0.0710078
-0.0913947
-0.370818
-0.172672
-0.380826
-0.271136
-0.244915
-0.202674
-0.262747
-0.281236
-0.099227
-0.0705772
-0.149169
-0.0891301
-0.104921
-0.116497
-0.124258
-0.112615
-0.106576
-0.250551
-0.124298
-0.0881071
-0.119856
-0.0703175
-0.0910608
-0.184376
-0.147123
-0.118807
-0.117321
-0.189198
-0.163852
-0.0769621
-0.137932
-0.141499
-0.240586
-0.161839
-0.168538
-0.168851
-0.227721
-0.1522
-0.129083
-0.133204
-0.241469
-0.165372
-0.154647
-0.173113
-0.194589
-0.127674
-0.193452
-0.339252
-0.0102379
-0.0585213
-0.0144403
-0.0478232
-0.0392382
-0.0362347
-0.0445504
-0.0426295
-0.164163
-0.472385
-0.213552
-0.198366
-0.262077
-0.253748
-0.267514
-0.267996
-0.0294767
-0.100262
-0.023264
-0.0927067
-0.0663251
-0.041336
-0.075442
-0.0518701
-0.0613238
-0.106828
-0.0871887
-0.0692425
-0.0779177
-0.0890952
-0.0741784
-0.0859557
-0.0999271
-0.0561285
-0.0673782
-0.133164
-0.0997346
-0.0597571
-0.0910651
-0.0679205
-0.106407
-0.173332
-0.127326
-0.0507075
-0.110398
-0.162064
-0.0644214
-0.135899
-0.0553761
-0.0644131
-0.121853
-0.0952066
-0.058041
-0.0743721
-0.0947938
-0.100791
-0.0541572
-0.103802
-0.159246
-0.141808
-0.0666645
-0.101079
-0.137351
-0.163834
0.0839738
0.0676587
0.0484719
0.00026541
0.0615484
0.0722505
0.038436
0.047919
-0.0129742
-0.214818
-0.0154821
-0.12897
-0.0747487
-0.0530221
-0.0474988
-0.048944
0.020098
0.0162935
0.00469778
-0.0124739
0.0107188
0.0143866
-0.00112749
0.0030837
-0.0464141
-0.0766065
-0.0363362
-0.054254
-0.05539
-0.0559378
-0.0446252
-0.0464151
0.0171022
0.0313958
-0.0257124
-0.0812257
0.0128455
0.0265388
-0.043846
-0.0189778
0.0319231
-0.0800595
0.017729
0.0376473
0.0209744
-0.0115635
0.0391894
0.00919076
0.0132941
-0.0239428
-0.0522704
-0.0253258
-0.00618934
-0.0224608
-0.0250237
-0.0409317
0.0200906
-0.0238537
-0.0564289
0.00250973
0.00744545
-0.0223743
-0.00358209
-0.0328733
0.00929797
0.0191339
0.0277203
-0.00979935
0.00646853
0.0180748
0.00255513
0.0136799
-0.0211845
-0.24549
0.00331445
-0.146078
-0.0851439
-0.0894526
-0.0873403
-0.111198
0.0556867
0.0831368
0.101518
0.0215386
0.0560816
0.0805239
0.0468172
0.0759998
-0.0446621
-0.0966285
-0.0383176
-0.0678322
-0.0562215
-0.07233
-0.0575542
-0.071527
-0.00279869
0.0281947
-0.0210937
-0.0663278
-0.0119165
0.0124834
-0.0457771
-0.0214562
0.0166004
-0.0907739
0.041222
0.0391023
0.00409951
-0.0231549
0.0439492
0.018225
0.0207791
-0.0249717
-0.0675122
-0.0170794
0.0044235
-0.0209196
-0.0149948
-0.0469784
0.0370228
-0.00948778
-0.0984918
0.0296968
0.0355316
-0.00353874
0.00729178
-0.0139683
-0.0182973
-0.0185529
-0.0169713
-0.0181945
-0.0187625
-0.0187439
-0.0183906
-0.0189785
-0.0199472
-0.0232014
-0.0212546
-0.0224751
-0.0217448
-0.0226971
-0.0219531
-0.0234439
-0.0126466
-0.0145078
-0.00621919
-0.0111698
-0.0127407
-0.012144
-0.00975089
-0.00926888
-0.0178563
-0.0209303
-0.0149494
-0.0188722
-0.0187673
-0.0188586
-0.0179118
-0.0183684
-0.0199058
-0.0169467
-0.0184928
-0.0208477
-0.0197364
-0.019353
-0.0196644
-0.0188185
-0.0204461
-0.0208796
-0.0192475
-0.017205
-0.0207056
-0.0211803
-0.0178377
-0.01914
-0.0150809
-0.0180016
-0.0200187
-0.0138267
-0.0153761
-0.0187068
-0.0158668
-0.0188989
-0.0158488
-0.0140901
-0.0210068
-0.0177648
-0.0162575
-0.015105
-0.0171024
-0.0183477
-0.0170064
-0.039886
-0.0090325
-0.0413323
-0.0307086
-0.0281191
-0.0255683
-0.0252366
-0.045993
-0.039176
-0.0350441
-0.0545374
-0.0471148
-0.0458929
-0.0470248
-0.0447845
-0.00854085
-0.0219458
-0.00749293
-0.0275063
-0.0186287
-0.0170902
-0.0176352
-0.0165947
-0.0612644
-0.0656685
-0.0520664
-0.0722725
-0.0725369
-0.0657312
-0.0664496
-0.0625808
-0.0470074
-0.0206498
-0.0562071
-0.0578922
-0.0447133
-0.0371207
-0.0513986
-0.0505004
-0.0451206
-0.0549626
-0.0318033
-0.0185157
-0.0405711
-0.0456081
-0.0291081
-0.0351457
-0.0195867
-0.0513219
-0.0574071
-0.0403085
-0.0348905
-0.0476088
-0.0421805
-0.0517077
-0.0196951
-0.0381709
-0.0539179
-0.0314469
-0.025868
-0.0377682
-0.0339174
-0.0464962
-0.8627
-0.429052
-0.637039
-0.0651487
-0.310606
-0.452723
-0.199433
-0.251757
-0.3694
-0.312199
-0.307365
-0.219559
-0.282964
-0.318211
-0.248371
-0.302787
-0.416553
-0.341
-0.373805
-0.267888
-0.281791
-0.322368
-0.335439
-0.316895
-0.0379276
-0.0864074
-0.0887087
-0.0503992
-0.0808506
-0.0651221
-0.136353
-0.10578
-0.331965
-0.373835
-0.164442
-0.196839
-0.155447
-0.178579
-0.143636
-0.169336
-0.298298
-0.23917
-0.290728
-0.424093
-0.244248
-0.253731
-0.476997
-0.288627
-0.253208
-0.191979
-0.120542
-0.198919
-0.191628
-0.179354
-0.189979
-0.130503
-0.294164
-0.184884
-0.187565
-0.306957
-0.332579
-0.253988
-0.287859
-0.251596
-0.356315
-0.339999
-0.360864
-0.218594
-0.295332
-0.344643
-0.238994
-0.330723
-0.320825
-0.257968
-0.311658
-0.196888
-0.291083
-0.273183
-0.27549
-0.316657
-0.319604
-0.378039
-0.39682
-0.303307
-0.364481
-0.348121
-0.329068
-0.367171
-0.0795753
-0.10588
-0.131191
-0.0508466
-0.113611
-0.108521
-0.0987052
-0.125392
-0.312784
-0.283413
-0.204331
-0.152503
-0.236421
-0.202914
-0.238621
-0.265601
-0.336956
-0.22133
-0.296875
-0.330898
-0.305515
-0.303109
-0.28823
-0.314512
-0.274359
-0.111313
-0.158081
-0.148256
-0.286237
-0.228665
-0.230374
-0.189721
-0.320686
-0.250428
-0.145097
-0.313873
-0.310118
-0.331747
-0.281862
-0.299046
-0.0461963
-0.0371291
-0.0400483
-0.0371848
-0.0434598
-0.0412132
-0.040813
-0.0391029
-0.0228252
-0.00900594
-0.0215283
-0.0175616
-0.0175648
-0.015251
-0.0200797
-0.0183824
-0.0339213
-0.0287089
-0.0296114
-0.0275103
-0.0314013
-0.0301276
-0.0296018
-0.0286988
-0.030528
-0.0233019
-0.0273954
-0.026327
-0.0282287
-0.0257222
-0.0278824
-0.0259118
-0.0309236
-0.0364258
-0.0353386
-0.024475
-0.0315424
-0.0343889
-0.0283684
-0.0329996
-0.029754
-0.0213274
-0.0262236
-0.0347029
-0.0296699
-0.0235024
-0.0318838
-0.0281977
-0.0343614
-0.0340974
-0.0249185
-0.0287176
-0.0313836
-0.0319641
-0.0292708
-0.0287937
-0.0329498
-0.0278176
-0.0226249
-0.0269078
-0.0295713
-0.028097
-0.0277981
-0.0257862
-0.00259024
-0.0147648
-0.00682386
-0.00410463
-0.00533622
-0.0101796
-0.00507831
-0.00972001
-0.028691
-0.0445216
-0.028288
-0.0460641
-0.0359906
-0.0342898
-0.0354248
-0.0363168
-0.0114856
-0.0215311
-0.0175104
-0.0178976
-0.0170278
-0.0188776
-0.0171174
-0.0195344
-0.0110626
-0.0453107
-0.0217864
-0.0319609
-0.0207596
-0.0279889
-0.0201615
-0.0306985
-0.0197641
-0.0116915
-0.00894306
-0.0313222
-0.0195688
-0.0138712
-0.0251801
-0.0170738
-0.0214365
-0.0343713
-0.0241326
-0.0147169
-0.0223123
-0.0296896
-0.0184226
-0.0234602
-0.011474
-0.00892437
-0.0308517
-0.0183379
-0.0103468
-0.0174252
-0.0177855
-0.0230574
-0.0149243
-0.0230629
-0.0363239
-0.025024
-0.0201155
-0.0216131
-0.023548
-0.0263967
-0.0187251
-0.0198043
-0.0187517
-0.0204308
-0.0198749
-0.0197822
-0.0198646
-0.0213346
-0.0218971
-0.0259874
-0.0259295
-0.0252033
-0.0250243
-0.0258226
-0.0248702
-0.0262063
-0.0148226
-0.0195436
-0.0081247
-0.0145777
-0.0168806
-0.0162676
-0.0125273
-0.0121807
-0.0213979
-0.0244196
-0.0203939
-0.0231419
-0.0235615
-0.0238028
-0.0220223
-0.0232877
-0.0218479
-0.0207689
-0.0220407
-0.0246091
-0.0218385
-0.0214279
-0.0222253
-0.0220245
-0.0218296
-0.0251327
-0.0241914
-0.01988
-0.023347
-0.0242316
-0.0215715
-0.0242908
-0.0171838
-0.0205511
-0.0236356
-0.0176117
-0.0190477
-0.0224356
-0.0217038
-0.0232009
-0.0191585
-0.0187083
-0.024673
-0.0222499
-0.0198801
-0.0206768
-0.0214208
-0.0229192
-0.0061009
-0.0169738
-0.00511329
-0.0159781
-0.0104628
-0.0102315
-0.011
-0.0112763
-0.0286648
-0.0398764
-0.0337169
-0.0344691
-0.0350378
-0.0360132
-0.0347114
-0.0368929
-0.00587125
-0.0214514
-0.008824
-0.0214688
-0.0140732
-0.0145381
-0.0152507
-0.0153946
-0.0237196
-0.0300419
-0.0281516
-0.0262452
-0.0274301
-0.0283298
-0.0276463
-0.0288924
-0.021973
-0.0119952
-0.0206421
-0.0300937
-0.0223486
-0.0160948
-0.025856
-0.0208539
-0.0223092
-0.031414
-0.0273117
-0.0113737
-0.0236487
-0.0289018
-0.0179415
-0.0262961
-0.0128515
-0.0210163
-0.0304112
-0.0253084
-0.0175242
-0.0217827
-0.024499
-0.0272366
-0.012536
-0.0264865
-0.0321897
-0.0281935
-0.0192387
-0.0257101
-0.0270436
-0.030344
-0.343659
-0.168799
-0.351649
-0.23124
-0.220763
-0.306295
-0.18184
-0.280885
-0.0442761
-0.0629653
-0.142199
-0.0381126
-0.0753873
-0.0819207
-0.0963506
-0.0971569
-0.354079
-0.291241
-0.523445
-0.250861
-0.277123
-0.31707
-0.254835
-0.323945
-0.126884
-0.0852302
-0.135877
-0.0878911
-0.0862205
-0.109973
-0.0927501
-0.108675
-0.130054
-0.281319
-0.161112
-0.0888035
-0.113595
-0.222063
-0.288269
-0.16343
-0.1883
-0.0873815
-0.160006
-0.277352
-0.162958
-0.115692
-0.237794
-0.158944
-0.278301
-0.161201
-0.0653685
-0.167618
-0.217427
-0.184639
-0.192837
-0.158533
-0.267526
-0.208741
-0.104248
-0.179955
-0.254357
-0.229792
-0.167276
-0.156495
-0.00408905
-0.0131599
-0.00342374
-0.00976887
-0.00865186
-0.00995478
-0.00681333
-0.00909275
-0.021466
-0.0245605
-0.0252685
-0.0231712
-0.0239765
-0.026872
-0.0234603
-0.0270575
-0.00381501
-0.018082
-0.00736702
-0.0120122
-0.0103138
-0.0133935
-0.00850414
-0.0123044
-0.0141728
-0.0210469
-0.0159618
-0.0178921
-0.017464
-0.0202256
-0.0160405
-0.0196839
-0.0182379
-0.00903483
-0.013117
-0.021561
-0.0166452
-0.0133647
-0.0181085
-0.0150004
-0.0201755
-0.0235055
-0.0236908
-0.0109645
-0.01953
-0.0230297
-0.0149237
-0.0209194
-0.00780357
-0.0118377
-0.0205949
-0.0123196
-0.0104755
-0.0136175
-0.0141849
-0.0173071
-0.0101538
-0.0161995
-0.0232707
-0.0231794
-0.0149592
-0.0175173
-0.0192705
-0.0213189
-0.434079
-0.231794
-0.266194
-0.164108
-0.218125
-0.208219
-0.209581
-0.175905
-0.138111
-0.0914701
-0.101739
-0.072172
-0.110157
-0.111126
-0.119679
-0.0995867
-0.120143
-0.104567
-0.0420547
-0.101423
-0.122771
-0.0904213
-0.1091
-0.0701445