/*--------------------------------*- C++ -*----------------------------------*\
| =========                 |                                                 |
| \\      /  F ield         | OpenFOAM: The Open Source CFD Toolbox           |
|  \\    /   O peration     | Version:  2506                                  |
|   \\  /    A nd           | Website:  www.openfoam.com                      |
|    \\/     M anipulation  |                                                 |
\*---------------------------------------------------------------------------*/
FoamFile
{
    version     2.0;
    format      ascii;
    arch        "LSB;label=32;scalar=64";
    class       volVectorField;
    location    "1400";
    object      U;
}
// * * * * * * * * * * * * * * * * * * * * * * * * * * * * * * * * * * * * * //

dimensions      [0 1 -1 0 0 0 0];

internalField   nonuniform List<vector> 
57600
(
(-0.0934665 -0.00510654 1.05781)
(-0.1173 0.00707801 1.1716)
(-0.0503808 -0.022821 1.09226)
(-0.0872747 -0.00337264 1.09552)
(-0.10394 -0.00633446 1.07753)
(-0.118104 -0.017397 1.10553)
(-0.0704673 0.00580342 1.06181)
(-0.093772 -0.0134378 1.08148)
(-0.0790558 -0.00467598 1.34841)
(0.123904 -0.0344383 1.55945)
(-0.106118 0.0266187 1.19503)
(-0.03691 0.0240809 1.36501)
(-0.110369 0.0101092 1.39295)
(-0.184753 -0.0756671 1.46828)
(-0.0161153 0.0544347 1.34378)
(-0.00892614 0.0639054 1.35249)
(-0.0182453 -0.0161059 1.11282)
(-0.0132966 0.00204811 1.06113)
(-0.0256385 -0.0171419 1.0621)
(-0.00172656 0.00139573 1.07121)
(-0.0258173 -0.0092389 1.11437)
(-0.022814 -0.00990688 1.11977)
(-0.0158813 -0.00954114 1.09723)
(-0.00675685 0.00138919 1.10854)
(-0.0577915 -0.00390159 1.12277)
(-0.0337839 0.0141951 1.18065)
(-0.026843 0.000603823 1.09109)
(-0.0187938 0.0241316 1.11676)
(-0.0583438 -0.0038175 1.12885)
(-0.0615033 -0.0109161 1.13015)
(-0.0252965 0.016001 1.11676)
(-0.0403766 0.00182828 1.1171)
(-0.116357 0.0151656 1.18959)
(-0.0564989 -0.0164094 1.0969)
(-0.0874408 -0.00416694 1.10951)
(-0.0826249 -0.00439523 1.24654)
(-0.100692 0.0248211 1.18847)
(-0.114098 0.00150798 1.10565)
(-0.0887808 -0.000841667 1.24093)
(-0.0935019 -0.00841679 1.11256)
(-0.112486 0.00475364 1.21743)
(-0.0866748 -0.00942368 1.2684)
(-0.0348042 0.0226949 1.23263)
(-0.0479692 -0.00452429 1.11048)
(-0.0865514 0.0295573 1.19403)
(-0.113474 0.0262211 1.23582)
(-0.0360021 0.0133906 1.16239)
(-0.0496118 0.0388256 1.20119)
(-0.0709658 -0.0117586 1.09415)
(-0.0522083 0.0149298 1.11312)
(-0.0240285 0.0130643 1.21813)
(-0.0426227 0.00324309 1.10743)
(-0.0494737 -0.00441843 1.09665)
(-0.0732611 2.84032e-05 1.1263)
(-0.0476569 0.00447456 1.10785)
(-0.0758025 7.09705e-05 1.12876)
(-0.0422157 -0.00394072 1.09727)
(-0.0239433 -0.00811269 1.10465)
(-0.0352525 0.0118443 1.23609)
(-0.0169559 0.0105815 1.22465)
(-0.0499789 0.000606511 1.09529)
(-0.0401557 -0.0111823 1.1049)
(-0.0424953 -0.00423295 1.17967)
(-0.0503892 0.00554492 1.10833)
(0.0155331 0.00360213 1.00939)
(0.0241554 0.00259917 1.02917)
(0.0558839 0.00652923 1.04193)
(0.0238315 0.00303546 1.03357)
(0.0118256 0.0038388 1.01058)
(0.0251249 0.00296319 1.02055)
(0.0280396 0.00070616 1.01837)
(0.0323539 -0.00152444 1.02905)
(0.0147506 -0.00150928 1.05178)
(-0.00516451 -0.0177582 1.05314)
(0.00439764 -0.0108725 1.06493)
(0.00433103 0.0119844 1.06066)
(0.0078461 -0.000584566 1.04675)
(0.000220364 -0.0136051 1.07329)
(0.00754588 0.00657794 1.07101)
(-0.00845817 -0.0013295 1.08203)
(0.120527 0.00922112 1.15186)
(0.141641 -0.0306088 1.04762)
(0.428487 0.0863404 1.39186)
(0.0890868 -0.0677091 1.20171)
(0.0977514 -0.00751847 1.13887)
(0.126465 -0.0102682 1.2221)
(0.178147 0.0188201 1.32091)
(0.043277 0.0266698 1.17629)
(0.0160411 0.00377782 1.06525)
(0.000449914 -0.0168232 1.06263)
(0.0332403 0.00619576 1.1393)
(-0.0138449 0.0234212 1.11787)
(0.0103216 0.0028053 1.05678)
(0.00247901 0.000736027 1.08802)
(0.00775406 0.0273383 1.10329)
(-0.012142 0.0227884 1.11011)
(0.0175395 0.00320621 1.03027)
(0.0447894 0.00584008 1.04554)
(0.0159679 0.00544417 1.03488)
(0.00472946 0.00221536 1.0603)
(0.0337271 0.000841957 1.04655)
(0.040345 -0.00175662 1.04333)
(0.0191605 0.00393159 1.05959)
(0.0186432 0.00161025 1.04707)
(0.0187983 -0.00108393 1.04496)
(0.0156361 0.00196186 1.06807)
(0.0287985 -0.0134235 1.11235)
(0.0535891 0.00210746 1.07167)
(0.0279936 -0.00229479 1.05688)
(0.0238134 -0.00472307 1.07243)
(0.0525535 0.00541152 1.08796)
(0.039347 0.000986434 1.08318)
(0.0822007 0.010652 1.07869)
(0.0317683 0.00976267 1.05599)
(0.0156732 -0.000809606 1.07922)
(0.0227934 0.0314452 1.15971)
(0.0503177 -0.00204451 1.103)
(0.0235318 0.00637611 1.06061)
(0.0394777 -0.000319401 1.09129)
(0.0126098 0.00773385 1.07589)
(0.0740441 0.000623211 1.1044)
(0.012623 0.0302343 1.15865)
(-0.00992771 -0.00500553 1.06607)
(0.00832068 -0.0147227 1.09824)
(0.0802154 0.00186043 1.12787)
(0.0397071 -0.00881467 1.14085)
(0.0750065 -0.00862104 1.14882)
(0.0776769 -0.0235738 1.08057)
(-0.10062 -0.0106505 1.05506)
(-0.121962 3.60619e-05 1.09047)
(-0.123582 0.00853612 1.16683)
(-0.095465 -0.00869714 1.08812)
(-0.102835 -0.0137919 1.04435)
(-0.122069 -0.00113974 1.09547)
(-0.101216 -0.00808756 1.07948)
(-0.125594 0.001362 1.13012)
(-0.165173 0.00371211 1.11986)
(-0.232427 0.0161686 1.12823)
(-0.256131 0.024821 1.15615)
(-0.171364 0.0221763 1.1405)
(-0.172598 -0.000462645 1.15079)
(-0.21426 -0.00539971 1.11665)
(-0.183313 -0.00650813 1.17551)
(-0.245542 -0.0161059 1.14852)
(-0.10784 0.00192856 1.33553)
(-0.280352 0.0465319 1.31538)
(-0.208607 -0.0438241 1.35679)
(-0.128475 0.0237879 1.36704)
(-0.148409 -0.00811329 1.3772)
(-0.179652 0.0282618 1.31279)
(-0.118765 -0.00419615 1.38636)
(-0.212334 0.0536314 1.30548)
(-0.0715093 -0.000762165 1.12104)
(-0.103489 0.0264906 1.15768)
(-0.0871677 0.009265 1.19864)
(-0.0451348 0.0251303 1.12423)
(-0.0726869 -0.00269695 1.11077)
(-0.083092 0.0133894 1.1523)
(-0.0505931 0.00639971 1.12511)
(-0.0823945 0.0107988 1.16741)
(-0.119191 -0.0182535 1.08946)
(-0.117031 -0.00619038 1.15663)
(-0.0917713 -0.0108967 1.07013)
(-0.120722 -0.0130448 1.13331)
(-0.128874 -0.0153131 1.13295)
(-0.127163 -0.00630607 1.14542)
(-0.122488 -0.000334932 1.12308)
(-0.112929 0.00143054 1.13841)
(-0.153225 0.00269294 1.12916)
(-0.166824 0.0114223 1.15459)
(-0.239576 0.00534806 1.21098)
(-0.131367 0.00613624 1.21583)
(-0.171034 0.0157436 1.17437)
(-0.194201 -0.00710058 1.21249)
(-0.166424 -0.00262859 1.21368)
(-0.174085 -0.013584 1.25042)
(-0.109329 -0.011535 1.20002)
(-0.0845618 -0.00330529 1.11047)
(-0.118689 -0.00203575 1.16667)
(-0.0721637 0.0078369 1.20537)
(-0.116485 -0.00584679 1.22877)
(-0.116151 -0.00300081 1.17205)
(-0.134232 -0.0155307 1.19505)
(-0.125595 -0.0075991 1.16935)
(-0.150697 0.00668146 1.27254)
(-0.118865 0.0177347 1.29418)
(-0.174458 0.016045 1.19608)
(-0.260949 0.0170874 1.21472)
(-0.163021 -0.00673858 1.32029)
(-0.118044 0.0154882 1.26622)
(-0.17655 -0.02266 1.27854)
(-0.183991 0.0165862 1.24619)
(-0.0241813 0.0464995 1.59119)
(0.0755116 -0.00211365 1.25092)
(0.118987 -0.00305274 1.41578)
(0.030892 -0.0134664 1.34175)
(0.122593 0.0203818 1.55036)
(0.0943714 -0.0103005 1.41594)
(0.087749 0.0313747 1.51677)
(0.120736 -0.00112281 1.44625)
(0.0278975 -0.00223751 1.08476)
(0.0186324 0.0253296 1.07761)
(0.018315 0.0234302 1.10803)
(0.018108 -0.00644957 1.05535)
(-0.0109418 0.00583345 1.10765)
(0.00761732 0.0124783 1.09864)
(0.00250314 0.0210353 1.09573)
(0.0120235 0.0206982 1.1008)
(0.107469 0.0136869 1.1594)
(0.0527418 0.018422 1.08743)
(0.0812179 0.0115768 1.04389)
(0.079786 0.0160331 1.09391)
(0.083666 0.0165365 1.09864)
(0.0658882 0.0194638 1.07369)
(0.0955343 0.0165194 1.07392)
(0.0839149 0.0114262 1.06846)
(0.0246912 -0.00406023 1.17913)
(0.0349339 0.0222011 1.08286)
(0.0541756 0.0130841 1.14015)
(0.0105565 -0.0126072 1.12666)
(0.0559994 -0.00119296 1.15917)
(0.0540405 0.00419183 1.12764)
(0.0430174 0.00894026 1.16446)
(0.0517129 0.00890303 1.14427)
(-0.0134149 -0.0120162 1.30449)
(0.116334 -0.00583279 1.23854)
(0.0489166 -0.0192938 1.32039)
(0.0129127 0.0189333 1.1364)
(0.0260251 0.0176432 1.23965)
(0.073521 -0.00517282 1.23216)
(0.0413742 0.0272801 1.12002)
(0.0562732 -0.0180172 1.24934)
(0.0149826 -0.0115201 1.22234)
(0.0253421 0.00132425 1.10153)
(0.0280586 0.0202349 1.09805)
(0.066421 0.00937485 1.21109)
(0.0361079 0.00627908 1.22537)
(0.0342601 0.0248848 1.1035)
(0.046579 0.0121392 1.21966)
(0.0455102 0.0206692 1.10748)
(0.112805 0.00487469 1.20217)
(0.0472394 0.0243241 1.2802)
(0.0272462 0.0251763 1.1234)
(0.0714809 0.0168502 1.11554)
(0.0811432 0.00515485 1.24246)
(0.0705466 0.0114701 1.2564)
(0.0718344 0.0159852 1.13049)
(0.058915 0.0137367 1.12534)
(0.113769 0.0142482 1.17592)
(0.0799563 0.0169716 1.10025)
(0.034388 0.009761 1.10567)
(0.0534382 0.0143592 1.08956)
(0.0717898 0.021929 1.1009)
(0.0649222 0.0101313 1.11291)
(0.0545537 0.0217145 1.10189)
(0.0317715 0.0139825 1.10081)
(-0.0776765 -0.000193445 1.00716)
(-0.0552542 0.00266235 1.02195)
(-0.0693097 -0.00729943 1.00141)
(-0.073225 -0.00626798 1.0371)
(-0.0755484 0.0028894 1.00747)
(-0.0644052 -0.00297918 1.01982)
(-0.0762153 -0.00104345 1.02199)
(-0.0714474 -0.00461794 1.02279)
(-0.027908 -0.00830231 1.05172)
(-0.0215827 -0.00109758 1.04944)
(-0.0399572 -0.000696854 1.03663)
(-0.0196972 -0.00765561 1.05698)
(-0.0301798 -0.0073492 1.04208)
(-0.0264334 -0.00209205 1.04278)
(-0.0311629 -0.00723141 1.03882)
(-0.0332475 -0.00542947 1.0334)
(-0.0562899 -0.00166397 1.00428)
(-0.0474516 -0.00257401 1.02115)
(-0.047864 -0.00294963 1.0128)
(-0.0483281 -0.00304596 1.0317)
(-0.0518765 -0.00258758 1.00912)
(-0.0498718 -0.00396583 1.01454)
(-0.0483851 -0.000490313 1.01644)
(-0.0463711 -0.0043168 1.01031)
(-0.0604311 0.000962855 1.07421)
(-0.0240169 0.00360947 1.06459)
(-0.0499742 -0.000251144 1.06352)
(-0.0261742 0.00941371 1.09424)
(-0.0414432 0.0098187 1.0683)
(-0.0416615 -0.00108861 1.06338)
(-0.0368006 0.00795348 1.06665)
(-0.037393 0.00673934 1.05605)
(-0.0565151 -0.00330597 1.03357)
(-0.0624675 -0.00648547 1.00661)
(-0.069363 0.00070451 1.04691)
(-0.044496 -0.00133438 1.05455)
(-0.063266 -0.000364022 1.03387)
(-0.0661222 -0.00436219 1.0349)
(-0.0503167 -0.00241746 1.05927)
(-0.0605403 -0.00590035 1.04789)
(-0.039227 -0.0104147 1.04111)
(-0.0350317 -0.00709969 1.04722)
(-0.0462338 -0.00346366 1.02838)
(-0.0627559 -0.00525626 1.00958)
(-0.0520545 -0.0129659 1.03306)
(-0.0429469 -0.0158284 1.04378)
(-0.0601984 -0.00326563 1.02009)
(-0.0452352 -0.00422421 1.02333)
(-0.0614064 -0.00354162 1.02007)
(-0.0588505 -0.00241977 1.04809)
(-0.0426648 0.00456759 1.0523)
(-0.0498752 0.00108051 1.0448)
(-0.0673855 -0.00376019 1.03161)
(-0.0581607 0.00167531 1.04465)
(-0.0513145 -0.00367619 1.03898)
(-0.0440784 3.73712e-05 1.05664)
(-0.0537398 -0.00211878 1.01748)
(-0.0482279 -0.000195973 1.03093)
(-0.0381372 -0.00394423 1.03932)
(-0.0439586 -0.00320749 1.02125)
(-0.0549407 -0.00167732 1.02622)
(-0.0526186 -0.00494788 1.0368)
(-0.0478347 0.000391444 1.02493)
(-0.0474497 -0.00090826 1.04576)
(0.150211 -0.0245728 1.33218)
(0.0901757 -0.0353337 1.26535)
(0.0977419 -0.0234819 1.23736)
(0.102478 -0.0175434 1.19339)
(0.120503 -0.0178714 1.33258)
(0.101355 -0.0348357 1.26761)
(0.114113 -0.013495 1.27681)
(0.104223 -0.0268269 1.24997)
(0.0476237 -0.0326644 1.16718)
(0.00708871 -0.000691519 1.11095)
(0.0347208 -0.0140563 1.12449)
(0.00760067 -0.00722877 1.13869)
(0.0238009 -0.00132387 1.17175)
(0.031344 -0.00911947 1.13508)
(0.0220348 0.00418427 1.17661)
(0.0359237 -0.00199471 1.13228)
(0.111105 -0.00783797 1.12556)
(0.0594567 -0.00149124 1.10681)
(0.0765619 0.00136505 1.06917)
(0.0583114 0.0160416 1.10855)
(0.0642968 0.0232233 1.12897)
(0.0726702 0.00298392 1.11266)
(0.07083 0.0159612 1.11312)
(0.0771972 0.00424467 1.09491)
(0.0520151 0.0206894 1.16722)
(0.0196516 0.0141516 1.1175)
(0.0457036 0.012214 1.11772)
(0.0248793 -0.008937 1.132)
(0.031015 0.0192253 1.20174)
(0.032899 0.0175016 1.13122)
(0.0355714 0.0136591 1.19282)
(0.0344609 0.0202926 1.14229)
(0.0717092 -0.00861375 1.27495)
(0.0813177 0.00428036 1.207)
(0.0663439 0.00489678 1.24392)
(0.0298561 0.0181176 1.16917)
(0.0727132 0.0102518 1.24522)
(0.0798371 0.00461412 1.20429)
(0.0364823 0.00735961 1.13735)
(0.0483565 0.00176049 1.13879)
(0.0727789 -0.0349453 1.19431)
(0.0184414 -0.00322477 1.15856)
(0.056688 -0.00347581 1.13692)
(0.118099 -0.0146289 1.16932)
(0.0742608 -0.0171713 1.19888)
(0.0240721 0.00574041 1.17605)
(0.118804 -0.00872736 1.15876)
(0.0403052 0.01289 1.16003)
(0.0673962 -0.00127949 1.16548)
(0.0693303 0.0162306 1.22335)
(0.0427238 0.0215235 1.15028)
(0.0569244 0.0235272 1.12418)
(0.0675764 0.00132046 1.13523)
(0.0667547 0.0236806 1.16176)
(0.0561557 0.0288499 1.14771)
(0.0445137 0.0208747 1.14121)
(0.10461 -0.0179602 1.16023)
(0.0580279 0.0228363 1.11905)
(0.0394428 0.00556101 1.13968)
(0.0632287 0.000512841 1.11742)
(0.0548668 0.0193259 1.14684)
(0.0481273 0.0145655 1.14297)
(0.0513729 0.0108391 1.15024)
(0.0350976 0.00912179 1.13176)
(-0.0232388 0.00234917 1.03873)
(-0.0274449 -0.00331898 1.03812)
(-0.0154911 0.000788067 1.04103)
(-0.0222539 0.00089015 1.02968)
(-0.0189169 -0.00442814 1.03895)
(-0.0244469 -0.00231473 1.04065)
(-0.0124849 0.000152868 1.03785)
(-0.0263009 -0.000499055 1.03944)
(-0.0379376 -0.00151458 1.02661)
(-0.0424619 -0.00303612 1.02138)
(-0.0436147 -0.000511168 1.03912)
(-0.0337247 -0.00105939 1.02727)
(-0.0410445 -0.000771828 1.01836)
(-0.0433958 -0.00510246 1.02115)
(-0.0369283 -0.000868909 1.02784)
(-0.0416262 -0.00459963 1.02329)
(-0.0281075 0.0103679 1.0553)
(-0.0264061 0.00911273 1.0681)
(-0.0140464 0.0134623 1.07663)
(-0.0201244 0.00823748 1.05375)
(-0.023797 0.00294942 1.05576)
(-0.0245809 0.00948515 1.06659)
(-0.0160736 0.00933758 1.05414)
(-0.0259325 0.0104327 1.06778)
(-0.0173997 0.00270969 1.02367)
(-0.0228325 0.00311867 1.03083)
(-0.0157313 0.00599047 1.03349)
(-0.0150804 0.00665973 1.02105)
(-0.0186518 0.000779053 1.02097)
(-0.0177315 0.00282421 1.02854)
(-0.0104936 0.00576099 1.02069)
(-0.0147585 0.00515105 1.03031)
(-0.0408323 -0.0028666 1.02558)
(-0.0189407 -0.00469616 1.04927)
(-0.0175137 -0.00269905 1.02795)
(-0.0317231 -0.00141681 1.02309)
(-0.0289728 -0.000706947 1.02738)
(-0.0278678 -0.00404303 1.02865)
(-0.0284565 -0.000342765 1.02874)
(-0.0219023 -0.00047484 1.02899)
(-0.0387861 -0.00178848 1.02934)
(-0.0301734 0.00107001 1.02818)
(-0.043746 0.00257607 1.04101)
(-0.02703 -0.00294557 1.05222)
(-0.0328641 -0.00158354 1.02826)
(-0.0361892 0.000296865 1.02701)
(-0.0296758 -0.00174556 1.04888)
(-0.0414132 0.00284473 1.03399)
(-0.0118202 -0.000286673 1.04458)
(-0.0122869 0.00126928 1.0266)
(-0.0258117 0.00345316 1.02533)
(-0.0128747 0.00623636 1.03297)
(-0.0221703 0.00344777 1.03739)
(-0.0208218 0.00134157 1.03128)
(-0.018043 -0.00109835 1.03548)
(-0.0235691 0.00063591 1.02415)
(-0.0279966 0.00394938 1.04634)
(-0.0188783 0.0064568 1.04623)
(-0.0288952 0.00257 1.03013)
(-0.042793 0.000262069 1.04191)
(-0.0289245 0.000282909 1.04083)
(-0.0221425 0.00455865 1.04312)
(-0.0342006 0.00579767 1.04017)
(-0.0299503 0.00343809 1.04518)
(-0.368797 0.0109175 1.55056)
(-0.118627 0.0425639 1.17729)
(-0.156822 -0.00586049 1.17695)
(-0.0770074 -0.0883086 1.20794)
(-0.152107 -0.0455427 1.3581)
(-0.167166 0.0376184 1.21692)
(-0.110723 0.00807579 1.26604)
(-0.114546 0.0569409 1.29612)
(-0.0590819 -0.000217953 1.05722)
(-0.0126476 -0.00224801 1.00758)
(-0.019325 -0.00169451 1.03094)
(-0.0251163 -0.00724969 1.03636)
(-0.0330352 -0.00470758 1.02413)
(-0.021271 -0.00451422 1.0118)
(-0.0329402 -0.00490217 1.0263)
(-0.0199877 -0.00647854 1.01808)
(-0.0297423 0.0154956 1.0567)
(-0.0151792 0.0080638 1.0567)
(0.00855267 0.0232264 1.05374)
(0.0097926 -0.000441366 1.06857)
(-0.0230271 0.0106131 1.06959)
(-0.00871993 0.00973423 1.05856)
(0.014358 0.00493643 1.09176)
(-0.00682721 0.0182011 1.06872)
(-0.0114438 -0.0062547 1.12087)
(-0.0211717 -0.0146859 1.08005)
(0.0232885 0.0148624 1.07458)
(-0.00139658 -0.0128416 1.11309)
(-0.0119559 -0.0194682 1.1196)
(-0.00903274 -0.00551693 1.07894)
(-0.00374634 -0.00111329 1.11479)
(0.00333948 -0.00238034 1.10198)
(-0.0807985 -0.00503224 1.10484)
(-0.0853005 0.00040312 1.18144)
(-0.0505562 -0.0404489 1.18265)
(-0.0307481 -0.0126594 1.07225)
(-0.0818641 -0.00275435 1.11484)
(-0.0511164 0.0179964 1.13857)
(-0.0584157 -0.0104434 1.11076)
(-0.0558274 0.0102046 1.11709)
(-0.071173 0.00739066 1.06669)
(-0.0338069 -0.00251957 1.03733)
(-0.0246624 -0.0010753 1.03628)
(-0.0519518 -0.00326433 1.10171)
(-0.0599679 0.0126913 1.08024)
(-0.0387001 0.000951122 1.03795)
(-0.0609502 -0.00455583 1.09579)
(-0.0296735 -0.00679521 1.0571)
(0.0054967 0.00245865 1.17224)
(0.00683442 -0.00109499 1.16617)
(-0.033114 -0.00814656 1.074)
(-0.00839095 0.0185584 1.07541)
(-0.016575 0.00783159 1.12747)
(-0.037579 0.0396686 1.1466)
(-0.00691295 -0.00391627 1.09797)
(-0.0148134 -0.000893531 1.08436)
(-0.034139 0.0256976 1.12898)
(-0.00476001 0.022642 1.07291)
(-0.0276799 0.00720031 1.04031)
(-0.0157112 0.00530907 1.04409)
(-0.0109391 0.00927515 1.07254)
(-0.0170379 0.00658125 1.06414)
(-0.0279642 -0.00060623 1.06456)
(-0.0186827 0.00111407 1.06517)
(0.015596 0.000210124 1.03857)
(0.00849375 -0.00268403 1.01701)
(0.0112584 0.00550174 1.02131)
(0.0124587 -0.00416893 1.02539)
(0.0143415 0.000348771 1.02841)
(0.0112051 0.00150892 1.01701)
(0.0119142 0.00208766 1.03151)
(0.0109756 0.00548159 1.02008)
(0.00339783 -0.000136512 1.00779)
(-0.00127006 0.00256579 1.00608)
(-0.000621656 0.00183051 1.00466)
(-0.00299033 -0.00013352 1.00764)
(0.000482566 0.00152419 1.00708)
(0.000254863 0.00309092 1.0057)
(-0.0013407 0.00165896 1.00683)
(-0.00157791 0.00374624 1.00553)
(0.00916659 0.00651926 1.00592)
(0.000539448 0.00292019 1.00021)
(0.00218547 0.00636529 0.994544)
(-0.00156039 0.000790138 1.00317)
(0.00426949 0.00629675 1.00237)
(0.00225384 0.0052137 0.996345)
(0.0018001 0.00604705 1.00218)
(0.000547003 0.00713052 0.996439)
(0.00466932 -0.00501115 1.01788)
(-0.00399961 -0.00377348 1.01013)
(-0.00286911 -0.00303959 1.01003)
(-0.00442025 -0.00875667 1.01575)
(0.000551723 -0.00363893 1.01631)
(-0.00142896 -0.00245227 1.01023)
(-0.00349101 -0.00514532 1.01556)
(-0.00387148 -0.00206514 1.0112)
(0.00613353 -0.00125886 1.01377)
(0.00898037 0.00504182 1.01452)
(0.00814064 -0.00182404 1.02078)
(-0.00069547 -0.00145052 1.0097)
(0.00410281 0.00104547 1.01416)
(0.00654015 0.0024981 1.01326)
(0.00261843 -0.00286712 1.01149)
(0.00621204 -0.000153866 1.01299)
(0.00488922 0.000979008 1.008)
(-0.00110513 -0.000225539 1.0082)
(0.00158476 0.00332498 1.00249)
(0.0071189 0.00445264 1.00739)
(0.00373685 0.00249004 1.00941)
(3.50615e-05 0.00242517 1.00589)
(0.00526468 0.00208052 1.00878)
(0.00170269 0.00281797 1.00639)
(0.00752386 0.00531927 1.01432)
(0.00519583 -0.00152945 1.0207)
(-0.00228983 -0.00109987 1.01022)
(-0.00135166 0.000766644 1.00858)
(0.00597177 0.00151787 1.01311)
(0.00492767 0.00148018 1.01439)
(0.00167932 0.00205324 1.00879)
(-0.000785674 -0.00130892 1.00977)
(0.00634252 0.00586591 1.00836)
(-0.00221693 0.00183476 1.0043)
(-0.00300987 -0.000369312 1.00793)
(-0.000496863 0.00413616 1.00204)
(0.000467738 0.00337288 1.00329)
(-0.000437982 0.000702684 1.00424)
(-0.000111687 0.00400002 1.00447)
(-0.00333575 -0.00150623 1.00746)
(0.230997 -0.000111582 1.87542)
(0.103848 0.0954832 1.93201)
(0.174407 0.173221 1.93819)
(0.165565 0.0921947 1.40591)
(0.146353 -0.0636404 1.76351)
(0.196769 0.157668 2.03263)
(0.14931 0.135226 1.6907)
(0.141771 0.185266 1.79575)
(0.0418146 0.114644 1.94557)
(0.0032272 0.101259 1.95874)
(0.0682475 0.152824 2.15279)
(0.015111 0.082464 1.61643)
(0.0289153 0.144276 1.92983)
(0.0267267 0.154996 2.05621)
(0.0190701 0.218847 2.02637)
(0.023431 0.165821 2.03189)
(0.220038 0.188115 2.02226)
(0.125561 0.153422 2.15351)
(0.0961437 0.0735362 2.1721)
(0.0136097 0.121457 1.67839)
(0.156758 0.215093 2.06349)
(0.091903 0.185941 2.05245)
(-0.0189681 0.338398 1.95419)
(0.0133715 0.264684 2.06696)
(-0.0395834 0.0293409 1.32523)
(-0.0124919 0.0367007 1.36092)
(0.0226587 0.066478 1.36845)
(-0.0331677 0.0422244 1.20328)
(-0.0316444 0.0276278 1.33099)
(-0.0191994 0.0124694 1.31821)
(-0.0256177 0.0578273 1.30163)
(-0.00501879 0.0465427 1.30454)
(0.0754065 0.112581 1.87513)
(0.153588 0.145522 1.95469)
(0.0959524 0.087453 1.38793)
(0.0536585 0.0622893 1.50601)
(0.0765055 0.2075 1.86875)
(0.0945272 0.201304 1.80748)
(0.0593826 0.0793539 1.49238)
(0.0711164 0.0597203 1.40391)
(0.0845596 0.17418 2.02225)
(0.0205204 0.0452294 1.50318)
(0.12532 0.149549 2.08374)
(0.145595 0.147382 1.94154)
(0.0633209 0.151406 1.89054)
(0.0463365 0.186072 1.92585)
(0.117551 0.170651 2.05809)
(0.0917165 0.195339 2.09839)
(0.0604357 0.226821 1.8404)
(-0.0123588 0.0750836 1.37085)
(0.00750418 0.0880205 1.51236)
(0.0273164 0.0708215 1.49469)
(0.0815251 0.0877019 1.56402)
(0.0108263 0.0727064 1.43061)
(0.0554532 0.0689518 1.58342)
(0.0174093 0.0619721 1.49017)
(0.119172 0.244817 1.89632)
(0.0187862 0.0774972 1.50933)
(-0.0195881 0.0920868 1.55103)
(0.121121 0.24248 2.03642)
(0.0963908 0.249037 1.93104)
(0.0290328 0.032555 1.54338)
(0.117581 0.291894 2.02147)
(0.0516447 0.121585 1.64469)
(-0.165219 -0.0555707 1.96803)
(-0.120074 -0.0837389 1.89171)
(-0.195086 -0.14757 1.85541)
(-0.157713 -0.0668477 1.47497)
(-0.146717 6.04766e-06 1.80349)
(-0.211324 -0.136512 1.97418)
(-0.227343 -0.126743 1.71576)
(-0.209445 -0.161608 1.73808)
(-0.0946737 -0.0864065 1.86534)
(-0.0572349 -0.0897363 1.85799)
(-0.11103 -0.107737 2.02858)
(-0.0568798 -0.0865967 1.6186)
(-0.0887065 -0.114905 1.84657)
(-0.0957609 -0.103859 1.90718)
(-0.0783904 -0.222332 1.9224)
(-0.117241 -0.137201 2.00207)
(-0.252513 -0.165124 1.93973)
(-0.131034 -0.0785227 2.028)
(-0.228979 -0.0493195 2.14472)
(-0.0661469 -0.0368651 1.72919)
(-0.156461 -0.156866 1.95677)
(-0.161496 -0.126896 1.97265)
(0.062704 -0.161687 1.86203)
(-0.0854154 -0.115597 1.99444)
(-0.0408474 -0.0299962 1.29054)
(-0.0232894 -0.023915 1.34122)
(-0.0199143 -0.0101545 1.37651)
(0.0110121 -0.0152965 1.21645)
(-0.0294621 -0.0133182 1.2806)
(-0.0300232 -0.0142177 1.29204)
(-0.00726134 -0.0356077 1.27852)
(-0.00830368 -0.0240767 1.31253)
(-0.114932 -0.0825551 1.81193)
(-0.159164 -0.131025 1.87944)
(-0.0939161 -0.0610189 1.44617)
(-0.0743968 -0.0763765 1.51446)
(-0.149062 -0.169735 1.83083)
(-0.157877 -0.18453 1.75107)
(-0.0876603 -0.0702032 1.53783)
(-0.0851254 -0.053734 1.42771)
(-0.14873 -0.135914 1.97356)
(-0.0591152 -0.0516779 1.53532)
(-0.0995606 -0.145381 1.94894)
(-0.157812 -0.129001 1.86278)
(-0.125338 -0.140045 1.83819)
(-0.098488 -0.134773 1.8711)
(-0.12819 -0.140525 1.95674)
(-0.102712 -0.157969 1.97779)
(-0.0600426 -0.18587 1.76151)
(-0.0201675 -0.0869168 1.40113)
(-0.0463819 -0.123141 1.5168)
(-0.0156451 -0.122755 1.50486)
(-0.119038 -0.0856549 1.56061)
(-0.055764 -0.0898905 1.44781)
(-0.10177 -0.0855745 1.57144)
(-0.0621939 -0.0855019 1.49717)
(-0.141266 -0.211341 1.82708)
(-0.0321488 -0.0946434 1.59968)
(-0.0661953 -0.125657 1.59331)
(-0.119315 -0.182161 1.91786)
(-0.110841 -0.208289 1.84976)
(-0.0858086 -0.0862748 1.582)
(-0.129205 -0.210844 1.90245)
(-0.0694066 -0.0739973 1.66091)
(-0.0118477 0.00707217 0.995298)
(-0.0103664 0.00687858 1.00113)
(-0.0172 0.0078389 1.0081)
(-0.016242 0.00641426 1.00681)
(-0.0113723 0.00695723 0.997331)
(-0.0122482 0.00651925 0.999575)
(-0.0167129 0.0074917 1.00497)
(-0.0170488 0.00727792 1.00729)
(-0.00893485 0.00690005 1.00509)
(-0.00704292 0.00567903 1.00637)
(-0.0116217 0.00934343 1.01104)
(-0.00872814 0.00619583 1.00851)
(-0.00802596 0.00654202 1.00524)
(-0.00820505 0.00575781 1.00569)
(-0.00983631 0.00763955 1.00923)
(-0.0098612 0.00766618 1.00915)
(-0.019576 0.0111953 1.02326)
(-0.016481 0.012913 1.02091)
(-0.0147633 0.0213064 1.04376)
(-0.0147322 0.0180028 1.03156)
(-0.0188322 0.0108443 1.02328)
(-0.0177336 0.011633 1.02143)
(-0.0191169 0.0158023 1.03277)
(-0.0166801 0.0170577 1.03321)
(-0.015754 0.00708011 1.01268)
(-0.0106434 0.00687694 1.01114)
(-0.0135835 0.0143138 1.02197)
(-0.0118189 0.00924674 1.01584)
(-0.0140353 0.00683966 1.01186)
(-0.0130573 0.00674661 1.0116)
(-0.0144177 0.00953828 1.01754)
(-0.0128877 0.00914587 1.01712)
(-0.0102327 0.00674738 1.00211)
(-0.0161339 0.00716651 1.00864)
(-0.0154133 0.00716548 1.00772)
(-0.01159 0.00657564 1.00834)
(-0.0133762 0.00796734 1.00923)
(-0.0170262 0.00755893 1.00717)
(-0.0115734 0.00695068 1.00859)
(-0.0143384 0.00623535 1.00763)
(-0.0106049 0.00595898 1.00359)
(-0.0107804 0.00613491 1.00836)
(-0.0129302 0.00900907 1.0102)
(-0.0166352 0.00825881 1.01023)
(-0.0136439 0.00801382 1.00951)
(-0.0122229 0.00803163 1.00844)
(-0.0148769 0.00868746 1.01111)
(-0.012866 0.00847823 1.01081)
(-0.0196501 0.00885532 1.01945)
(-0.0175588 0.00810726 1.01438)
(-0.0119319 0.00845574 1.01207)
(-0.0169941 0.0129381 1.02323)
(-0.0193666 0.0095561 1.01973)
(-0.0161738 0.00694625 1.01508)
(-0.0165273 0.00930145 1.01858)
(-0.0146888 0.0073228 1.01281)
(-0.0194692 0.00991394 1.02054)
(-0.0155187 0.0129425 1.02263)
(-0.0116739 0.00808469 1.01296)
(-0.0146088 0.0110032 1.01703)
(-0.0183095 0.0101562 1.01828)
(-0.0150774 0.00944541 1.01661)
(-0.0143285 0.0105237 1.01694)
(-0.0121305 0.00991904 1.01595)
(0.0541524 0.00272203 1.01402)
(0.0357756 0.00673679 1.00069)
(0.141959 0.00858497 1.10202)
(0.0756336 0.0129032 1.08878)
(0.0509893 0.0080821 1.02149)
(0.0430702 0.000637954 1.02079)
(0.101152 0.0182609 1.05203)
(0.085878 2.89397e-05 1.03447)
(0.0208506 0.00538179 1.00177)
(0.0136603 0.00409296 1.00071)
(0.0459294 0.0058144 1.02131)
(0.0222157 -0.00108529 1.0239)
(0.0213256 0.00516397 1.00473)
(0.0205681 0.00240468 1.00612)
(0.0287486 0.00388268 1.01428)
(0.0291631 0.00115483 1.01254)
(0.282319 -0.0441423 1.25136)
(0.111514 -0.00492097 1.13375)
(0.191956 -0.0855868 1.76089)
(0.121078 0.071529 1.29331)
(0.224677 0.00251369 1.26443)
(0.23874 -0.00120812 1.33323)
(0.184322 0.0379779 1.28671)
(0.206294 0.0435493 1.31537)
(0.0288774 0.0259055 1.13127)
(0.015048 -0.00449242 1.05336)
(0.0305647 0.0247763 1.17132)
(-0.0012633 0.0299539 1.11131)
(0.0287195 0.0234344 1.1188)
(0.0304642 0.0238551 1.11113)
(0.0111714 0.027466 1.1296)
(0.0135679 0.0249073 1.12237)
(0.0374016 0.00564877 1.00548)
(0.146578 0.00470763 1.09912)
(0.0756972 0.0112669 1.08848)
(0.0409976 0.00556562 1.0434)
(0.0448625 0.00662702 1.01839)
(0.0725581 0.0209346 1.04935)
(0.0418704 -0.00536932 1.03398)
(0.0741235 0.0139576 1.07463)
(0.0352586 0.000383679 1.01368)
(0.0464655 -0.000229797 1.04437)
(0.0957459 -0.00443184 1.05889)
(0.14038 0.00190539 1.12004)
(0.0488407 0.00759086 1.01766)
(0.043465 0.00459268 1.02827)
(0.0826305 0.00781677 1.04336)
(0.0861585 0.0105759 1.05173)
(0.153251 0.0262781 1.14631)
(0.0731577 0.0302039 1.12016)
(0.0347269 0.0103283 1.04626)
(0.0754284 0.0316924 1.16198)
(0.141019 -0.001876 1.16646)
(0.075668 0.00897175 1.09335)
(0.0923976 0.0170944 1.16055)
(0.0335332 0.0484437 1.1105)
(0.172476 -0.0104119 1.1221)
(0.0642331 0.0399792 1.18703)
(0.0411333 0.0126529 1.05224)
(0.0908188 0.016507 1.07199)
(0.103979 0.0667559 1.16842)
(0.0757067 0.0364921 1.19697)
(0.0695759 0.0196179 1.06561)
(0.0412863 -0.0123713 1.09055)
(-0.169042 0.00849276 1.2771)
(-0.113696 0.039679 1.23905)
(-0.145306 0.0060038 1.18392)
(-0.136342 0.00433469 1.19003)
(-0.162498 0.0117231 1.29664)
(-0.130196 0.0359784 1.24331)
(-0.160864 0.00199482 1.24291)
(-0.140337 0.0253438 1.22639)
(-0.0668113 0.0308654 1.18812)
(-0.0156195 0.0364584 1.08963)
(-0.0475194 0.0431833 1.12777)
(-0.0457212 0.0392918 1.12361)
(-0.0418108 0.0222307 1.20457)
(-0.049406 0.0380525 1.12648)
(-0.0501944 0.0222735 1.20128)
(-0.058445 0.0266271 1.13972)
(-0.12977 0.0137705 1.1244)
(-0.0792653 0.0246475 1.11465)
(-0.0986307 0.0155209 1.07103)
(-0.0910213 0.00841567 1.09867)
(-0.0986829 -0.00685377 1.13363)
(-0.0960424 0.020885 1.113)
(-0.11075 0.00328477 1.11194)
(-0.107965 0.0168428 1.10961)
(-0.0857986 -0.00100182 1.15716)
(-0.0299913 0.00559303 1.12898)
(-0.058235 0.00194947 1.11283)
(-0.0287703 0.0315891 1.14361)
(-0.0850844 -0.00403775 1.19445)
(-0.0486607 0.00473487 1.11135)
(-0.0805771 0.000680319 1.18243)
(-0.0627379 -0.00764764 1.1523)
(-0.0883427 0.0189285 1.25071)
(-0.103144 -0.00611782 1.17961)
(-0.121058 -0.00807874 1.22326)
(-0.0514247 -0.00268836 1.17466)
(-0.0887251 -0.000824211 1.22225)
(-0.0914007 -0.00192161 1.19962)
(-0.0543512 0.00598535 1.15511)
(-0.0653719 0.00867086 1.15611)
(-0.0916495 0.0349337 1.20466)
(-0.0528251 0.0224169 1.14882)
(-0.0753973 0.0283621 1.14627)
(-0.135293 0.0159687 1.16816)
(-0.0920351 0.0171974 1.20605)
(-0.053332 0.00257345 1.19104)
(-0.12631 0.0168308 1.16583)
(-0.0631663 -0.00155797 1.18791)
(-0.100834 0.00558494 1.15192)
(-0.123087 -0.0132439 1.19911)
(-0.0596687 -0.0134374 1.15747)
(-0.0849241 -0.00543353 1.12191)
(-0.0984156 -0.00277264 1.13822)
(-0.100405 -0.0140861 1.16061)
(-0.0805463 -0.016062 1.14033)
(-0.0632046 -0.00987242 1.14024)
(-0.131244 0.0193522 1.15172)
(-0.0860164 -0.0142279 1.12392)
(-0.0762696 0.0217794 1.13508)
(-0.0904183 0.0260946 1.13229)
(-0.0890861 -0.00318487 1.14378)
(-0.0833332 0.00432326 1.12074)
(-0.0879408 0.00236697 1.15761)
(-0.0613369 -0.00211808 1.1296)
(-0.0368798 -0.00274261 1.00175)
(-0.0288141 0.000968107 0.997945)
(-0.0320003 0.000696331 1.01652)
(-0.0305812 0.00305134 1.01194)
(-0.0330302 -0.000157079 1.00194)
(-0.0315896 0.00174346 1.00437)
(-0.0333864 -0.000825327 1.01087)
(-0.0295559 0.000918374 1.01122)
(-0.021834 0.00294965 0.996372)
(-0.0152167 0.00635914 0.994396)
(-0.020177 0.00562488 1.00565)
(-0.0177793 0.00580088 1.00468)
(-0.0189353 0.00478348 0.998907)
(-0.0176996 0.00643553 0.999141)
(-0.0201241 0.0033014 1.00257)
(-0.0180965 0.00505763 1.00298)
(-0.0232154 0.00548523 1.03494)
(-0.0207942 0.00831999 1.02346)
(-0.0181517 0.0167741 1.04553)
(-0.0215795 0.0162874 1.03222)
(-0.0231348 0.00997091 1.0323)
(-0.0203865 0.0106447 1.03521)
(-0.0220687 0.0089432 1.03638)
(-0.0216387 0.0119244 1.03788)
(-0.02198 0.00613933 1.01754)
(-0.017657 0.00633836 1.01249)
(-0.0187293 0.0124005 1.0238)
(-0.014545 0.00838188 1.01753)
(-0.0191303 0.00756193 1.0177)
(-0.0197966 0.00862766 1.01742)
(-0.0176886 0.00659807 1.01722)
(-0.0176073 0.00844615 1.01744)
(-0.0256226 0.00246132 1.00192)
(-0.0274917 0.00382364 1.02053)
(-0.0268646 0.00421887 1.01592)