/*--------------------------------*- C++ -*----------------------------------*\
| =========                 |                                                 |
| \\      /  F ield         | OpenFOAM: The Open Source CFD Toolbox           |
|  \\    /   O peration     | Version:  2506                                  |
|   \\  /    A nd           | Website:  www.openfoam.com                      |
|    \\/     M anipulation  |                                                 |
\*---------------------------------------------------------------------------*/
FoamFile
{
    version     2.0;
    format      ascii;
    arch        "LSB;label=32;scalar=64";
    class       volVectorField;
    location    "2000";
    object      U;
}
// * * * * * * * * * * * * * * * * * * * * * * * * * * * * * * * * * * * * * //

dimensions      [0 1 -1 0 0 0 0];

internalField   nonuniform List<vector> 
54912
(
(-8.88386e+09 1.22156e+10 5.313e+08)
(-6.15987e+09 9.01629e+09 3.24205e+09)
(-1.02356e+10 1.46517e+10 8.2076e+08)
(-7.4982e+09 9.98592e+09 2.21286e+09)
(-6.80879e+09 9.36596e+09 3.06399e+09)
(-6.25095e+09 9.39846e+09 3.98709e+09)
(-7.45613e+09 9.95473e+09 2.44311e+09)
(-8.48433e+09 1.15324e+10 2.53038e+09)
(-5.54418e+09 9.03178e+09 5.06338e+09)
(-4.54409e+09 8.13625e+09 9.63177e+09)
(-6.49576e+09 1.05424e+10 8.25005e+09)
(-5.00827e+09 8.08503e+09 7.50534e+09)
(-4.84666e+09 7.82371e+09 6.30949e+09)
(-4.6637e+09 8.11077e+09 8.68248e+09)
(-5.46645e+09 8.23717e+09 7.48509e+09)
(-6.03342e+09 9.42764e+09 8.452e+09)
(-1.10829e+10 1.60803e+10 7.23497e+08)
(-8.51597e+09 1.3651e+10 5.76097e+09)
(-1.24375e+10 1.81423e+10 1.53503e+09)
(-8.71716e+09 1.16169e+10 3.23951e+09)
(-7.72205e+09 1.15982e+10 3.99456e+09)
(-7.91595e+09 1.25309e+10 5.65706e+09)
(-9.15194e+09 1.24307e+10 3.66966e+09)
(-9.68204e+09 1.46016e+10 3.93347e+09)
(-7.17397e+09 8.94002e+09 3.00691e+09)
(-5.93579e+09 8.28642e+09 5.65309e+09)
(-6.8541e+09 8.70176e+09 3.6343e+09)
(-6.06294e+09 7.42073e+09 3.85373e+09)
(-6.27482e+09 7.93708e+09 4.36498e+09)
(-6.21312e+09 7.73362e+09 4.52052e+09)
(-6.23844e+09 7.82051e+09 4.15171e+09)
(-6.50287e+09 7.9147e+09 4.07626e+09)
(-5.36997e+09 7.69031e+09 3.93691e+09)
(-6.90849e+09 1.00314e+10 3.45035e+09)
(-5.91103e+09 7.99288e+09 3.56141e+09)
(-5.22474e+09 7.24969e+09 4.67536e+09)
(-5.39794e+09 8.51252e+09 3.86817e+09)
(-7.21667e+09 9.47385e+09 2.99403e+09)
(-5.46479e+09 7.64042e+09 4.90082e+09)
(-6.12581e+09 7.74875e+09 3.59668e+09)
(-5.46966e+09 8.46913e+09 4.8933e+09)
(-5.63788e+09 7.1633e+09 4.67254e+09)
(-6.1259e+09 9.8085e+09 5.84234e+09)
(-6.86693e+09 1.07961e+10 4.42352e+09)
(-6.32565e+09 9.73429e+09 4.76814e+09)
(-6.29426e+09 8.47971e+09 4.90372e+09)
(-6.54607e+09 1.13617e+10 3.68193e+09)
(-5.71234e+09 8.88232e+09 4.60699e+09)
(-8.44159e+09 1.13905e+10 2.76205e+09)
(-6.77908e+09 8.79598e+09 3.13684e+09)
(-5.89733e+09 8.03214e+09 4.98822e+09)
(-7.14443e+09 9.42988e+09 4.04227e+09)
(-8.09922e+09 1.07351e+10 2.62587e+09)
(-7.61851e+09 9.72231e+09 3.13933e+09)
(-6.53846e+09 8.95759e+09 4.43086e+09)
(-6.87602e+09 8.20002e+09 4.0242e+09)
(-8.94401e+09 1.2902e+10 2.86517e+09)
(-7.42963e+09 1.00607e+10 3.87288e+09)
(-6.91599e+09 9.08441e+09 5.76766e+09)
(-7.71333e+09 1.15487e+10 6.01154e+09)
(-8.16787e+09 1.05684e+10 4.10737e+09)
(-7.36505e+09 9.48756e+09 4.4256e+09)
(-7.22082e+09 1.04819e+10 5.90145e+09)
(-7.18918e+09 9.88134e+09 5.86085e+09)
(-8.23046e+09 1.12643e+10 5.11019e+08)
(-9.44953e+09 1.35288e+10 7.27344e+08)
(-7.91809e+09 1.10526e+10 4.80757e+08)
(-6.85873e+09 9.04877e+09 1.88393e+09)
(-7.38267e+09 1.01932e+10 1.73616e+09)
(-9.02289e+09 1.25141e+10 7.3713e+08)
(-7.57186e+09 8.84759e+09 1.58353e+09)
(-8.23049e+09 1.11772e+10 6.19079e+08)
(-1.03648e+10 1.49547e+10 6.11091e+08)
(-1.23306e+10 1.6992e+10 1.19512e+09)
(-1.10922e+10 1.39576e+10 4.72493e+08)
(-8.543e+09 1.14936e+10 2.68331e+09)
(-8.5862e+09 1.20926e+10 2.56357e+09)
(-1.18664e+10 1.55603e+10 1.06773e+09)
(-9.53161e+09 1.11218e+10 2.08156e+09)
(-1.15993e+10 1.44939e+10 5.01361e+08)
(-7.74892e+09 1.01264e+10 4.20512e+08)
(-9.41032e+09 1.24222e+10 2.71723e+08)
(-8.17408e+09 1.07737e+10 3.71182e+08)
(-7.01004e+09 8.06185e+09 1.53e+09)
(-7.761e+09 9.59432e+09 5.22819e+08)
(-8.99117e+09 1.17533e+10 3.24038e+08)
(-7.76135e+09 8.82593e+09 8.76676e+08)
(-8.55715e+09 1.12314e+10 3.4104e+08)
(-6.6662e+09 8.22401e+09 2.82519e+09)
(-7.33207e+09 8.60859e+09 3.3899e+09)
(-6.70662e+09 7.18354e+09 2.68714e+09)
(-6.30074e+09 6.98802e+09 3.58188e+09)
(-6.26069e+09 7.52602e+09 3.34005e+09)
(-6.63645e+09 7.75396e+09 2.99885e+09)
(-6.00407e+09 7.03626e+09 3.444e+09)
(-6.68753e+09 7.88394e+09 2.70718e+09)
(-8.02507e+09 1.08681e+10 2.14202e+09)
(-7.56163e+09 9.49819e+09 9.40383e+08)
(-6.91314e+09 8.45825e+09 2.61918e+09)
(-7.14745e+09 9.28569e+09 3.576e+09)
(-8.56394e+09 1.00099e+10 1.71396e+09)
(-7.81247e+09 8.88315e+09 1.88811e+09)
(-7.55177e+09 1.04551e+10 2.2655e+09)
(-7.09179e+09 9.07444e+09 1.89218e+09)
(-1.0027e+10 1.36858e+10 6.10118e+08)
(-8.1798e+09 1.03081e+10 2.18296e+09)
(-1.07064e+10 1.32159e+10 4.91838e+08)
(-8.71688e+09 1.13576e+10 6.24085e+08)
(-9.37885e+09 1.25221e+10 5.45083e+08)
(-8.60672e+09 1.0307e+10 1.86296e+09)
(-8.88489e+09 1.20463e+10 6.6147e+08)
(-8.70892e+09 1.05845e+10 1.42362e+09)
(-7.53856e+09 8.22036e+09 1.28562e+09)
(-6.61073e+09 8.04642e+09 2.44744e+09)
(-6.98972e+09 8.67039e+09 2.79096e+09)
(-6.4088e+09 7.63853e+09 2.26514e+09)
(-6.40063e+09 8.09199e+09 1.9364e+09)
(-6.80552e+09 8.98374e+09 2.00564e+09)
(-6.80754e+09 8.29942e+09 2.45793e+09)
(-6.17299e+09 7.96582e+09 2.73916e+09)
(-7.9667e+09 1.03376e+10 5.20082e+08)
(-7.38517e+09 8.52337e+09 1.3854e+09)
(-7.83129e+09 9.79891e+09 1.85285e+09)
(-1.01223e+10 1.22984e+10 3.05992e+08)
(-7.8834e+09 9.10883e+09 1.10507e+09)
(-7.3522e+09 8.54415e+09 1.6309e+09)
(-8.65544e+09 1.03082e+10 9.03866e+08)
(-7.96507e+09 9.60375e+09 1.87518e+09)
(-1.30017e+10 1.50938e+10 6.72313e+08)
(-1.52605e+10 1.59655e+10 6.00525e+08)
(-1.39175e+10 1.6934e+10 7.95159e+08)
(-1.2854e+10 1.33462e+10 2.05797e+09)
(-1.2582e+10 1.39062e+10 1.02487e+09)
(-1.42535e+10 1.54782e+10 5.44895e+08)
(-1.17966e+10 1.26844e+10 1.14094e+09)
(-1.19723e+10 1.38932e+10 7.65917e+08)
(-1.77648e+10 1.80942e+10 3.56469e+08)
(-2.21204e+10 1.98594e+10 -1.13759e+08)
(-2.01613e+10 2.06078e+10 7.86586e+08)
(-2.02221e+10 1.56752e+10 2.7816e+09)
(-1.78247e+10 1.81519e+10 4.03607e+08)
(-2.04324e+10 2.00575e+10 -1.18982e+08)
(-1.69193e+10 1.73452e+10 1.82733e+09)
(-1.88975e+10 1.90171e+10 8.81123e+08)
(-1.43725e+10 1.85611e+10 7.23001e+08)
(-1.76248e+10 2.04339e+10 6.86866e+08)
(-1.5362e+10 2.1244e+10 5.73876e+08)
(-1.4051e+10 1.39554e+10 2.00795e+09)
(-1.48661e+10 1.90623e+10 7.01034e+08)
(-1.6369e+10 1.9931e+10 3.6255e+08)
(-1.30781e+10 1.53296e+10 1.41399e+09)
(-1.43582e+10 1.82862e+10 1.01737e+09)
(-1.28792e+10 1.17413e+10 3.92852e+09)
(-1.78873e+10 1.36672e+10 5.88062e+09)
(-1.39462e+10 1.27793e+10 3.38921e+09)
(-1.49369e+10 1.22974e+10 5.08836e+09)
(-1.4106e+10 1.17547e+10 4.5223e+09)
(-1.56781e+10 1.32203e+10 4.70677e+09)
(-1.3585e+10 1.19925e+10 6.25484e+09)
(-1.4184e+10 1.33684e+10 6.2746e+09)
(-1.58081e+10 1.64716e+10 6.36581e+08)
(-1.43176e+10 1.73171e+10 7.87984e+08)
(-1.26581e+10 1.27772e+10 2.93926e+09)
(-1.59885e+10 1.48352e+10 2.96146e+09)
(-1.29491e+10 1.4471e+10 1.7092e+09)
(-1.33043e+10 1.36694e+10 1.03586e+09)
(-1.42667e+10 1.36483e+10 2.81351e+09)
(-1.40311e+10 1.40269e+10 2.55815e+09)
(-1.68026e+10 1.73162e+10 3.3323e+08)
(-1.77988e+10 1.60269e+10 2.64454e+09)
(-1.88454e+10 2.01959e+10 3.9758e+08)
(-1.54534e+10 1.81039e+10 4.90594e+08)
(-1.52084e+10 1.57719e+10 7.7691e+08)
(-1.52528e+10 1.60388e+10 1.71656e+09)
(-1.64944e+10 1.86367e+10 6.91296e+08)
(-1.71981e+10 1.92519e+10 7.16981e+08)
(-1.2406e+10 1.3523e+10 1.03491e+09)
(-1.20594e+10 1.22431e+10 2.99195e+09)
(-1.44155e+10 1.44909e+10 3.95591e+09)
(-1.16418e+10 1.20243e+10 3.60093e+09)
(-1.28282e+10 1.35418e+10 1.92207e+09)
(-1.21049e+10 1.23896e+10 2.50318e+09)
(-1.31595e+10 1.31076e+10 2.43518e+09)
(-1.30775e+10 1.24887e+10 3.23959e+09)
(-1.28799e+10 1.55519e+10 7.84531e+08)
(-1.27914e+10 1.34332e+10 3.68924e+09)
(-1.61391e+10 1.5434e+10 2.90889e+09)
(-1.65615e+10 1.87894e+10 7.74416e+08)
(-1.39687e+10 1.52552e+10 1.68172e+09)
(-1.53764e+10 1.43278e+10 2.26755e+09)
(-1.45748e+10 1.72343e+10 1.65739e+09)
(-1.63448e+10 1.47261e+10 2.7168e+09)
(-3.71532e+09 3.25479e+09 5.98231e+09)
(-5.34855e+09 4.49613e+09 6.46405e+09)
(-4.04446e+09 3.14344e+09 7.08278e+09)
(-5.2865e+09 4.82556e+09 6.70714e+09)
(-4.073e+09 3.57866e+09 6.31969e+09)
(-4.59949e+09 3.97996e+09 6.44361e+09)
(-3.89754e+09 3.20425e+09 6.6605e+09)
(-4.30957e+09 3.70486e+09 6.92801e+09)
(-6.50883e+09 5.19799e+09 5.64671e+09)
(-6.98528e+09 4.89211e+09 4.59475e+09)
(-6.2491e+09 4.88514e+09 5.80939e+09)
(-8.58316e+09 6.07584e+09 5.42705e+09)
(-6.35695e+09 5.28157e+09 4.9941e+09)
(-5.58645e+09 4.83227e+09 5.05107e+09)
(-7.38635e+09 5.9064e+09 5.60591e+09)
(-5.72733e+09 5.48613e+09 5.09167e+09)
(-4.28684e+09 4.1257e+09 8.48074e+09)
(-4.85996e+09 4.79454e+09 7.33205e+09)
(-5.11156e+09 5.03266e+09 1.01409e+10)
(-7.10759e+09 7.74104e+09 1.08025e+10)
(-4.57098e+09 4.99288e+09 8.75283e+09)
(-4.40639e+09 5.06973e+09 7.69568e+09)
(-6.00099e+09 5.76641e+09 1.0073e+10)
(-5.13474e+09 6.66868e+09 9.54644e+09)
(-8.74315e+09 7.27475e+09 7.97013e+09)
(-1.10722e+10 7.25482e+09 6.68762e+09)
(-1.1063e+10 9.24419e+09 9.9096e+09)
(-1.41299e+10 1.05575e+10 9.1383e+09)
(-9.41196e+09 7.57247e+09 8.00881e+09)
(-9.00104e+09 8.58971e+09 8.18851e+09)
(-1.0714e+10 7.7634e+09 8.74143e+09)
(-9.66168e+09 8.51509e+09 8.91509e+09)
(-5.36985e+09 4.70586e+09 5.63406e+09)
(-4.35314e+09 4.04124e+09 7.47033e+09)
(-6.37236e+09 5.68559e+09 7.08632e+09)
(-7.52127e+09 6.28042e+09 6.12551e+09)
(-6.14183e+09 5.41792e+09 6.10576e+09)
(-5.04657e+09 4.70778e+09 6.93366e+09)
(-7.41116e+09 5.93413e+09 5.76931e+09)
(-6.19135e+09 6.21057e+09 6.97938e+09)
(-5.34212e+09 4.67842e+09 6.1242e+09)
(-6.75715e+09 7.03423e+09 6.01699e+09)
(-5.32075e+09 5.14671e+09 6.58722e+09)
(-5.09717e+09 4.08557e+09 6.9462e+09)
(-5.15766e+09 4.85388e+09 6.43314e+09)
(-5.98628e+09 5.99924e+09 5.29166e+09)
(-5.95547e+09 4.73131e+09 7.76533e+09)
(-5.25468e+09 5.20428e+09 6.22858e+09)
(-4.03566e+09 4.22067e+09 8.1166e+09)
(-6.80877e+09 5.46888e+09 7.82485e+09)
(-9.4318e+09 6.58445e+09 6.6081e+09)
(-8.61957e+09 7.18487e+09 1.00322e+10)
(-6.09043e+09 5.81202e+09 8.56226e+09)
(-6.76507e+09 6.16017e+09 7.9372e+09)
(-6.75745e+09 7.02531e+09 8.62628e+09)
(-8.02411e+09 7.54132e+09 7.67644e+09)
(-4.42909e+09 4.75084e+09 8.06953e+09)
(-6.7452e+09 8.02562e+09 9.88988e+09)
(-7.52882e+09 6.88205e+09 6.48617e+09)
(-4.97651e+09 5.71047e+09 6.68463e+09)
(-5.69582e+09 5.93572e+09 7.7481e+09)
(-5.99697e+09 7.33425e+09 8.27162e+09)
(-6.8196e+09 6.36409e+09 7.24147e+09)
(-8.27792e+09 6.87631e+09 7.18665e+09)
(-4.59482e+09 5.5878e+09 1.37626e+10)
(-7.80146e+09 8.67737e+09 1.57252e+10)
(-6.60698e+09 8.10271e+09 1.55079e+10)
(-8.47741e+09 7.76159e+09 1.44848e+10)
(-5.0742e+09 6.36918e+09 1.38e+10)
(-5.75561e+09 7.58564e+09 1.48821e+10)
(-6.95611e+09 5.91526e+09 1.38601e+10)
(-6.42747e+09 7.18923e+09 1.38836e+10)
(-1.1205e+10 1.31983e+10 1.56066e+10)
(-1.3602e+10 1.77858e+10 1.53036e+10)
(-1.67199e+10 1.87329e+10 1.56473e+10)
(-1.38533e+10 1.32066e+10 1.4794e+10)
(-1.31885e+10 1.44763e+10 1.50415e+10)
(-1.14316e+10 1.65654e+10 1.51363e+10)
(-1.58815e+10 1.68142e+10 1.63386e+10)
(-1.60545e+10 1.74297e+10 1.48603e+10)
(-1.11635e+10 8.84653e+09 1.5267e+10)
(-1.98671e+10 1.79468e+10 1.54068e+10)
(-2.37806e+10 1.28785e+10 1.4741e+10)
(-1.95155e+10 1.27539e+10 1.86407e+10)
(-1.61233e+10 1.23771e+10 1.59299e+10)
(-1.54594e+10 1.25929e+10 1.7019e+10)
(-2.3001e+10 1.37243e+10 1.63817e+10)
(-2.18565e+10 1.46567e+10 1.75767e+10)
(-1.18224e+10 9.64338e+09 1.20054e+10)
(-1.37955e+10 1.25895e+10 1.37025e+10)
(-1.66816e+10 1.25588e+10 1.69932e+10)
(-1.73811e+10 1.12647e+10 1.24779e+10)
(-1.49708e+10 1.2114e+10 1.37885e+10)
(-1.43134e+10 1.31639e+10 1.42959e+10)
(-1.65478e+10 1.04294e+10 1.1722e+10)
(-1.67045e+10 1.34508e+10 1.47237e+10)
(-9.01004e+09 9.65668e+09 1.43822e+10)
(-8.69339e+09 8.27064e+09 1.42326e+10)
(-9.5587e+09 9.48722e+09 1.50099e+10)
(-1.23199e+10 1.19246e+10 1.39675e+10)
(-1.17892e+10 1.08799e+10 1.58405e+10)
(-9.16036e+09 7.73386e+09 1.4388e+10)
(-1.13135e+10 1.0717e+10 1.504e+10)
(-9.81208e+09 1.04514e+10 1.62827e+10)
(-8.45405e+09 1.05943e+10 1.55698e+10)
(-1.25535e+10 1.35908e+10 1.56687e+10)
(-1.3209e+10 1.47802e+10 1.60508e+10)
(-8.36583e+09 9.2184e+09 1.70411e+10)
(-1.20621e+10 1.1351e+10 1.53218e+10)
(-1.32015e+10 1.32439e+10 1.53047e+10)
(-1.25778e+10 1.23912e+10 1.66889e+10)
(-1.39598e+10 1.38683e+10 1.51213e+10)
(-1.21902e+10 8.92874e+09 1.30704e+10)
(-1.25732e+10 8.15755e+09 1.36024e+10)
(-1.554e+10 1.2438e+10 1.35847e+10)
(-1.77393e+10 1.14298e+10 1.39165e+10)
(-1.16163e+10 9.83601e+09 1.56375e+10)
(-1.16418e+10 1.05418e+10 1.53066e+10)
(-1.61299e+10 1.25173e+10 1.68119e+10)
(-1.56106e+10 1.26442e+10 1.60303e+10)
(-1.17191e+10 9.48875e+09 1.49512e+10)
(-1.92592e+10 1.40795e+10 1.74301e+10)
(-1.48875e+10 1.236e+10 1.38757e+10)
(-1.81958e+10 1.66638e+10 1.52827e+10)
(-1.65113e+10 1.27334e+10 1.63405e+10)
(-1.59941e+10 1.3631e+10 1.81964e+10)
(-1.84457e+10 1.61238e+10 1.66947e+10)
(-1.68885e+10 1.44165e+10 1.67887e+10)
(-3.41399e+09 5.63612e+09 1.0789e+10)
(-3.51362e+09 3.59281e+09 8.29738e+09)
(-2.26608e+09 4.82457e+09 8.13655e+09)
(-3.67159e+09 5.22721e+09 7.16493e+09)
(-3.43458e+09 4.78072e+09 7.87086e+09)
(-3.18133e+09 4.05438e+09 8.34197e+09)
(-3.3013e+09 5.8424e+09 7.68299e+09)
(-3.11835e+09 4.45204e+09 7.51665e+09)
(-3.00116e+09 2.55311e+09 6.75626e+09)
(-2.88689e+09 2.38652e+09 5.33305e+09)
(-2.44984e+09 2.39758e+09 5.32491e+09)
(-3.17549e+09 3.08181e+09 4.54334e+09)
(-2.83658e+09 2.58249e+09 5.48763e+09)
(-2.7476e+09 2.23569e+09 6.08915e+09)
(-3.09087e+09 3.00974e+09 4.76436e+09)
(-3.00201e+09 2.51893e+09 4.97614e+09)
(-1.98601e+09 4.21278e+09 6.63834e+09)
(-2.13064e+09 2.63853e+09 5.27571e+09)
(-1.8842e+09 3.53808e+09 5.15423e+09)
(-2.909e+09 4.36762e+09 4.81205e+09)
(-2.28447e+09 3.44277e+09 5.53694e+09)
(-2.05915e+09 2.92415e+09 5.96269e+09)
(-2.75152e+09 4.26726e+09 4.91274e+09)
(-2.41743e+09 3.24005e+09 4.91172e+09)
(-4.21499e+09 5.63337e+09 5.27415e+09)
(-3.78341e+09 3.77353e+09 4.04867e+09)
(-3.90692e+09 5.22864e+09 4.83437e+09)
(-5.64815e+09 6.18636e+09 4.14219e+09)
(-4.21348e+09 4.63151e+09 4.21065e+09)
(-4.24439e+09 4.53428e+09 4.64421e+09)
(-4.859e+09 5.64936e+09 4.3201e+09)
(-4.0258e+09 4.42212e+09 4.33413e+09)
(-3.16509e+09 3.25451e+09 6.45011e+09)
(-2.66629e+09 4.03504e+09 6.70642e+09)
(-3.72684e+09 4.61924e+09 5.68392e+09)
(-3.33772e+09 3.4635e+09 4.95642e+09)
(-3.28815e+09 4.01081e+09 6.11599e+09)
(-3.56956e+09 4.31086e+09 6.56521e+09)
(-3.20888e+09 3.92514e+09 5.49086e+09)
(-3.68245e+09 4.58559e+09 6.01054e+09)
(-2.9984e+09 2.7655e+09 7.16221e+09)
(-3.49241e+09 3.45749e+09 5.35894e+09)
(-2.46208e+09 2.50923e+09 6.2274e+09)
(-2.45837e+09 3.4579e+09 7.11169e+09)
(-2.93461e+09 3.18574e+09 5.9083e+09)
(-3.45785e+09 3.33931e+09 5.67118e+09)
(-2.297e+09 2.91731e+09 6.65032e+09)
(-2.53269e+09 2.83776e+09 5.65153e+09)
(-3.10335e+09 4.98175e+09 6.20102e+09)
(-3.97968e+09 5.42629e+09 5.55628e+09)
(-3.54731e+09 3.76628e+09 4.07038e+09)
(-3.47048e+09 4.7317e+09 4.78633e+09)
(-3.3937e+09 5.26224e+09 6.36477e+09)
(-3.34693e+09 4.37673e+09 5.56857e+09)
(-3.26456e+09 4.37178e+09 5.23476e+09)
(-3.73852e+09 3.71891e+09 4.19692e+09)
(-2.75376e+09 3.81066e+09 6.17875e+09)
(-3.27286e+09 4.05545e+09 4.87458e+09)
(-3.11678e+09 3.35947e+09 4.50731e+09)
(-2.70258e+09 2.67551e+09 5.05999e+09)
(-3.23557e+09 3.55156e+09 5.52259e+09)
(-3.14672e+09 3.74895e+09 4.88841e+09)
(-2.84405e+09 3.26152e+09 4.74826e+09)
(-2.92269e+09 3.25635e+09 4.6493e+09)
(-2.20438e+09 6.87067e+09 4.39712e+09)
(-2.64475e+09 8.3397e+09 4.67852e+09)
(-2.42525e+09 6.31853e+09 4.79488e+09)
(-3.28587e+09 6.88509e+09 4.17233e+09)
(-2.33332e+09 7.36578e+09 4.6622e+09)
(-2.51026e+09 7.31649e+09 4.55629e+09)
(-2.53521e+09 6.70238e+09 4.76473e+09)
(-2.89508e+09 7.09648e+09 4.71097e+09)
(-3.56534e+09 9.7691e+09 5.24191e+09)
(-4.94663e+09 1.20915e+10 6.18694e+09)
(-3.70857e+09 8.67639e+09 5.95209e+09)
(-5.83067e+09 9.93986e+09 5.22306e+09)
(-3.80693e+09 1.00274e+10 5.5722e+09)
(-4.57221e+09 1.14708e+10 6.21312e+09)
(-3.69454e+09 9.85751e+09 5.61126e+09)
(-4.08749e+09 9.95828e+09 6.37942e+09)
(-2.42388e+09 5.5923e+09 5.31418e+09)
(-2.61497e+09 6.37253e+09 5.81657e+09)
(-1.89813e+09 4.20532e+09 4.94404e+09)
(-3.3131e+09 5.28891e+09 5.09369e+09)
(-2.66621e+09 6.01456e+09 6.05524e+09)
(-2.40072e+09 5.71815e+09 5.24632e+09)
(-2.27449e+09 5.34356e+09 5.58255e+09)
(-1.95175e+09 4.89821e+09 5.29674e+09)
(-5.02439e+09 7.00138e+09 4.46922e+09)
(-5.83061e+09 7.92073e+09 4.64014e+09)
(-4.64224e+09 6.15788e+09 4.8468e+09)
(-7.0064e+09 8.11693e+09 4.72961e+09)
(-5.11346e+09 7.4652e+09 4.52548e+09)
(-5.52681e+09 7.64152e+09 4.95913e+09)
(-4.63177e+09 7.08787e+09 4.593e+09)
(-4.59549e+09 6.94839e+09 4.60628e+09)
(-2.84954e+09 8.29483e+09 4.71616e+09)
(-2.67076e+09 6.89938e+09 5.46167e+09)
(-3.72957e+09 7.69042e+09 4.57903e+09)
(-5.11265e+09 9.29492e+09 5.30721e+09)
(-3.15964e+09 7.96323e+09 5.27524e+09)
(-3.06222e+09 7.21998e+09 4.78508e+09)
(-4.38519e+09 8.29346e+09 4.74073e+09)
(-4.06843e+09 7.92016e+09 4.71915e+09)
(-2.82697e+09 8.86887e+09 4.89415e+09)
(-5.50622e+09 9.58874e+09 5.51829e+09)
(-3.44072e+09 8.03885e+09 5.91582e+09)
(-2.71239e+09 6.93535e+09 5.13901e+09)
(-3.11402e+09 8.40144e+09 5.04626e+09)
(-3.79898e+09 8.74988e+09 5.35846e+09)
(-3.00793e+09 7.49771e+09 5.51043e+09)
(-3.42996e+09 7.90693e+09 5.92566e+09)
(-2.77438e+09 6.32252e+09 5.24937e+09)
(-3.82296e+09 6.89576e+09 4.67676e+09)
(-4.48901e+09 8.34405e+09 5.14718e+09)
(-3.60084e+09 6.03797e+09 5.26184e+09)
(-3.89376e+09 6.60319e+09 5.09073e+09)
(-3.80314e+09 7.17907e+09 4.39783e+09)
(-4.09129e+09 7.10255e+09 5.539e+09)
(-4.45115e+09 7.36724e+09 4.88464e+09)
(-2.45806e+09 6.13449e+09 5.20587e+09)
(-3.33839e+09 5.96567e+09 5.15796e+09)
(-4.76775e+09 8.07468e+09 5.38385e+09)
(-2.86729e+09 7.2444e+09 5.93985e+09)
(-2.84187e+09 6.47901e+09 5.40139e+09)
(-3.82945e+09 6.93619e+09 5.21856e+09)
(-2.90029e+09 7.17369e+09 6.02353e+09)
(-4.21914e+09 7.48796e+09 5.1768e+09)
(-2.44804e+09 5.23364e+09 1.38561e+10)
(-5.986e+09 7.7113e+09 1.46939e+10)
(-3.59524e+09 5.9095e+09 1.56401e+10)
(-6.91298e+09 8.02114e+09 1.67273e+10)
(-4.47192e+09 5.25214e+09 1.2308e+10)
(-4.0924e+09 6.88804e+09 1.57614e+10)
(-5.0949e+09 6.31941e+09 1.46161e+10)
(-4.35911e+09 5.84171e+09 1.47128e+10)
(-1.46622e+10 1.17611e+10 1.877e+10)
(-2.01825e+10 1.65879e+10 2.48312e+10)
(-1.31085e+10 1.42296e+10 2.19514e+10)
(-2.82451e+10 2.01259e+10 2.58373e+10)
(-1.78283e+10 1.37928e+10 2.20998e+10)
(-1.54856e+10 1.43505e+10 2.22497e+10)
(-1.53704e+10 1.40627e+10 2.1349e+10)
(-1.55998e+10 1.62538e+10 2.36605e+10)
(-8.61148e+09 7.07336e+09 1.68005e+10)
(-1.03998e+10 1.13689e+10 1.93812e+10)
(-9.94706e+09 8.54932e+09 1.89678e+10)
(-1.9348e+10 1.50517e+10 2.33398e+10)
(-1.21328e+10 1.03897e+10 1.96266e+10)
(-1.05634e+10 9.83757e+09 1.99768e+10)
(-1.55514e+10 1.07989e+10 2.10642e+10)
(-1.04677e+10 9.47648e+09 1.81578e+10)
(-1.73599e+10 1.19234e+10 1.74059e+10)
(-2.35806e+10 1.7054e+10 1.9561e+10)
(-2.13352e+10 1.47896e+10 1.79294e+10)
(-1.98824e+10 1.2886e+10 1.35039e+10)
(-1.7727e+10 1.31544e+10 1.56104e+10)
(-2.01773e+10 1.51058e+10 1.85616e+10)
(-1.86865e+10 1.29616e+10 1.69883e+10)
(-2.29725e+10 1.5063e+10 1.94109e+10)
(-9.77676e+09 8.94652e+09 1.60687e+10)
(-8.49103e+09 8.10274e+09 1.65281e+10)
(-1.00673e+10 8.80437e+09 1.40996e+10)
(-2.00061e+10 1.41424e+10 2.02106e+10)
(-9.46857e+09 9.62868e+09 1.69584e+10)
(-1.03228e+10 9.45325e+09 1.71211e+10)
(-1.52065e+10 1.10145e+10 1.7667e+10)
(-1.28687e+10 9.92295e+09 1.7864e+10)
(-1.29648e+10 1.11617e+10 1.88379e+10)
(-2.48153e+10 1.76608e+10 2.41286e+10)
(-1.28749e+10 1.32883e+10 2.35197e+10)
(-9.23937e+09 8.58476e+09 1.75284e+10)
(-1.14615e+10 1.10637e+10 1.87717e+10)
(-1.49738e+10 1.31896e+10 2.12084e+10)
(-1.12802e+10 9.51948e+09 1.78079e+10)
(-1.4291e+10 1.22786e+10 2.04914e+10)
(-9.70772e+09 8.55867e+09 1.8378e+10)
(-1.12718e+10 9.74357e+09 1.55243e+10)
(-1.98786e+10 1.47722e+10 2.07487e+10)
(-1.83953e+10 1.17428e+10 2.07846e+10)
(-1.43095e+10 1.13446e+10 1.92282e+10)
(-1.35252e+10 1.12256e+10 1.908e+10)
(-1.78454e+10 1.31432e+10 1.94824e+10)
(-1.84404e+10 1.42333e+10 1.85183e+10)
(-8.73552e+09 8.24029e+09 1.71407e+10)
(-2.05628e+10 1.57532e+10 2.41989e+10)
(-2.72925e+10 1.89038e+10 2.61814e+10)
(-1.33414e+10 1.28115e+10 2.0444e+10)
(-1.54899e+10 1.23618e+10 2.21659e+10)
(-2.26457e+10 1.752e+10 2.44023e+10)
(-1.43513e+10 1.3978e+10 2.13187e+10)
(-2.42976e+10 1.86111e+10 2.47984e+10)
(-7.32221e+09 9.95835e+09 1.10208e+09)
(-6.63138e+09 1.01798e+10 2.53085e+09)
(-4.57461e+09 8.07928e+09 1.90153e+09)
(-7.21987e+09 8.61928e+09 2.10623e+09)
(-6.79121e+09 9.03981e+09 2.47426e+09)
(-5.63076e+09 9.68233e+09 1.74771e+09)
(-6.21151e+09 8.46466e+09 1.51329e+09)
(-4.93678e+09 8.95707e+09 1.61923e+09)
(-5.90254e+09 1.09808e+10 4.18905e+09)
(-6.3165e+09 1.16169e+10 6.0901e+09)
(-4.65605e+09 1.0157e+10 5.12686e+09)
(-7.11546e+09 1.05784e+10 4.99864e+09)
(-6.63775e+09 1.13182e+10 4.40158e+09)
(-5.1751e+09 1.08591e+10 5.52517e+09)
(-5.56791e+09 1.0647e+10 4.29086e+09)
(-4.97646e+09 1.03196e+10 4.87082e+09)
(-3.13477e+09 7.89123e+09 3.1387e+09)
(-3.55272e+09 9.21441e+09 4.62257e+09)
(-2.58789e+09 7.80685e+09 4.12582e+09)
(-3.2946e+09 7.09626e+09 3.95566e+09)
(-3.32361e+09 7.67711e+09 3.64128e+09)
(-2.97973e+09 8.63294e+09 4.04552e+09)
(-2.9437e+09 7.13763e+09 3.85825e+09)
(-2.94813e+09 8.4876e+09 4.27886e+09)
(-6.57309e+09 7.85828e+09 2.97349e+09)
(-6.75573e+09 8.76952e+09 4.6638e+09)
(-5.01437e+09 7.59184e+09 3.79201e+09)
(-7.30319e+09 8.36716e+09 4.09966e+09)
(-6.62855e+09 7.89694e+09 3.87462e+09)
(-5.7794e+09 8.36945e+09 4.07382e+09)
(-5.8175e+09 7.75336e+09 3.84307e+09)
(-5.37993e+09 7.97182e+09 3.97973e+09)
(-7.03525e+09 1.0798e+10 3.32936e+09)
(-4.71163e+09 8.33005e+09 2.66552e+09)
(-6.54324e+09 8.12003e+09 2.85915e+09)
(-7.17099e+09 9.5586e+09 4.54518e+09)
(-5.98442e+09 9.64109e+09 2.98445e+09)
(-5.73667e+09 9.49005e+09 2.71331e+09)
(-6.63923e+09 1.00979e+10 3.6838e+09)
(-5.61834e+09 9.30155e+09 2.87952e+09)
(-5.21226e+09 1.06327e+10 3.54422e+09)
(-5.67739e+09 9.69646e+09 4.72027e+09)
(-3.91306e+09 9.6408e+09 4.57052e+09)
(-3.69219e+09 9.26099e+09 2.99002e+09)
(-4.61629e+09 9.51465e+09 3.17124e+09)
(-4.63825e+09 9.9382e+09 4.10304e+09)
(-4.48896e+09 9.15042e+09 3.50114e+09)
(-4.64668e+09 8.93199e+09 3.68727e+09)
(-4.60033e+09 7.91106e+09 2.41388e+09)
(-6.16259e+09 8.21685e+09 2.62092e+09)
(-6.01029e+09 8.68421e+09 4.19119e+09)
(-4.41429e+09 7.19788e+09 3.43582e+09)
(-4.7622e+09 7.86509e+09 2.74572e+09)
(-5.25358e+09 8.87327e+09 3.26785e+09)
(-4.73721e+09 7.71232e+09 3.93121e+09)
(-5.68577e+09 8.8002e+09 3.74826e+09)
(-3.81649e+09 8.76254e+09 3.10903e+09)
(-3.39284e+09 7.46116e+09 3.79149e+09)
(-5.37665e+09 9.23529e+09 4.16065e+09)
(-4.00302e+09 9.57896e+09 4.73981e+09)
(-3.52089e+09 8.18636e+09 3.63751e+09)
(-3.76189e+09 8.0482e+09 4.1782e+09)
(-3.99182e+09 8.75939e+09 4.0652e+09)
(-4.4847e+09 8.33441e+09 4.10684e+09)
(-2.52006e+10 1.9847e+10 9.34429e+08)
(-2.46706e+10 1.79933e+10 7.72084e+09)
(-1.73902e+10 1.51903e+10 7.63159e+09)
(-2.37108e+10 1.71143e+10 5.02542e+09)
(-2.28004e+10 1.84182e+10 5.68678e+09)
(-2.13525e+10 1.87002e+10 7.53401e+09)
(-2.04215e+10 1.73703e+10 4.79658e+09)
(-2.00966e+10 1.81083e+10 8.06585e+09)
(-2.72532e+10 1.77428e+10 1.41475e+10)
(-3.03765e+10 2.12056e+10 2.07548e+10)
(-2.52786e+10 2.22318e+10 1.76983e+10)
(-2.58968e+10 1.74659e+10 1.84278e+10)
(-2.86087e+10 1.61092e+10 1.62392e+10)
(-2.72672e+10 1.95352e+10 1.84328e+10)
(-2.41855e+10 1.62325e+10 1.71539e+10)
(-2.40063e+10 1.94722e+10 2.03609e+10)
(-1.59029e+10 1.58607e+10 1.05423e+10)
(-2.03937e+10 2.21974e+10 1.65589e+10)
(-1.62015e+10 1.91572e+10 1.48002e+10)
(-1.57384e+10 1.28903e+10 1.39686e+10)
(-1.61716e+10 1.4534e+10 1.31184e+10)
(-1.76904e+10 2.02073e+10 1.37604e+10)
(-1.48691e+10 1.39862e+10 1.27849e+10)
(-1.70131e+10 1.97797e+10 1.53509e+10)
(-2.13072e+10 1.36835e+10 8.16528e+09)
(-2.36564e+10 1.67147e+10 1.47739e+10)
(-1.69008e+10 1.38164e+10 1.34238e+10)
(-2.15999e+10 1.37015e+10 1.11493e+10)
(-2.02268e+10 1.27183e+10 1.06403e+10)
(-1.7878e+10 1.47288e+10 1.25989e+10)
(-1.82371e+10 1.26701e+10 1.0711e+10)
(-1.92592e+10 1.5315e+10 1.37767e+10)
(-2.50211e+10 1.82972e+10 9.72283e+09)
(-1.82435e+10 1.49869e+10 9.60379e+09)
(-2.13744e+10 1.53425e+10 8.21342e+09)
(-2.40292e+10 1.54771e+10 1.32733e+10)
(-2.14852e+10 1.7301e+10 1.15362e+10)
(-2.06203e+10 1.68968e+10 1.03989e+10)
(-2.23132e+10 1.59091e+10 1.12041e+10)
(-1.94047e+10 1.57066e+10 1.05606e+10)
(-2.33412e+10 1.73249e+10 1.3445e+10)
(-2.11205e+10 1.51242e+10 1.53922e+10)
(-2.24809e+10 2.07979e+10 1.57266e+10)
(-1.80802e+10 1.7555e+10 1.07426e+10)
(-2.15165e+10 1.67772e+10 1.34711e+10)
(-2.15264e+10 1.50044e+10 1.44644e+10)
(-2.12608e+10 1.74742e+10 1.24168e+10)
(-2.16473e+10 1.5912e+10 1.33845e+10)
(-1.64673e+10 1.38822e+10 1.00857e+10)
(-1.94573e+10 1.52664e+10 7.68094e+09)
(-2.03146e+10 1.48827e+10 1.48244e+10)
(-1.46085e+10 1.24759e+10 1.25003e+10)
(-1.66181e+10 1.3882e+10 1.01977e+10)
(-1.85822e+10 1.59993e+10 1.10151e+10)
(-1.56833e+10 1.20661e+10 1.18356e+10)
(-1.86727e+10 1.47909e+10 1.25199e+10)
(-1.76893e+10 1.68215e+10 1.17176e+10)
(-1.61118e+10 1.37611e+10 1.42386e+10)
(-2.10235e+10 1.59315e+10 1.56665e+10)
(-1.92062e+10 1.90373e+10 1.61755e+10)
(-1.73729e+10 1.55731e+10 1.3246e+10)
(-1.58635e+10 1.29383e+10 1.29585e+10)
(-1.82311e+10 1.48198e+10 1.35316e+10)
(-1.95667e+10 1.37027e+10 1.42196e+10)
(-3.95986e+09 2.201e+09 2.34656e+09)
(-3.19511e+09 1.6072e+09 2.27826e+09)
(-4.91564e+09 2.47717e+09 2.02451e+09)
(-4.85955e+09 2.37808e+09 2.28081e+09)
(-4.27873e+09 2.26732e+09 2.2801e+09)
(-3.9548e+09 1.85001e+09 1.92382e+09)
(-4.74747e+09 2.54618e+09 2.42662e+09)
(-4.84459e+09 2.37751e+09 1.93048e+09)
(-3.30733e+09 1.47879e+09 2.37346e+09)
(-3.42034e+09 1.23805e+09 2.28912e+09)
(-3.74816e+09 1.60229e+09 1.82879e+09)
(-4.61652e+09 1.78383e+09 2.38779e+09)
(-3.56961e+09 1.47043e+09 2.2317e+09)
(-2.69108e+09 1.1444e+09 1.62438e+09)
(-4.12942e+09 1.75316e+09 2.43233e+09)
(-3.69511e+09 1.6601e+09 1.61955e+09)
(-6.37296e+09 3.043e+09 1.7845e+09)
(-5.06497e+09 2.4084e+09 1.77466e+09)
(-7.67819e+09 3.66966e+09 1.31419e+09)
(-7.76239e+09 3.61794e+09 2.15229e+09)
(-6.68846e+09 3.23413e+09 1.70578e+09)
(-5.86177e+09 2.85727e+09 1.093e+09)
(-7.3285e+09 3.59409e+09 1.89998e+09)
(-7.01409e+09 3.69622e+09 1.16071e+09)
(-6.10858e+09 2.61908e+09 2.79313e+09)
(-5.9931e+09 2.52825e+09 3.06993e+09)
(-8.00825e+09 3.53318e+09 3.08191e+09)
(-8.25812e+09 3.38512e+09 3.92717e+09)
(-6.57258e+09 2.96861e+09 2.84458e+09)
(-6.35902e+09 2.91641e+09 2.29081e+09)
(-7.42777e+09 3.38023e+09 3.41778e+09)
(-7.02779e+09 3.34537e+09 2.65563e+09)
(-3.57277e+09 1.65922e+09 2.24093e+09)
(-5.44706e+09 2.70838e+09 1.93822e+09)
(-5.05139e+09 2.43135e+09 2.24737e+09)
(-4.74412e+09 1.97959e+09 2.53978e+09)
(-4.29554e+09 2.0609e+09 2.39716e+09)
(-5.26481e+09 2.4479e+09 2.10939e+09)
(-4.49426e+09 1.89597e+09 2.48406e+09)
(-5.42287e+09 2.44766e+09 2.21809e+09)
(-2.83441e+09 1.31478e+09 1.65487e+09)
(-3.99096e+09 1.81129e+09 1.71005e+09)
(-4.3365e+09 1.99822e+09 1.49308e+09)
(-5.07068e+09 2.29369e+09 1.67834e+09)
(-3.85539e+09 1.66051e+09 1.86141e+09)
(-3.90255e+09 1.69867e+09 1.87769e+09)
(-4.3753e+09 1.94275e+09 1.93782e+09)
(-4.51407e+09 1.99809e+09 1.92176e+09)
(-6.04322e+09 3.024e+09 2.17856e+09)
(-5.76818e+09 2.87421e+09 2.59687e+09)
(-5.41793e+09 2.41784e+09 2.84999e+09)
(-7.42165e+09 3.56681e+09 2.54748e+09)
(-6.44004e+09 2.99196e+09 2.26039e+09)
(-5.74218e+09 2.55104e+09 2.17711e+09)
(-6.56211e+09 3.126e+09 2.11326e+09)
(-6.30816e+09 2.84269e+09 2.3501e+09)
(-5.75787e+09 2.63416e+09 1.69143e+09)
(-6.93947e+09 3.53835e+09 1.8159e+09)
(-4.91008e+09 2.17985e+09 2.14731e+09)
(-4.79743e+09 2.36717e+09 1.48648e+09)
(-6.23241e+09 2.82799e+09 1.69787e+09)
(-6.17865e+09 2.9638e+09 1.67057e+09)
(-4.82061e+09 2.12191e+09 2.22332e+09)
(-5.12081e+09 2.37496e+09 2.16388e+09)
(-3.02625e+09 1.24187e+09 3.92929e+09)
(-3.56734e+09 1.48512e+09 3.38037e+09)
(-3.56153e+09 1.77278e+09 3.28824e+09)
(-4.20726e+09 1.75591e+09 3.82778e+09)
(-3.40654e+09 1.36082e+09 4.1243e+09)
(-3.32488e+09 1.75873e+09 3.49651e+09)
(-3.8064e+09 1.60525e+09 3.89686e+09)
(-3.67511e+09 1.59078e+09 3.6929e+09)
(-3.72018e+09 1.44378e+09 2.74566e+09)
(-3.4123e+09 1.16366e+09 2.21548e+09)
(-3.21358e+09 1.33711e+09 2.25271e+09)
(-4.19767e+09 1.76054e+09 2.28065e+09)
(-3.6914e+09 1.45312e+09 2.62083e+09)
(-3.3752e+09 1.30199e+09 2.46489e+09)
(-4.02892e+09 1.60462e+09 2.49225e+09)
(-3.48917e+09 1.29893e+09 2.11348e+09)
(-3.81442e+09 2.01012e+09 2.58664e+09)
(-3.09436e+09 1.54873e+09 2.2496e+09)
(-3.5501e+09 2.02742e+09 2.18573e+09)
(-4.58448e+09 2.01436e+09 2.41383e+09)
(-3.89573e+09 1.86101e+09 2.5561e+09)
(-3.81043e+09 1.97273e+09 2.4621e+09)
(-4.34643e+09 2.07141e+09 2.38555e+09)
(-3.99741e+09 2.01079e+09 2.08274e+09)
(-5.48948e+09 2.34449e+09 3.5359e+09)
(-5.63885e+09 2.41811e+09 2.86716e+09)
(-5.97213e+09 2.4937e+09 3.01354e+09)
(-7.37103e+09 3.08764e+09 3.57936e+09)
(-6.25284e+09 2.74759e+09 3.8393e+09)
(-5.68407e+09 2.50392e+09 3.27567e+09)
(-7.0052e+09 2.94703e+09 3.58597e+09)
(-6.58704e+09 2.75698e+09 3.24169e+09)
(-3.73096e+09 1.4777e+09 3.39841e+09)
(-4.06655e+09 1.8675e+09 3.41107e+09)
(-4.57676e+09 2.0574e+09 3.8212e+09)
(-5.09953e+09 2.13244e+09 3.33993e+09)
(-4.31617e+09 1.8709e+09 3.35815e+09)
(-4.20136e+09 1.94644e+09 3.55483e+09)
(-4.45333e+09 1.84389e+09 3.19155e+09)
(-4.34545e+09 1.92601e+09 3.69945e+09)
(-3.57498e+09 1.62145e+09 3.07177e+09)
(-4.26696e+09 1.74384e+09 2.8616e+09)
(-3.33026e+09 1.61305e+09 2.52649e+09)
(-3.72738e+09 1.95103e+09 3.00379e+09)
(-3.67729e+09 1.57814e+09 2.90773e+09)
(-4.12278e+09 1.68818e+09 2.88195e+09)
(-3.70416e+09 1.62276e+09 2.75557e+09)
(-3.75592e+09 1.56478e+09 2.64998e+09)