/*--------------------------------*- C++ -*----------------------------------*\
| =========                 |                                                 |
| \\      /  F ield         | OpenFOAM: The Open Source CFD Toolbox           |
|  \\    /   O peration     | Version:  2506                                  |
|   \\  /    A nd           | Website:  www.openfoam.com                      |
|    \\/     M anipulation  |                                                 |
\*---------------------------------------------------------------------------*/
FoamFile
{
    version     2.0;
    format      ascii;
    arch        "LSB;label=32;scalar=64";
    class       volScalarField;
    location    "2000";
    object      p;
}
// * * * * * * * * * * * * * * * * * * * * * * * * * * * * * * * * * * * * * //

dimensions      [0 2 -2 0 0 0 0];

internalField   nonuniform List<scalar> 
71680
(
-0.0488267
-0.0452755
-0.0626978
-0.0465186
-0.0472394
-0.05053
-0.0525042
-0.0555777
-0.0409119
-0.0379951
-0.0566928
-0.0457716
-0.0349749
-0.0432939
-0.0479965
-0.0448925
-0.0842548
-0.0854247
-0.120885
-0.0923311
-0.0837821
-0.0985432
-0.0993147
-0.0990696
-0.0499555
-0.0535174
-0.0738361
-0.0503854
-0.0525824
-0.0585337
-0.0585386
-0.0657324
-0.0416264
-0.0652175
-0.0476966
-0.0476799
-0.0515422
-0.0548115
-0.0457009
-0.0537305
-0.0462412
-0.0547324
-0.0702096
-0.0682859
-0.0523612
-0.0538034
-0.0630922
-0.0583283
-0.0767968
-0.053905
-0.0568166
-0.0803177
-0.0686293
-0.0590106
-0.0641994
-0.0608569
-0.0771694
-0.0894863
-0.0617583
-0.0733657
-0.0777998
-0.0759097
-0.0715915
-0.0653691
0.0018942
-0.0030972
-0.00485687
-0.0038987
-0.00127138
-0.00237427
-0.00343353
-0.00464377
-0.00780591
-0.0114196
-0.0147699
-0.0130511
-0.0106536
-0.0115198
-0.0124201
-0.0141842
-0.0145666
-0.0182144
-0.0234243
-0.0193739
-0.0175538
-0.0184145
-0.0190607
-0.0217774
-0.00890681
-0.0132832
-0.0165157
-0.0138934
-0.0118687
-0.0129134
-0.0127952
-0.0156424
-0.00627041
-0.0089803
-0.00689045
-0.0119214
-0.00827164
-0.007191
-0.00886072
-0.00833517
-0.00753237
-0.0127294
-0.0148304
-0.0101278
-0.00976509
-0.0120068
-0.0104625
-0.0141623
-0.0108952
-0.00823688
-0.0125975
-0.0155489
-0.0111112
-0.0105283
-0.0146457
-0.0120605
-0.0134416
-0.0181823
-0.0147643
-0.0175746
-0.0143568
-0.0153436
-0.0150331
-0.0154017
-0.113358
-0.119005
-0.0896419
-0.108646
-0.107072
-0.108802
-0.107362
-0.105175
-0.129604
-0.127109
-0.0882693
-0.106595
-0.132693
-0.12425
-0.105562
-0.111324
-0.0607949
-0.060751
-0.039858
-0.051252
-0.0551508
-0.0509258
-0.0476507
-0.0451571
-0.0748746
-0.0757789
-0.0574945
-0.055472
-0.0734935
-0.0754589
-0.064801
-0.0659806
-0.114921
-0.0865094
-0.101481
-0.0967777
-0.108735
-0.100386
-0.108936
-0.0968481
-0.116294
-0.0970433
-0.0837986
-0.0837236
-0.104016
-0.102038
-0.0927093
-0.0913435
-0.0771864
-0.0829881
-0.0828417
-0.059877
-0.0714555
-0.084561
-0.0695204
-0.0775212
-0.0758363
-0.0620641
-0.0839129
-0.0767975
-0.070075
-0.0683144
-0.0779663
-0.0732104
-0.00491634
-0.00553765
-0.00351572
-0.00628268
-0.00523182
-0.00496055
-0.00527606
-0.00492142
-0.00772629
-0.0106205
-0.00676863
-0.0120377
-0.00886363
-0.00864898
-0.00910315
-0.00861261
-0.00143878
-0.0025129
0.00159804
-0.00312926
-0.00179825
-0.00132573
-0.00164898
-0.00103079
-0.00849514
-0.0122709
-0.00768035
-0.0127048
-0.00997378
-0.00976935
-0.0101308
-0.00992047
-0.00627813
-0.00385566
-0.00710158
-0.00975934
-0.00641799
-0.00555245
-0.00847472
-0.00691447
-0.00613729
-0.00962788
-0.00496598
-0.00345037
-0.00602392
-0.0076972
-0.00431199
-0.00518043
-0.00383912
-0.00718233
-0.00985611
-0.00590797
-0.00464687
-0.00691038
-0.00605199
-0.00851659
-0.00338201
-0.00567163
-0.00982263
-0.00480841
-0.00419771
-0.00574767
-0.00528154
-0.00741657
-0.00583362
-0.00775616
-0.00646197
-0.00727213
-0.00631206
-0.00679193
-0.00648738
-0.00714032
-0.0102529
-0.0129208
-0.0121751
-0.0133998
-0.0115469
-0.0118617
-0.0119074
-0.0128557
-0.00829513
-0.0117004
-0.0111105
-0.0124129
-0.0102259
-0.0110447
-0.0110529
-0.012327
-0.00983503
-0.0138758
-0.0128815
-0.0139297
-0.0115171
-0.0120144
-0.011822
-0.0134433
-0.00884458
-0.00789267
-0.00840258
-0.0115911
-0.00919136
-0.00839501
-0.0103412
-0.00909262
-0.00920257
-0.0122026
-0.0114429
-0.00859875
-0.0100021
-0.0113232
-0.00940284
-0.0109737
-0.00857176
-0.00859407
-0.0120549
-0.01162
-0.00899257
-0.00985999
-0.0109681
-0.0114756
-0.0091631
-0.0129395
-0.0133422
-0.0124463
-0.0110282
-0.0116733
-0.0116305
-0.0127061
-0.112863
-0.0883636
-0.0877177
-0.0835122
-0.102517
-0.0935834
-0.0952615
-0.0867832
-0.0700166
-0.0473838
-0.049074
-0.050471
-0.0634167
-0.0530418
-0.0591751
-0.0506279
-0.0732584
-0.0494641
-0.0505901
-0.0523419
-0.0606838
-0.0556219
-0.0591904
-0.0498316
-0.0573592
-0.039247
-0.0463769
-0.033808
-0.0471961
-0.0464459
-0.0413935
-0.0400718
-0.0817461
-0.0819471
-0.0737537
-0.0563101
-0.0729833
-0.0804984
-0.0587874
-0.0677606
-0.0742028
-0.0538422
-0.0540806
-0.0761843
-0.0681281
-0.0624584
-0.0684205
-0.0599901
-0.0794533
-0.0657289
-0.0514312
-0.0558638
-0.0649822
-0.0616281
-0.057176
-0.0549346
-0.0661637
-0.0487064
-0.0499102
-0.0505539
-0.0609003
-0.0547639
-0.056383
-0.0507789
-0.130029
-0.142409
-0.0932245
-0.105461
-0.112804
-0.0987706
-0.0996611
-0.093475
-0.18447
-0.183165
-0.103957
-0.097877
-0.17215
-0.163325
-0.127228
-0.119369
-0.0683987
-0.0694146
-0.0539028
-0.0514905
-0.0629977
-0.0632095
-0.0547628
-0.0526847
-0.075914
-0.0690717
-0.0551737
-0.0534752
-0.0688563
-0.0700172
-0.0576404
-0.053554
-0.136748
-0.0884777
-0.09431
-0.108378
-0.109696
-0.098838
-0.109519
-0.0936233
-0.109083
-0.111971
-0.0879066
-0.0867311
-0.104611
-0.117344
-0.109067
-0.0909013
-0.0774925
-0.0807325
-0.0871156
-0.0565884
-0.0782681
-0.072628
-0.0637435
-0.0684847
-0.07392
-0.0530483
-0.0745649
-0.0727813
-0.0677477
-0.0637319
-0.079651
-0.0690994
-0.00458283
-0.00295978
-0.00416708
-0.00538892
-0.00462778
-0.00403364
-0.0053455
-0.0044465
-0.000743212
0.00168717
-0.000705834
-0.00228744
-0.000656426
0.000168756
-0.00159291
-0.000339608
-0.00346233
-0.00202593
-0.00251294
-0.00381568
-0.00277778
-0.0025041
-0.0029993
-0.00231329
-0.0071352
-0.00603043
-0.00693473
-0.0104722
-0.00775016
-0.00648905
-0.00902357
-0.00755933
-0.00297605
-0.00408206
-0.00573071
-0.00443
-0.00392186
-0.00420893
-0.0037715
-0.00473443
-0.00227623
-0.00319337
-0.00166715
-0.00365334
-0.00276664
-0.00226909
-0.00252082
-0.00208995
-0.00434132
-0.00656095
-0.00511527
-0.00485859
-0.00480337
-0.00532012
-0.00471489
-0.00530881
-0.00366635
-0.00406959
-0.00389353
-0.00170329
-0.00290344
-0.0040976
-0.0024416
-0.00359335
-0.109468
-0.0912036
-0.143342
-0.0992658
-0.113879
-0.103266
-0.126237
-0.110219
-0.0682106
-0.0530217
-0.0767519
-0.0595543
-0.0568241
-0.0509691
-0.0650511
-0.0600599
-0.177019
-0.114234
-0.203335
-0.108346
-0.127128
-0.113853
-0.15068
-0.131369
-0.0706747
-0.064802
-0.0797077
-0.0565342
-0.077067
-0.0739419
-0.0791994
-0.0738443
-0.083701
-0.130947
-0.103299
-0.0646311
-0.090085
-0.0994237
-0.0730333
-0.0977259
-0.0785945
-0.0578341
-0.0714564
-0.117952
-0.0855796
-0.0651959
-0.110688
-0.0833832
-0.139809
-0.104444
-0.071856
-0.094632
-0.114606
-0.0903821
-0.0927563
-0.0825771
-0.122404
-0.0870465
-0.0644403
-0.0855692
-0.0931524
-0.0866406
-0.0992546
-0.0821964
-0.0126747
-0.013083
-0.0154588
-0.0137288
-0.0136958
-0.0137972
-0.0145479
-0.0147138
-0.0132552
-0.0140188
-0.0158636
-0.0143911
-0.0137115
-0.0141781
-0.0144612
-0.0150759
-0.016474
-0.0169424
-0.0169689
-0.0177273
-0.0168087
-0.0167676
-0.0173112
-0.0170764
-0.0144803
-0.015178
-0.0175699
-0.0155254
-0.0156935
-0.0157829
-0.0162429
-0.0170905
-0.0132803
-0.0156769
-0.014366
-0.0144887
-0.013898
-0.0146256
-0.0141649
-0.0142969
-0.0136488
-0.0149074
-0.0156664
-0.0155732
-0.0146144
-0.0147347
-0.0152851
-0.0152977
-0.0164209
-0.0149486
-0.0151863
-0.0176077
-0.0159627
-0.0154176
-0.0166765
-0.0160325
-0.0161213
-0.0175696
-0.0159025
-0.0164369
-0.016461
-0.0165564
-0.0160436
-0.0167036
-0.129094
-0.0572699
-0.0769483
-0.0703048
-0.0865833
-0.0800619
-0.0841766
-0.0764514
-0.0264584
-0.00775001
-0.0239073
-0.0203969
-0.0224498
-0.0219711
-0.024822
-0.0211713
-0.0547344
-0.0354657
-0.039804
-0.0382432
-0.0451681
-0.0418502
-0.0427994
-0.0383672
-0.0545189
-0.0329605
-0.0397311
-0.041173
-0.0443083
-0.0454815
-0.0441431
-0.0361455
-0.0450684
-0.0657932
-0.0600928
-0.0356556
-0.0464703
-0.0539212
-0.0419792
-0.0563258
-0.0395047
-0.0361464
-0.0362503
-0.0587755
-0.0386546
-0.0313394
-0.0447769
-0.036464
-0.0610478
-0.0597359
-0.037
-0.0465389
-0.0533208
-0.0504122
-0.0476881
-0.0386829
-0.0558122
-0.0381869
-0.0317226
-0.0339613
-0.0390664
-0.0434217
-0.0376282
-0.0322152
-0.100177
-0.0858029
-0.0775275
-0.0746948
-0.101944
-0.0937027
-0.0874247
-0.086113
-0.0695246
-0.0511936
-0.0523716
-0.0510446
-0.063446
-0.058663
-0.059709
-0.0530044
-0.0530434
-0.0452244
-0.0321883
-0.0299725
-0.0444088
-0.0437081
-0.0357922
-0.0370878
-0.0476469
-0.0424245
-0.0297057
-0.0276912
-0.0402284
-0.042947
-0.0374425
-0.0352425
-0.07787
-0.0699679
-0.071341
-0.056003
-0.0716339
-0.0705225
-0.0612173
-0.0655001
-0.0756962
-0.0550227
-0.0554704
-0.0680057
-0.0667311
-0.0583269
-0.0630851
-0.0571784
-0.0620112
-0.0627558
-0.0520201
-0.0351755
-0.0515276
-0.0600348
-0.0440997
-0.0470154
-0.058887
-0.036048
-0.0473035
-0.0486062
-0.0477733
-0.0433019
-0.0506331
-0.0445473
-0.0243223
-0.0200465
-0.0206558
-0.0218519
-0.0215048
-0.0208055
-0.0210873
-0.0204916
-0.0168606
-0.013997
-0.0161583
-0.0147572
-0.0149163
-0.0153344
-0.0150118
-0.015188
-0.0184519
-0.0169141
-0.0170266
-0.0182354
-0.0174184
-0.0173879
-0.0175721
-0.0170811
-0.0197583
-0.0155504
-0.0184893
-0.0172185
-0.017155
-0.0168311
-0.0177371
-0.0171733
-0.0175606
-0.0190726
-0.0191528
-0.0156893
-0.0176106
-0.0195232
-0.017753
-0.0185593
-0.017276
-0.0154401
-0.0167547
-0.0189352
-0.0171493
-0.0166948
-0.0181763
-0.0166057
-0.0191528
-0.0192411
-0.0160744
-0.0182807
-0.019423
-0.0186615
-0.0178726
-0.0179004
-0.0186648
-0.0177076
-0.0156552
-0.0164171
-0.0181938
-0.0176243
-0.0169486
-0.0169005
-0.17837
-0.122505
-0.129897
-0.118392
-0.085921
-0.14174
-0.0951454
-0.109566
-0.13566
-0.118356
-0.100984
-0.118962
-0.143412
-0.138669
-0.105747
-0.132253
-0.14917
-0.0862712
-0.130374
-0.131426
-0.169548
-0.137491
-0.147763
-0.168038
-0.0723324
-0.0859216
-0.0769748
-0.0575694
-0.0811173
-0.0852908
-0.0721881
-0.0786207
-0.134973
-0.116516
-0.114881
-0.111711
-0.110782
-0.112122
-0.121352
-0.113827
-0.135548
-0.123854
-0.124249
-0.1621
-0.122153
-0.123953
-0.123394
-0.140417
-0.114591
-0.103404
-0.103827
-0.0826482
-0.134049
-0.122439
-0.121027
-0.113478
-0.142027
-0.103859
-0.102849
-0.169052
-0.142007
-0.14445
-0.129909
-0.140717
-0.098987
-0.0981875
-0.0890089
-0.0757968
-0.091408
-0.109701
-0.0800015
-0.0817281
-0.100437
-0.127189
-0.114078
-0.0797731
-0.0979736
-0.131941
-0.0851365
-0.0978211
-0.0947543
-0.100246
-0.0994988
-0.0784298
-0.0959862
-0.109832
-0.0889356
-0.0838767
-0.0617235
-0.0536667
-0.056672
-0.0395441
-0.05401
-0.0545301
-0.0371573
-0.0467785
-0.0925892
-0.0867747
-0.065422
-0.0532837
-0.0814545
-0.0909019
-0.0809425
-0.0851054
-0.117501
-0.0721423
-0.123244
-0.114341
-0.0826321
-0.0917485
-0.0946486
-0.0900936
-0.0806382
-0.0495317
-0.0427276
-0.0510911
-0.0788365
-0.052979
-0.0548915
-0.0452481
-0.082711
-0.0583703
-0.0541965
-0.0794077
-0.0978853
-0.0765152
-0.0828118
-0.0781006
0.00901165
-1.62081e-05
-0.00294633
0.00545572
0.00666469
0.00237211
0.00501784
-0.000917524
-0.00752572
-0.0144282
-0.0170956
-0.014713
-0.0112881
-0.0131667
-0.0140898
-0.015799
-0.0151688
-0.0199116
-0.0236
-0.0239818
-0.0196252
-0.0207473
-0.0230425
-0.022951
-0.0020883
-0.0149531
-0.0217653
-0.0163598
-0.00975898
-0.0135657
-0.0156131
-0.0191696
-0.00352439
-0.00742564
0.000946496
-0.0105007
-0.00625306
-0.0042944
-0.00609375
-0.00404928
-0.00614778
-0.0129859
-0.0163885
-0.0100976
-0.0093985
-0.0123761
-0.0113021
-0.01536
-0.00991116
-0.00233692
-0.0138862
-0.0206893
-0.0105536
-0.00781582
-0.0159107
-0.0124114
-0.0136743
-0.021986
-0.0165836
-0.0187252
-0.0166541
-0.0180116
-0.0176645
-0.0182295
-0.0485284
-0.0454101
-0.0613417
-0.051729
-0.0531817
-0.0535277
-0.0534392
-0.0576569
-0.0452018
-0.0447008
-0.0544752
-0.0479639
-0.0521582
-0.0589359
-0.0506063
-0.0522559
-0.0846213
-0.082936
-0.149139
-0.0876259
-0.102502
-0.0963393
-0.108495
-0.117784
-0.0559712
-0.0515573
-0.0639604
-0.0576538
-0.0562365
-0.0573125
-0.0562657
-0.0581643
-0.0518481
-0.0759403
-0.0548301
-0.0537495
-0.0493107
-0.0531823
-0.0501024
-0.0518998
-0.0567078
-0.0554846
-0.0827447
-0.0749347
-0.0610488
-0.0532738
-0.0601078
-0.074156
-0.0713594
-0.0549002
-0.057083
-0.0786394
-0.0621626
-0.0640837
-0.0738494
-0.0572002
-0.088641
-0.0946727
-0.0507829
-0.0812372
-0.0779321
-0.0756645
-0.0733597
-0.0639915
-0.121161
-0.0838517
-0.0858512
-0.0835665
-0.0932902
-0.0920426
-0.0928954
-0.0908859
-0.0473613
-0.0257715
-0.0392255
-0.0236495
-0.0302137
-0.0337104
-0.0332222
-0.0306046
-0.0623608
-0.0449246
-0.0488994
-0.0486189
-0.0547168
-0.0464431
-0.0513299
-0.0455139
-0.0534352
-0.0271049
-0.0431509
-0.0294732
-0.032492
-0.0340279
-0.0349895
-0.032659
-0.0575872
-0.0685333
-0.059017
-0.0378444
-0.0597069
-0.0767644
-0.0534361
-0.05821
-0.0592109
-0.0343152
-0.0393855
-0.0595423
-0.0561133
-0.045399
-0.0576067
-0.0441402
-0.0650286
-0.0624902
-0.03656
-0.0460369
-0.0634642
-0.0585135
-0.0482516
-0.050393
-0.0596612
-0.0414063
-0.0315265
-0.0386605
-0.0524228
-0.0412994
-0.0415224
-0.0383739
0.00337137
-0.00334242
0.00462671
-0.00254583
0.000864903
0.00116091
0.000773548
0.00120468
-0.0132319
-0.0227446
-0.0133489
-0.0188758
-0.0167064
-0.0179758
-0.0166269
-0.0178741
0.00674678
-0.00159048
0.00879701
0.000684462
0.00390595
0.00444285
0.00444521
0.00480958
-0.00774593
-0.0158799
-0.00646895
-0.0130559
-0.0101513
-0.0107771
-0.00958947
-0.0102094
-0.00674346
0.00204762
-0.00485687
-0.013069
-0.00647981
-0.00228628
-0.0103893
-0.00524869
-0.00739062
-0.0137736
-0.00723942
0.00234688
-0.00710289
-0.0118546
-0.00254999
-0.00647153
0.00210387
-0.00428823
-0.0127433
-0.00332881
-0.00113693
-0.00461438
-0.00403861
-0.00814716
0.00252898
-0.00362682
-0.0135565
-0.0069981
-0.00167219
-0.00439007
-0.00620104
-0.00977132
-0.0795252
-0.0363141
-0.0751069
-0.0616892
-0.0483422
-0.0708159
-0.0265628
-0.0379001
-0.0264087
-0.0320951
-0.0448938
-0.0353251
-0.0414248
-0.0400541
-0.0487593
-0.0445397
-0.0876208
-0.071141
-0.0980063
-0.0860185
-0.0693649
-0.0668523
-0.0712233
-0.0676432
-0.0477116
-0.0247727
-0.0508459
-0.0321609
-0.0355538
-0.0376479
-0.0383778
-0.0382905
-0.0470178
-0.0657731
-0.050989
-0.0308007
-0.0471529
-0.0668281
-0.0331025
-0.0609251
-0.0438578
-0.0394402
-0.0329004
-0.0665664
-0.0408303
-0.0538148
-0.0439672
-0.0488484
-0.0595166
-0.0474166
-0.0304992
-0.0534931
-0.0793144
-0.0548118
-0.0533561
-0.0320446
-0.0621906
-0.0552325
-0.0398359
-0.0427821
-0.0715603
-0.0555482
-0.0526389
-0.0516582
-0.0136945
-0.0155914
-0.0163876
-0.0164506
-0.0149291
-0.0155794
-0.015855
-0.0162232
-0.015602
-0.0229164
-0.023048
-0.0218786
-0.0193075
-0.0226255
-0.0202973
-0.0247914
-0.0189506
-0.0236571
-0.0235865
-0.02188
-0.0203708
-0.0214416
-0.0213732
-0.0224864
-0.0183835
-0.0206681
-0.0215573
-0.0202973
-0.0196703
-0.0191596
-0.0197558
-0.0199532
-0.0148881
-0.0179826
-0.0178281
-0.0184995
-0.0161341
-0.0171217
-0.0169748
-0.0166942
-0.0176056
-0.0194388
-0.0212726
-0.0182845
-0.0185525
-0.0197987
-0.0181418
-0.020196
-0.0184017
-0.0175057
-0.0193488
-0.0206072
-0.0188506
-0.0172238
-0.0202899
-0.019789
-0.018702
-0.0209615
-0.0210461
-0.0230082
-0.0200259
-0.0199408
-0.021231
-0.0222046
-0.133159
-0.116108
-0.148524
-0.121073
-0.123474
-0.124684
-0.131976
-0.132466
-0.0877861
-0.0746903
-0.0974772
-0.0806615
-0.092363
-0.0879871
-0.0897588
-0.0932629
-0.17564
-0.109392
-0.164518
-0.128179
-0.162628
-0.171974
-0.161846
-0.167546
-0.079234
-0.0624029
-0.0793005
-0.0291965
-0.061912
-0.0830777
-0.047376
-0.0636354
-0.1193
-0.145182
-0.103818
-0.0848104
-0.11174
-0.125058
-0.0893517
-0.111654
-0.111616
-0.0851647
-0.0985303
-0.15218
-0.107245
-0.102714
-0.108853
-0.107263
-0.146605
-0.10451
-0.0828346
-0.0984373
-0.12192
-0.107516
-0.108416
-0.0935749
-0.15539
-0.113985
-0.0820042
-0.102284
-0.143622
-0.122386
-0.114586
-0.0895925
-0.072888
-0.130294
-0.0381406
-0.0659639
-0.0728547
-0.124156
-0.0972713
-0.0762309
-0.142817
-0.105454
-0.0659118
-0.0873569
-0.108834
-0.0880768
-0.0971695
-0.0807145
-0.0338533
-0.0456804
-0.0342426
-0.0350163
-0.030599
-0.0400456
-0.036225
-0.037558
-0.0348609
-0.0521607
-0.0299059
-0.024891
-0.0356315
-0.0430585
-0.0279762
-0.0320007
-0.0896581
-0.0368121
-0.0520835
-0.0596768
-0.0948413
-0.0658157
-0.0727293
-0.0723265
-0.0808993
-0.0780149
-0.0596793
-0.0524718
-0.0814855
-0.0769031
-0.0539148
-0.0498261
-0.0474176
-0.0448745
-0.0604443
-0.0390877
-0.0282218
-0.0460104
-0.0341739
-0.0416926
-0.0493536
-0.0404759
-0.0565504
-0.0554093
-0.0505603
-0.0421255
-0.0565252
-0.0456863
-0.0342391
-0.0543179
-0.0551609
-0.0581034
-0.0503722
-0.0551193
-0.0560488
-0.0585039
-0.0592308
-0.0564956
-0.0745253
-0.0606302
-0.0609881
-0.064666
-0.0653118
-0.068359
-0.0902697
-0.10452
-0.130012
-0.114879
-0.104413
-0.110774
-0.116225
-0.117164
-0.0745185
-0.065726
-0.0913911
-0.0739028
-0.0749509
-0.0758007
-0.0803276
-0.0825463
-0.062362
-0.0809697
-0.0720888
-0.0657078
-0.0684829
-0.0681897
-0.066862
-0.0750481
-0.0658895
-0.0667487
-0.0851881
-0.0847743
-0.0701199
-0.0674184
-0.0744557
-0.0821313
-0.0875361
-0.0776669
-0.0687718
-0.0987072
-0.0797709
-0.0801558
-0.0902239
-0.07452
-0.089203
-0.101637
-0.0700248
-0.0880635
-0.0916791
-0.0932623
-0.089129
-0.0826577
-0.113113
-0.0993936
-0.0900119
-0.0908989
-0.112974
-0.106316
-0.0978897
-0.0934532
-0.0741306
-0.0551511
-0.0574739
-0.0533759
-0.0662171
-0.0622889
-0.0611256
-0.0559268
-0.052377
-0.0492965
-0.0281453
-0.0277903
-0.0509739
-0.0498221
-0.0332306
-0.0335976
-0.0526373
-0.0441199
-0.0261505
-0.0274391
-0.0475089
-0.0450744
-0.0349623
-0.0336744
-0.0876195
-0.0871597
-0.0865397
-0.0623243
-0.0784351
-0.0867717
-0.0684118
-0.0776999
-0.0812388
-0.0590204
-0.0621576
-0.0811557
-0.070746
-0.0659295
-0.0718733
-0.0640744
-0.0649989
-0.0601302
-0.0531865
-0.035027
-0.0490246
-0.0548671
-0.049314
-0.0481416
-0.0618421
-0.0340112
-0.0498752
-0.0528459
-0.0519036
-0.0465369
-0.0552684
-0.0453685
-0.013752
-0.0386016
-0.037234
-0.0311449
-0.0287114
-0.0350012
-0.0317822
-0.0383398
-0.0830425
-0.1501
-0.0846198
-0.0823512
-0.108303
-0.0937905
-0.083759
-0.0836443
-0.0492546
-0.0609037
-0.0486091
-0.0490859
-0.0581745
-0.0571595
-0.0521312
-0.0525706
-0.0428043
-0.0642161
-0.0488455
-0.0483673
-0.0516771
-0.0560198
-0.0498967
-0.0532312
-0.0522345
-0.0503772
-0.0418348
-0.0737799
-0.0514448
-0.0456771
-0.0553992
-0.0457621
-0.0635023
-0.0769829
-0.0737735
-0.0474652
-0.0699464
-0.0790826
-0.0645208
-0.079208
-0.0455082
-0.0415181
-0.0665435
-0.0506533
-0.0471684
-0.0512001
-0.054035
-0.0561468
-0.0538647
-0.052681
-0.070835
-0.0702522
-0.0594283
-0.0572934
-0.068149
-0.0650032
-0.0140835
-0.040701
-0.0412186
-0.0299823
-0.0213862
-0.034158
-0.0275806
-0.0389815
-0.0521844
-0.0530631
-0.0654626
-0.0547243
-0.0482836
-0.0517985
-0.0559362
-0.0527023
-0.0878129
-0.0904929
-0.130746
-0.0982581
-0.0805246
-0.0924832
-0.0991586
-0.102926
-0.0474541
-0.0590072
-0.0763469
-0.0624705
-0.0507719
-0.0589786
-0.060225
-0.0632114
-0.0427374
-0.0482464
-0.0373842
-0.0525108
-0.0519756
-0.0501136
-0.0498495
-0.0503622
-0.0529916
-0.0563978
-0.0664661
-0.0636731
-0.0582793
-0.0592656
-0.0738707
-0.0646722
-0.0565471
-0.045298
-0.0600014
-0.0767018
-0.0615907
-0.0566581
-0.0622054
-0.0601083
-0.0715139
-0.0761533
-0.0582615
-0.0703757
-0.0690968
-0.0691391
-0.0720546
-0.0691389
0.0113441
-0.000572441
0.00828248
0.00990537
0.00829519
0.00488096
0.00953764
0.00630343
-0.013453
-0.023098
-0.0127826
-0.021968
-0.0181596
-0.0181645
-0.0170581
-0.0174198
0.00632501
-0.00271283
0.00411762
0.00507584
0.00404308
0.00172796
0.00507474
0.00285265
0.00183652
-0.0193499
0.000475802
-0.0123339
-0.00748416
-0.00878711
-0.00534173
-0.00729485
-0.00533001
0.00579399
0.00327435
-0.0145899
-0.00372245
0.00324236
-0.00780418
0.000188269
-0.00705014
-0.0146141
-0.00719858
0.00294426
-0.00580406
-0.0102673
-0.00156071
-0.00554836
0.00678655
0.00530222
-0.0130525
0.00385128
0.00717351
0.00180761
0.00195197
-0.00379947
0.00432302
0.000643193
-0.013625
-0.0061106
0.00170674
-0.000789979
-0.00419663
-0.00775426
-0.0875854
-0.0728455
-0.0650083
-0.077482
-0.0798946
-0.0765364
-0.0792021
-0.0723262
-0.0585607
-0.0518595
-0.0412996
-0.0448496
-0.0608347
-0.0573634
-0.0502917
-0.0476057
-0.044628
-0.0342136
-0.0290465
-0.0341897
-0.0361545
-0.0339152
-0.0344193
-0.0317723
-0.0588249
-0.0449823
-0.0396512
-0.0428148
-0.0600374
-0.0492347
-0.048952
-0.0443913
-0.0792423
-0.0613799
-0.0783394
-0.0580986
-0.0618966
-0.0689696
-0.0599386
-0.0640437
-0.0644861
-0.0482686
-0.0422634
-0.0555198
-0.0587903
-0.0498187
-0.0490157
-0.0441238
-0.0560174
-0.0608445
-0.0470184
-0.0408428
-0.0497909
-0.0596748
-0.0451931
-0.0498408
-0.050562
-0.0377379
-0.0424099
-0.0384886
-0.0416268
-0.0419735
-0.0411405
-0.0393369
-0.0280844
-0.0294186
-0.0413986
-0.0334177
-0.0288693
-0.0330162
-0.0333842
-0.0354514
-0.030635
-0.0374676
-0.0552806
-0.0406145
-0.0303117
-0.0368415
-0.0414601
-0.0424529
-0.0648154
-0.0756234
-0.094033
-0.0795235
-0.0670572
-0.080361
-0.0822102
-0.0858491
-0.0388004
-0.0458839
-0.0594174
-0.043311
-0.0416253
-0.0485038
-0.0487944
-0.0570473
-0.030545
-0.0426365
-0.0352551
-0.0395883
-0.0367787
-0.0381431
-0.0379775
-0.0404439
-0.0349936
-0.0448312
-0.0581776
-0.0504586
-0.0406031
-0.0429881
-0.0468159
-0.0489085
-0.0531484
-0.0405627
-0.0469503
-0.0654215
-0.0479022
-0.0461259
-0.0523053
-0.0479795
-0.0599413
-0.0735892
-0.0519112
-0.0621935
-0.0617832
-0.0594959
-0.0591289
-0.054935
-0.125618
-0.121729
-0.109831
-0.0787416
-0.0977322
-0.0959752
-0.102791
-0.0874627
-0.13282
-0.154329
-0.12473
-0.083434
-0.109301
-0.121104
-0.101944
-0.10187
-0.111814
-0.111678
-0.111929
-0.0728688
-0.0903016
-0.0903456
-0.0870832
-0.0842095
-0.0587973
-0.0629187
-0.0609419
-0.0431579
-0.0531085
-0.0667835
-0.0386512
-0.051219
-0.105404
-0.0902807
-0.0597723
-0.0588689
-0.0991154
-0.0871298
-0.0826931
-0.0794993
-0.105486
-0.0808616
-0.0978955
-0.0909401
-0.0979761
-0.0891753
-0.114751
-0.0953474
-0.0933502
-0.0527592
-0.0575247
-0.0528666
-0.0800633
-0.0595747
-0.0564462
-0.0560451
-0.0870648
-0.0557182
-0.0557064
-0.092615
-0.083991
-0.0782147
-0.0949825
-0.0812502
-0.10633
-0.0655457
-0.0701245
-0.0637311
-0.0921364
-0.0666117
-0.0863221
-0.0848133
-0.0454868
-0.0342124
-0.0332397
-0.0353883
-0.044684
-0.0272832
-0.0427594
-0.0385166
-0.0528053
-0.0337255
-0.0323349
-0.0369958
-0.0429213
-0.0254469
-0.0366653
-0.0375688
-0.0464119
-0.0347447
-0.041698
-0.0383321
-0.0491456
-0.0438975
-0.0460094
-0.0449824
-0.0597733
-0.0708847
-0.0627719
-0.0452342
-0.0549729
-0.059287
-0.0452214
-0.0620192
-0.038317
-0.040473
-0.0261726
-0.0410599
-0.0547936
-0.0366967
-0.0467938
-0.0432545
-0.0553254
-0.0553154
-0.0378153
-0.0424588
-0.0428534
-0.0580181
-0.0524909
-0.0438603
-0.0705132
-0.0442452
-0.0389564
-0.0390359
-0.0413745
-0.0429897
-0.0406684
-0.0374795
-0.0464304
-0.0457575
-0.038835
-0.0463937
-0.0467879
-0.0440985
-0.044793
-0.0424712
-0.0448004
-0.0469096
-0.0395395
-0.047532
-0.0456107
-0.0431796
-0.0444362
-0.0421379
-0.0331131
-0.0333686
-0.0282749
-0.0293617
-0.0341275
-0.031831
-0.0307527
-0.0309374
-0.040692
-0.0391862
-0.0298319
-0.0287701
-0.0357778
-0.0355104
-0.0326823
-0.0303613
-0.0455377
-0.0397922
-0.0461206
-0.0467079
-0.0438455
-0.0418892
-0.0479889
-0.0444823
-0.042901
-0.0437945
-0.0369211
-0.0372632
-0.0406191
-0.0426047
-0.0376421
-0.0392118
-0.0385315
-0.0424059
-0.0424873
-0.0332133
-0.0383758
-0.0409196
-0.0374099
-0.0405003
-0.0369992
-0.031669
-0.0385181
-0.0364217
-0.0355849
-0.0362537
-0.03742
-0.0371759
-0.134044
-0.0790597
-0.0726062
-0.0852658
-0.0917397
-0.0854152
-0.0886959
-0.0749213
-0.0567125
-0.043292
-0.0376734
-0.0412262
-0.048422
-0.0477619
-0.0445437
-0.0394126
-0.0376427
-0.026527
-0.0136629
-0.0274025
-0.028539
-0.0264913
-0.0253046
-0.0192171
-0.0534925
-0.0383844
-0.0372269
-0.0356344
-0.0425465
-0.0416667
-0.0382011
-0.0343076
-0.067981
-0.0573694
-0.0642223
-0.0444315
-0.0633863
-0.0706057
-0.0602842
-0.0601387
-0.0630391
-0.0429375
-0.0414791
-0.0551792
-0.0505738
-0.0491823
-0.0551244
-0.0398027
-0.051716
-0.0576384
-0.0432498
-0.0370286
-0.0495189
-0.0486147
-0.0377111
-0.0485158
-0.039719
-0.0308744
-0.0381805
-0.0319713
-0.0428547
-0.0366162
-0.0388404
-0.0356127
-0.0944372
-0.0726437
-0.0601404
-0.0698029
-0.0831398
-0.0796894
-0.0792289
-0.0690297
-0.0478581
-0.0286342
-0.0254576
-0.0289735
-0.01953
-0.0261048
-0.0287795
-0.0218378
-0.0357385
-0.0260226
-0.0255608
-0.0258101
-0.0323794
-0.0288919
-0.0301092
-0.0255201
-0.0422756
-0.0319263
-0.0250161
-0.0242025
-0.019076
-0.0259494
-0.0276857
-0.0212438
-0.0458354
-0.0479785
-0.0422443
-0.0213833
-0.0478928
-0.0610202
-0.0443135
-0.0495053
-0.0491963
-0.0272747
-0.0288203
-0.0421823
-0.0360815
-0.0413371
-0.037529
-0.0334264
-0.0440069
-0.0463581
-0.0325734
-0.0302921
-0.0400874
-0.0391816
-0.0322497
-0.040811
-0.0328365
-0.0238497
-0.0226793
-0.0242252
-0.0388721
-0.0281051
-0.0297467
-0.0248204
-0.0270549
-0.0330141
-0.042187
-0.0289169
-0.0275372
-0.0333024
-0.0327972
-0.0362174
-0.0407034
-0.048559
-0.0599888
-0.0464625
-0.0424739
-0.0528549
-0.0483454
-0.0553315
-0.0661117
-0.0781991
-0.0939441
-0.07515
-0.0687873
-0.0804889
-0.0808734
-0.0878227
-0.0309576
-0.0394691
-0.0503968
-0.0364415
-0.0291283
-0.0388455
-0.034632
-0.0343723
-0.035795
-0.041247
-0.0279104
-0.0368212
-0.0397463
-0.0392279
-0.0360409
-0.03637
-0.0413463
-0.0466078
-0.0662456
-0.052903
-0.0432213
-0.0487928
-0.0493117
-0.0497339
-0.048681
-0.0359347
-0.0435121
-0.0522753
-0.0516243
-0.0397939
-0.0511096
-0.0443202
-0.0586096
-0.0576782
-0.0478445
-0.0808776
-0.064406
-0.0579608
-0.059532
-0.0545521
-0.134374
-0.152025
-0.121836
-0.120132
-0.147472
-0.141052
-0.132388
-0.135219
-0.149082
-0.147854
-0.114313
-0.119432
-0.136757
-0.157548
-0.127422
-0.130175
-0.0810869
-0.0836448
-0.0424417
-0.0751895
-0.0800683
-0.0717139
-0.0651369
-0.0611344
-0.102185
-0.107148
-0.0830888
-0.0769943
-0.093729
-0.0959491
-0.0826866
-0.0867691
-0.140119
-0.118588
-0.113526
-0.111817
-0.123443
-0.125268
-0.115742
-0.110869
-0.14126
-0.109741
-0.106753
-0.112314
-0.125494
-0.121096
-0.12326
-0.115531
-0.0990209
-0.0999334
-0.0985397
-0.0829489
-0.0980353
-0.100017
-0.0961495
-0.099195
-0.0952344
-0.0835531
-0.102785
-0.0939722
-0.0909269
-0.089613
-0.0953706
-0.106144
-0.105136
-0.100396
-0.0904134
-0.0977374
-0.114878
-0.103849
-0.0971134
-0.0967313
-0.109588
-0.120153
-0.0888776
-0.104301
-0.12129
-0.115433
-0.103298
-0.105676
-0.062777
-0.0584576
-0.0381597
-0.0511881
-0.0589673
-0.0523505
-0.0483053
-0.0467762
-0.0778448
-0.0774378
-0.0586171
-0.0563054
-0.0675493
-0.0708105
-0.0627974
-0.0648861
-0.10991
-0.080737
-0.0913025
-0.0964703
-0.0973112
-0.0920929
-0.101823
-0.0921234
-0.101602
-0.0915325
-0.0844886
-0.0789102
-0.0969717
-0.0972518
-0.0894417
-0.0890046
-0.0756426
-0.0810426
-0.0824405
-0.0584233
-0.0702962
-0.0802157
-0.0659339
-0.0752668
-0.0740055
-0.0601992
-0.084069
-0.0778718
-0.0691735
-0.0645899
-0.0771496
-0.0710007
-0.0132155
-0.0246077
-0.0371005
-0.0254648
-0.0183824
-0.0225846
-0.0302004
-0.0289962
-0.0340539
-0.0424875
-0.062615
-0.0612427
-0.044665
-0.0489181
-0.0648797
-0.04847
-0.0726854
-0.0922931
-0.127151
-0.0905358
-0.0922006
-0.0978736
-0.102253
-0.073925
-0.0374767
-0.0443402
-0.0543063
-0.0360735
-0.0385097
-0.042633
-0.042668
-0.046763
-0.0298715
-0.0437738
-0.0315145
-0.0505442
-0.04516
-0.0421685
-0.0360434
-0.0364865
-0.0337347
-0.058044
-0.0735152
-0.0512937
-0.0407817
-0.0616456
-0.0523831
-0.0671172
-0.0559809
-0.0421475
-0.0598463
-0.0631569
-0.0498772
-0.0434656
-0.0586252
-0.0515086
-0.0585579
-0.0769268
-0.065048
-0.0579638
-0.0802572
-0.0634612
-0.0862181
-0.0661929
0.0924238
0.0642306
0.0800328
0.0429731
0.0728094
0.0765243
0.0648543
0.0620054
0.0342807
-0.00269714
-0.0242679
0.00523929
0.00839972
-0.00130409
0.000306991
-0.0114975
0.026795
-0.038841
-0.0766422
-0.00328791
-0.0293197
-0.0295998
-0.0423138
-0.0356625
0.0185589
0.00234114
-0.000212167
0.00135168
0.00582602
0.00557956
0.00146509
0.00241161
0.035436
0.0351651
0.0275306
0.00618455
0.0280716
0.0257848
0.0202855
0.0295376
0.0362976
0.00774455
-0.0245341
0.0239412
0.0232179
0.00766809
0.0330585
-0.00312691
0.0191049
0.0226264
0.00279548
-0.002188
0.0247153
0.02493
0.00272245
0.000210447
0.00870776
-0.00118046
0.00522521
-0.0372274
-0.0123515
0.00214214
-0.0149274
-0.00345187
-0.00400508
-0.00879335
-0.00910467
-0.00875979
-0.00630838
-0.00811452
-0.00784393
-0.00906596
-0.0142036
-0.0192381
-0.017319
-0.0176436
-0.0163723
-0.0176553
-0.0168038
-0.0178007
-0.0131466
-0.0162901
-0.0158837
-0.0156488
-0.0146824
-0.0155558
-0.0149616
-0.0157398
-0.0140692
-0.0177117
-0.0164974
-0.0186994
-0.0162684
-0.0162468
-0.0165721
-0.017138
-0.0113726
-0.0114496
-0.011472
-0.0158175
-0.0125866
-0.0112043
-0.0135192
-0.012202
-0.0129542
-0.0161363
-0.0164476
-0.0123753
-0.0137577
-0.0153039
-0.0132934
-0.0152833
-0.0123287
-0.0126246
-0.0162486
-0.0154687
-0.0129143
-0.0134794
-0.0151561
-0.0150872
-0.0131969
-0.0160056
-0.0167894
-0.0162925
-0.0148846
-0.0155744
-0.015603
-0.0162354
-0.0358832
-0.0304609
-0.0329965
-0.0363535
-0.037794
-0.034811
-0.040053
-0.0355279
-0.0256288
-0.0206987
-0.022405
-0.0231487
-0.024251
-0.0235082
-0.0235875
-0.0231588
-0.0297901
-0.0239285
-0.0246148
-0.0291056
-0.029156
-0.0252967
-0.0291356
-0.0262011
-0.0343591
-0.0279994
-0.0331756
-0.0343895
-0.034878
-0.0320793
-0.0349288
-0.0336506
-0.0303347
-0.0331677
-0.0380321
-0.0282321
-0.030032
-0.0321334
-0.0291812
-0.0330368
-0.02889
-0.0261884
-0.0247224
-0.0301322
-0.0286849
-0.0251307
-0.0268526
-0.0262646
-0.0348542
-0.0391682
-0.0288248