/*--------------------------------*- C++ -*----------------------------------*\
| =========                 |                                                 |
| \\      /  F ield         | OpenFOAM: The Open Source CFD Toolbox           |
|  \\    /   O peration     | Version:  2412                                  |
|   \\  /    A nd           | Website:  www.openfoam.com                      |
|    \\/     M anipulation  |                                                 |
\*---------------------------------------------------------------------------*/
FoamFile
{
    version     2.0;
    format      ascii;
    arch        "LSB;label=32;scalar=64";
    class       volScalarField;
    location    "1000";
    object      k;
}
// * * * * * * * * * * * * * * * * * * * * * * * * * * * * * * * * * * * * * //

dimensions      [0 2 -2 0 0 0 0];

internalField   nonuniform List<scalar> 
65206
(
1183.4
34.4195
85.5321
250.925
88.0423
64.398
206.063
211.442
874.236
204.779
37.8729
134.29
167.969
163.161
138.288
197.751
162.913
157.338
160.533
193.891
271.332
174.67
237.938
579.749
202.247
190.279
205.869
286.323
361.583
180.727
206.551
265.859
119.66
170.289
85.6634
479.65
302.723
706.691
128.344
139.019
567.254
575.898
167.37
10.7973
365.203
361.98
60.5414
260.256
362.582
503.427
313.623
286.633
615.513
560.162
245.484
578.082
270.555
208.642
246.711
245.56
222.002
439.917
212.748
266.517
192.379
240.543
264.335
276.601
251.859
208.433
243.5
578.917
481.605
224.743
274.697
617.374
276.8
254.814
210.994
3813.92
220.007
230.313
299.026
198.578
238.456
2506.31
109.323
2318.87
208.387
247.333
241.251
218.552
630.501
306.9
693.09
123.001
321.039
274.819
441.805
229.573
243.321
457.039
423.472
702.114
511.045
25.7438
39.802
692.92
733.389
285.927
270.76
158.314
175.722
188.835
90.5955
534.748
543.227
155.836
122.33
355.293
123.244
275.602
163.526
249.194
216.657
349.61
215.696
4814.08
731.736
226.969
37.658
174.982
40.533
117.781
629.602
129.529
1506.65
252.288
134.783
205.781
226.708
264.702
288.1
150.663
76.628
161.027
201.793
203.614
221.764
98.5723
265.164
255.547
100.871
170.092
68.4383
4.49412
295.04
117.484
128.215
326.312
279.783
140.649
143.748
68.4191
163.653
243.401
330.565
675.943
163.932
75.6125
677.034
2794.79
48.5093
266.685
160.177
2298.2
200.03
277.37
127.305
180.63
95.5273
145.836
263.431
439.51
208.104
261.529
173.72
372.446
143.536
518.963
178.362
301.874
268.71
78.0031
537.141
253.25
257.213
129.612
261.365
220.934
146.558
118.13
182.811
136.312
123.764
196.424
589.32
33.4927
229.286
155.371
207.336
432.201
19.471
384.125
217.752
216.528
710.875
173.526
31.9269
285.88
158.599
186.172
262.767
245.457
257.094
365.492
158.841
248.336
516.435
257.829
217.92
245.449
489.597
4.72501
370.865
202.918
401.477
479.911
169.082
282.678
733.271
1395.9
163.957
161.977
173.232
63.2394
271.49
689.506
475.764
85.5652
461.863
624.189
282.617
1020.04
99.3023
266.788
106.444
5.938
6882.39
1979.01
1469.56
188.983
1828.22
519.387
541.591
694.887
14.0699
10.3597
100.562
290.659
132.973
329.839
50.8111
153.584
213.752
123.834
228.219
573.408
157.772
263.93
1096.96
126.348
319.845
4155.07
134.134
177.52
2037.21
326.826
134.103
183.572
781.75
215.313
862.809
518.713
234.618
506.999
254.116
473.247
744.64
248.281
252.031
278.381
272.932
257.998
549.503
233.929
391.603
379.019
95.74
265.853
102.972
763.737
583.049
157.556
1295.36
521.23
174.804
36.1962
415.876
456.094
394.368
662.724
501.179
2687.18
740.638
235.232
370.28
523.651
483.254
56.9991
1765.89
370.07
194.385
14.6566
241.57
420.165
730.08
527.511
1106.05
67.1546
8.53611
508.294
699.948
285.649
164.334
279.035
244.201
538.043
5.28419
270.154
79.8616
909.56
250.501
117.635
879.701
2413.25
67.4346
299.589
3.64065
37.8687
313.256
110.348
254.793
800.122
199.644
2289.02
253.621
2636.64
139.336
79.9438
148.231
6116.8
786.46
1690.28
526.759
720.455
2007.98
360.616
511.239
136.238
19.1155
420.271
1604.33
817.307
1803.18
237.835
1756.8
304.214
470.577
335.73
1353.79
1004.66
6.7046
39.4687
950.176
146.421
143.449
378.322
135.004
65.4494
318.338
66.5452
1726.41
272.26
66.3871
585.394
322.158
2120.33
244.771
246.299
86.3126
64.9297
616.222
1183.98
489.8
664.341
583.997
906.641
1149
508.514
2279.84
1215.02
57.9482
129.173
55.5806
181.55
39.6852
63.84
474.96
185.763
362.13
1118
94.1767
122.724
23.3348
260.726
198.358
666.999
1529.48
137.103
3342.38
1099.53
174.139
484.438
1030.66
99.3597
122.899
493.864
465.84
158.557
32.6261
83.0684
529.251
2287.61
1863.65
1840.17
498.262
176.317
4315.24
36.9388
2462.78
569.748
264.642
136.064
549.067
1028.07
19.3728
316.502
590.705
505.012
120.828
67.7307
226.03
2096.54
502.733
432.579
8779.82
217.307
478.963
6.67198
573.41
1299.93
25.6183
376.767
234.911
4603.87
23.3507
360.604
22.9396
299.785
515.246
508.416
466.47
168.455
802.136
422.085
449.249
316.391
242.106
123.433
1371.48
481.273
17.785
2524.9
40.004
512.637
231.09
17.2603
412.683
18.3396
327.598
151.555
145.317
727.856
15.6525
21.9107
216.277
165.549
140.765
303.827
165.96
282.907
56.9397
200.503
440.451
355.553
94.5801
7611.47
38.6435
743.373
7.66252
496.277
250.364
582.327
201.3
639.578
1410.48
422.4
6112.26
7780.98
9.13118
137.495
26.5559
1400.47
1676.68
1422.97
8.62188
524.71
1718.24
495.127
1808.8
164.305
376.819
31.1648
22.5024
1270.81
6.71565
19.9422
17.9078
55.7258
572.824
380.501
243.545
759.124
176.704
136.416
159.901
175.445
338.812
84.9625
96.3383
941.986
1653.94
1143.76
333.243
11.8172
68.7347
42.7009
3096.56
216.459
2950.23
12.5496
119.956
230.285
1963.36
84.2935
94.3449
384.708
7604.73
51.0761
17.2173
7.49731
5.99338
2809.32
560.185
123.69
141.813
966.124
2555.8
67.3065
477.515
2536.06
23.6502
506.448
114.549
95.8067
524.212
273.504
1060.83
41.9503
437.812
4813.84
277.583
6221.26
204.041
22.0783
93.8336
135.064
642.548
114.176
469.447
819.289
65.6075
172.162
694.407
1252.62
140.769
415.18
1973.72
116.902
18.1924
47.0645
1046.64
31.2283
51.0311
116.061
195.812
6.2519
355.68
533.956
115.087
31.7091
249.561
9.04266
107.683
285.382
1700.98
130.778
461.038
1246.91
17.4535
26.069
121.963
230.587
1731.48
375.12
2.52712
287.1
649.044
342.887
514.926
425.41
121.028
1536.11
221.333
32.8052
3.92421
819.356
2085.1
11093.3
84.5014
243.179
7.64565
288.729
232.059
206.104
382.978
482.683
269.463
249.347
538.699
96.77
19.7033
808.128
163.796
1845.02
168.205
106.803
196.052
1265.76
4318.48
363.577
89.3711
1943.25
1667.09
120.495
282.47
429.404
105.328
173.813
232.403
302.536
18.1102
464.403
50.5721
414.076
1440.45
260.853
3.50917
86.5936
21.2146
500.971
580.345
185.28
684.281
70.3009
125.317
601.383
1756.22
2.67037
638.202
112.923
25.7154
700.421
247.098
170.236
923.477
2193.55
45.7839
34.3645
689.429
769.411
1705.89
1693
670.779
67.3983
251.952
195.476
580.117
175.008
89.2397
583.761
310.081
231.991
277.236
15.4694
311.864
66.2762
203.259
8.45989
908.496
1002.42
1264.6
532.534
122.015
16.2193
705.731
102.754
387.959
1040.78
433.544
447.927
36.8518
1054.09
1539.57
351.349
122.106
61.7071
11.2788
756.551
113.544
1938.95
283.632
344.251
659.519
3995.19
811.817
204.744
243.929
122.641
2780.55
2330.18
2634.28
62.8382
114.145
3819.92
2003.31
3.19115
64.6837
537.849
14.9113
379.818
431.866
75.1654
2554.68
59.3575
19.2539
10153
375.404
454.011
4.57045
193.278
10602.1
306.861
547.279
157.36
1804.39
177.763
3.53302
15.6769
168.916
201.731
219.415
405.927
1245.08
223.951
248.951
122.029
424.681
28.3001
197.63
1055.73
168.066
4.07114
122.903
1050.77
67.4955
511.793
691.462
588.07
236.498
534.041
291.831
1219.22
48.6669
1265.64
2381.66
466.701
2796.26
2951.95
832.586
918.799
1084.93
4719.22
2158.95
9572.31
471.63
549.258
1860.39
226.507
675.204
161.804
44.881
3878.61
348.255
943.217
185.923
304.004
358.099
1328.23
22.391
2.36244
3407.54
3.47136
161.469
132.618
85.8354
5.67839
231.774
9.35348
7919.43
139.371
912.283
2174.2
489.762
768.107
8.77835
325.257
169.723
644.89
6.0011
702.339
352.011
142.041
1383.21
239.168
2591.53
159.308
5.30336
1317.56
264.207
813.742
117.709
647.191
172.82
3.46068
311.134
358.522
25.0426
200.303
691.999
115.666
500.982
2742.75
104.023
19.6714
97.4816
59.3654
7470.75
1527.97
3137.03
974.11
171.245
180.228
181.325
473.918
606.278
48.9591
5.02012
94.3558
672.763
5.66125
42.3904
21.8421
4710.98
256.072
24.7979
56.8398
67.6369
706.169
2206.07
504.119
332.247
1140.54
100.211
27.6557
184.856
141.905
325.773
239.354
41.231
105.254
433.485
305.418
386.802
25.2691
73.2778
65.0877
435.222
720.177
126.609
299.987
935.605
284.016
218.304
25.3995
123.052
32.4558
1070.32
254.962
219.71
167.488
51.3996
71.6992
185.873
311.245
174.894
173.77
434.125
1550.89
80.293
73.9831
2007.14
376.059
565.476
367.946
397.647
656.424
1050.47
1060.22
494.154
990.494
59.4401
218.076
47.5482
79.2805
2719.65
733.535
2688.45
426.866
1091.19
516.714
2144.84
3453.32
157.492
417.57
762.89
6749.73
2357.84
240.811
473.65
458.486
2161.22
1019.97
2001.41
151.568
257.484
153.663
295.583
375.124
1599.67
322.307
361.947
349.132
261.448
215.568
279.508
134.044
518.939
488.869
305.702
1647.82
352.516
445.463
238.576
450.833
409.121
742.056
532.822
155.453
468.607
54.6898
485.223
638.592
450.425
472.179
1155.28
1218.16
218.66
259.373
101.022
164.926
167.354
63.9274
107.313
654.254
102.967
696.254
216.722
96.7475
122.615
547.817
2455.85
171.009
211.967
233.549
342.322
653.803
525.721
171.244
70.8848
222.169
494.892
319.066
175.879
236.385
350.843
1848.91
406.575
108.155
449.454
229.111
188.296
164.727
271.748
195.921
203.048
265.75
176.147
199.587
292.618
307.239
180.613
208.821
412.399
1227.94
161.775
255.999
3604.56
205.112
218.614
192.69
310.713
178.167
70.6383
195.641
184.25
174.715
163.485
290.447
177.047
1427.57
126.34
202.649
220.926
646.282
214.874
166.03
140.469
188.389
161.846
177.711
247.632
165.083
207.273
177.885
217.201
239.169
136.511
466.891
178.186
123.767
173.269
723.174
360.015
200.543
164.415
559.708
307.528
187.027
140.212
140.088
96.7801
122.498
125.835
129.741
175.033
138.811
147.328
158.353
56.4543
147.883
100.324
1744.96
135.758
126.371
136.833
173.728
224.253
130.859
137.096
107.159
141.881
152.347
389.47
137.545
83.2689
1742.69
83.278
129.631
110.87
108.594
488.38
126.385
134.239
192.166
142.808
193.803
131.595
111.145
127.672
111.966
109.632
98.1047
137.091
113.38
143.572
112.372
268.595
92.8285
502.517
183.43
134.402
106.839
322.437
86.0647
136.008
93.0023
141.859
205.466
77.4312
135.688
92.2192
165.562
144.07
93.3176
176.914
71.0697
132.813
90.7686
3605.81
92.6298
108.419
131.756
184.83
5526.32
313.287
319.518
111.703
178.043
185.586
230.22
113.09
1113.27
1171.14
365.236
384.888
216.047
191.303
131.568
1026.06
872.285
2972.7
242.466
1572
70.1781
963.089
156.861
96.8971
316.68
466.118
126.62
219.274
154.754
392.315
199.226
326.837
344.084
348.743
132.614
286.888
268.264
171.034
149.978
5860.95
101.078
173.837
356.553
80.0639
93.4948
83.5455
341.533
27.6414
2993
163.287
85.3026
174.027
1081.98
4599.38
2064.84
388.485
1132.61
355.949
221.706
5115.9
8.6065
182.174
808.632
441.965
142.754
109.096
18.694
598.573
6222.3
559.17
39.7144
107.672
144.764
692.355
86.051
37.0832
267.017
6.45425
41.4652
153.467
403.773
158.586
125.012
47.8283
6600.94
124.566
265.207
75.6767
336.866
132.758
182.16
97.0639
290.809
393.974
146.014
116.834
67.3243
302.623
168.803
112.945
84.1347
265.347
27.8882
1095.83
64.063
126.315
141.778
267.701
33.8512
201.029
56.8951
101.564
60.0065
3674.94
1804.34
1527.57
22.9492
87.0108
146.05
29.6212
36.9674
231.533
1502.29
266.531
332.46
152.539
298.554
237.188
70.4644
52.9907
134.993
89.5724
72.0719
62.8513
58.3111
79.0596
64.1735
243.283
83.0855
137.877
116.527
143.373
51.7856
72.7549
177.44
107.282
134.42
101.236
76.0176
143.63
149.903
120.831
113.983
95.1372
3061.25
90.8911
337.141
137.827
237.322
563.216
68.115
66.4535
110.909
134.479
76.4229
66.6055
72.0927
90.3576
70.5583
2261.54
79.5565
79.8007
117.591
97.5272
96.9524
81.3061
88.6251
43.7055
210.213
79.5371
132.062
168.567
2121.49
105.028
65.6329
65.3327
325.623
145.956
103.138
73.808
63.6601
1252.51
69.3143
71.9136
61.4272
71.3369
83.1491
55.7215
75.6232
53.0634
58.3467
168.531
193.738
86.3011
71.9003
53.7175
165.909
434.801
54.7484
32.0974
59.9908
56.8693
83.2476
33.7401
149.384
49.5579
57.6351
52.7058
63.3055
54.9314
378.061
45.4797
31.5961
55.4584
50.4227
53.714
37.7595
42.8902
76.0827
92.8296
201.508
179.066
216.629
53.2017
42.7672
42.8963
40.5664
44.2376
36.9742
251.459
33.7933
30.5284
33.3671
40.9716
111.66
29.0008
31.3305
51.9439
13.4632
208.917
21.4508
18.8369
239.48
25.2779
76.3556
20.6861
66.1581
71.0176
8.59959
15.8649
15.989
14.4859
19.49
32.0826
15.4705
39.3185
12.5152
105.142
45.3598
25.0546
15.8542
11.6575
22.3922
12.691
14.227
1012.82
24.139
46.732
21.6605
24.9928
48.7277
237.2
23.8525
25.595
22.6886
27.5051
46.9293
133.268
21.3342
24.0731
11.6592
21.0702
98.0561
310.091
19.9398
42.5895
149.908
10.0182
34.8172
32.507
66.7812
11.7404
14.0237
85.2083
20.0273
19.9329
55.5389
23.1252
91.7274
54.7643
37.2679
55.6776
42.0098
63.6606
44.592
136.535
37.2058
99.4004
51.9628
258.628
762.07
82.4093
28.7277
73.525
151.044
92.3233
195.809
225.689
114.539
110.15
189.186
65.2493
87.9223
51.9699
41.328
92.7738
32.9319
51.7349
290.486
262.944
24.3272
354.148
100.089
329.625
23.7646
21.9378
202.501
24.7694
26.2369
223.037
95.9893
22.8713
21.3177
31.5614
23.5864
352.969
28.4922
89.4347
22.9325
22.9829
90.8041
28.9942
195.889
316.946
150.769
50.1437
30.3286
77.8121
24.0499
54.102
77.6248
182.791
102.648
25.7794
394.378
995.278
359.83
44.8827
23.8126
29.6794
491.411
474.16
35.9895
31.5645
31.4214
1014.32
26.3413
59.3472
1442.89
51.6879
27.4631
38.5602
117.468
70.2447
116.749
160.001
34.2969
57.4513
36.2838
186.241
47.9657
70.897
304.204
555.09
72.0747
1031.67
134.852
131.157
133.623
156.121
133.734
54.4164
158.367
453.708
252.656
806.781
267.866
77.8251
940.351
306.029
282.1
1564.34
3872.77
8141.34
629.627
3713.27
79.7342
813.053
266.628
148.36
95.7696
52.9838
81.8411
1873.46
125.878
84.4459
1003.08
535.298
2505.38
103.416
217.878
130.306
220.345
99.4072
6929.5
316.094
159.676
1012.37
201.103
212.769
248.047
318.354
368.926
201.824
272.105
472.843
281.892
92.8055
332.415
54.9313
66.1794
135.539
223.392
87.4405
116.429
119.553
191.352
39.9325
45.8938
371.874
71.391
350.299
343.203
80.4617
43.7518
298.766
49.8771
149.495
44.524
64.8228
11098.7
108.338
156.657
26.9912
290.608
161.414
334.585
109.982
41.813
33.3552
31.797
264.63
325.042
240.928
27.0751
33.5947
31.7252
166.08
35.4343
315.669
147.882
206.796
36.9523
42.5631
221.271
30.1208
28.2331
126.72
51.6171
42.8843
35.9239
36.7172
41.1973
40.7493
34.3444
81.9803
37.2159
37.1679
39.5497
36.8744
86.2119
43.5118
39.0453
111.236
64.4087
21.292
54.1705
36.1678
157.003
669.94
42.1856
527.449
45.7399
130.122
103.277
36.9487
155.065
164.154
88.033
99.2607
37.5576
82.8458
106.591
53.4891
456.873
76.6704
148.912
1333.69
129.926
28.3343
74.9514
97.3674
116.46
375.238
2490.97
39.2024
38.7726
188.32
42.7523
41.6428
52.2433
93.7168
929.651
140.138
625.749
18.3106
24.3178
1393.53
31.8398
30.2307
175.602
15.3246
17.2335
16.1161
33.4449
47.7584
32.9089
32.8087
44.3012
33.0817
36.9484
30.9601
33.3842
16.2691
37.0964
12.8915
321.005
36.2046
30.3648
95.2262
992.83
17.9269
17.9664
21.3065
25.0258
22.6977
453.641
29.2544
103.257
44.7859
17.9647
17.1651
43.6271
47.912
42.6163
1207.03
116.254
6955.07
112.571
74.5484
27.6273
254.142
18.3608
147.054
853.277
67.8899
60.6915
38.2984
25.8668
17.778
30.6605
15.3554
369.058
46.5484
1506.26
83.942
3946.95
38.764
156.384
1875.54
1751.64
108.584
121.466
3163.21
77.0491
125.768
531.131
218.134
14.8716
710.436
65.9284
123.856
136.999
218.625
88.0937
334.829
62.1403
1371.39
99.9546
242.077
46.9661
3833.3
147.798
157.931
1485.01
109.686
35.6307
41.9552
54.5133
386.112
149.775
61.845
125.814
2055
81.7335
120.535
14.6922
228.242
167.881
41.8575
286.564
776.606
1343.22
177.527
2157.32
2698.75
115.083
239.474
308.674
21.3993
9407.12
36.4425
44.9907
45.2742
178.235
44.7782
272.85
184.294
316.339
1974.96
2218.94
2885.04
1788.17
98.5605
669.139
157.124
138.207
197.277
183.053
199.229
209.279
700.045
343.419
638.521
555.036
56.3383
14.5382
5084.75
522.674
206.629
411.315
49.2577
175.044
145.258
1117.72
1207.7
935.915
643.174
1531.51
170.88
1367.6
2596.02
619.173
1533.07
158.555
2029.08
4217.92
1995.89
536.024
749.148
792.566
527.523
449.186
43.2198
52.2027
35.3426
58.415
39.3937
8854.15
337.028
630.822
11.9221
60.8914
193.871
619.391
2004.41
150.518
6486.79
3175.34
2836.43
48.6649
604.642
164.251
149.745
842.96
1819.45
157.216
389.13
112.623
866.547
378.011
113.194
517.73
264.246
205.126
281.854
816.538
961.734
691.574
1320.42
405.342
99.154
16.9627
57.7611
166.684
239.302
2616.73
37.734
53.6785
55.9929
173.746
158.575
90.2333
187.245
336.638
171.244
143.248
757.478
2073.07
746.118
1315.15
180.614
326.283
104.441
870.228
831.782
431.93
497.239
6248.76
529.029
7026.68
33410.3
3108.57
773.271
689.893
744.996
35.2749
31.0966
2398.41
1699.12
2760.28
1927.24
1678.52
1609.67
2189.87
1928.9
1328.47
800.722
955.354
901.428
1755.81
4510
2050.79
518.697
532.078
7699.26
1135.19
133.085
118.689
99.4019
187.617
995.785
88.3088
116.738
137.448
68.7367
224.673
274.047
727.634
275.432
496.605
373.579
1392.84
1306.47
1821.84
1920.24
2554.01
1.89263
138.341
22.5931
51.9844
35.5005
38.1137
25.7926
513.538
340.603
167.141
342.493
4.05704
224.928
71.6902
69.1142
2314.72
1476.46
1293.77
3607.59
664.757
235.36
236.7
63.2722
43.6441
1389.21
422.662
311.176
470.658
559.087
69.3139
2979.69
78.4901
627.707
24.7191
35.2968
30.1516
36.6182
44.1921
24.6046
4673.62
3703.26
2989.73
39.4107
43.8239
482.435
282.822
378.938
19.3257
1227.32
2170.41
1011.38
1379.56
1404.96
247.336
1245.95
551.346
538.527
326.928
918.502
3027.09
589.003
45.0614
82.834
1909.78
207.98
110.011
110.125
363.337
917.035
107.098
2011.77
24.5837
19.2218
30.4951
32.37
1954.82
2375.77
516.977
376.684
58.6914
1540.43
2365.16
723.636
188.716
292.01
1260.66
853.074
115.749
1498.22
1484
360.249
1143.26
301.68
173.529
2492.16
926.762
2240.9
33.0276
36.202
505.959
61.6214
60.7617
15.4404
19.2796
1089.74
163.664
1283.33
13.0044
22.8668
38.8165
12335.6
1739.78
2296.65
1336.22
6463.92
10.4841
293.053
107.565
14.1681
2447.65
439.454
2562.12
273.046
376.34
1383.89
1378.08
560.811
909.791
1433.38
1423.54
666.206
1049.59
460.54
1363.53
3465.31
3901.34
357.156
1165.21
94.8051
2914.2
361.839
1694.05
249.65
335.736
757.037
1364.48
226.073
683.546
280.594
405.508
114.76
37.9319
1290.78
3258.97
89.3362
5.38744
164.024
153.917
93.3878
41.0321
12.1831
30.0701
43.4983
15.5115
2467.6
28.6591
641.866
29.8306
258.722
508.811
470.988
245.465
127.3
103.574
224.048
328.092
197.184
94.7543
56.2878
75.4507
3084.33
1381.4
1960.33
4757.36
1922.32
289.482
459.114
270.679
2140.27
119.195
1009.44
2715.58
269.361
70.6656
463.521
2248.92
739.166
1107.32
9.3358
45.1147
26.896
23.3041
96.2534
25.9388
67.8266
63.9218
52.4198
61.1911
81.648
548.968
85.6835
134.54
147.077
111.85
718.971
816.378
919.841
166.979
161.21
337.51
370.05
82.9627
16.7954
20.298
12.2628
31.1193
3419.87
178.629
2293.17
569.407
163.274
1230.14
608.101
431.611
623.793
619.873
8.60598
74.0548
28.7515
437.11
778.648
767.33
22.5783
21.2998
96.8261
54.1237
29.04
36.6379
330.668
264.242
102.792
29.5681
901.857
95.6764
37.6734
40.613
62.8866
1540.64
3148.98
49.0078
10880.9
395.448
150.57
477.263
149.705
228.155
17.1511
1841.06
213.132
365.757
1749.65
1261.69
1896.54
300.875
78.7553
382.799
118.25
271.321
227.803
165.355
39.414
17.9461
58.6947
3184.38
1148.76
5331.1
2510
100.405
93.3186
71.1382
2132.8
210.479
215.808
2134.46
1211.92
207.967
36.5972
49.8796
95.6467
55.3491
18.5932
87.0179
53.9301
197.626
286.269
209.808
2353.32
1661.52
72.3195
58.9117
73.4039
45.7055
71.0457
2013.25
11.8006
202.609
145.333
134.619
375.398
602.077
583.364
437.877
386.879
1295.02
462.229
20.6437
803.877
931.811
854.123
1393.93
1106.31
2501.42
4286.12
140.037
90.7881
22.8403
15.3257
182.442
93.863
1066.33
232.96
78.1018
172.404
3515.32
3073.83
1089.01
5072.64
3259.03
87.3629
1823.4
1878.99
1288.2
1926.09
2062.89
368.679
28.3438
36.3209
55.416
103.959
225.125
31.7151
40.0469
278.453
280.721
160.119
39.9599
337.627
61.0245
20.6282
137.412
326.572
502.404
311.201
246.066
1755.49
30.1379
346.905
29.9566
366.933
1800.59
2698.2
20.1105
29.9694
41.3761
52.9355
36.2943
40.8094
18.7225
29.83
21.7181
35.1441
32.2595
20.4991
56.7125
23.2644
373.708
424.173
15.1258
13.4199
16.1
24080.6
31983
42.3686
76.2786
355.935
20181.2
553.072
581.531
872.082
637.446
270.397
902.68
616.447
1012.21
305.287
1093.54
4692.55
1321.13
1559.7
478.097
2028.65
37.085
1915.41
648.542
1147.73
321.244
1307.5
1478.66
4050.51
70.7638
188.032
43.1875
69.5704
2545.54
2610.99
3301.59
1379.7
433.863
533.275
1063.94
1259.14
16.7577
23454.4
1345.15
1282.78
116.792
83.1243
141.843
120.412
27.4809
143.343
452.895
17.0806
14318.4
47.185
198.69
254.236
556.672
17.6376
17.5701
89.1594
18.4964
84.1348
25.6116
32.1721
168.315
354.253
19.5641
22.039
59.5771
15.8777
374.112
1708.12
1893.78
95.2053
265.674
2050.29
163.176
907.825
676.088
3330.44
386.375
33.3535
105.952
69.0465
484.167
339.742
594.613
173.044
20.6984
48.0584
564.788
3583.08
2546.02
8543.11
4776.43
876.924
1892.97
188.285
146.982
16.1043
52.4973
13.5307
170.766
179.28
183.155
903.908
558.319
26.7344
41.7475
436.596
5428.07
910.248
35.3076
3153.26
498.502
727.679
609.671
1484.36
25.1521
691.781
56.0372
437.723
333.262
2572.29
35.9907
3491.71
15.5653
126.356
2132
42.5281
6.0988
26.0298
67.5712
214.608
368.964
674.339
444.538
2497.74
2882.8
369.774
2549.42
3480.6
376.057
202.931
1592.93
825.46
657.393
926.122
173.674
7.32685
64.0815
295.371
1086.86
852.35
3329.89
4202.33
2337.58
215.62
510.431
352.249
2624.44
116.259
149.384
117.949
107.32
178.373
261.336
483.35
2939.53
862.734
2458.53
8106.27
4363.89
1544.64
35.4645
36.6137
110.221
31.8936
40.5689
49.9583
25.927
28.7838
64.3783
18.9006
58.3951
94.6985
807.716
224.992
104.373
38.2566
29.9301
51.7898
107.617
49.4415
315.564
439.704
2385.8
297.403
282.858
320.02
4113.42
441.153
345.817
432.41
549.665
237.571
369.271
24.337
925.334
8.37159
46.1678
168.594
276.457
102.828
228.113
111.25
87.4753
278.774
356.177
5.71268
352.816
26.1495
449.894
258.538
235.292
4102.77
1114.97
897.138
863.776
3033.59
74.1425
116.851
20.9104
81.9309
45.3982
164.684
16.5648
255.122
395.818
346.565
202.999
1545.78
5007.17
1520.28
941.6
19.0627
24.0222
445.374
32.889
6932.43
300.313
21.6706
43.1947
1885.97
1237.87
43.745
93.9472
85.8444
105.892
22.0794
94.5754
324.05
47.4546
747.509
30.2455
518.401
111.306
338.601
221.077
261.012
343.631
188.864
145.92
54.3045
68.5586
28.3368
1043.2
20016.9
7277.46
3228.82
39.9204
59.8236
577.163
583.881
541.666
400.946
50.3835
35.463
452.671
220.52
2679.51
642.953
389.639
112.697
200.717
552.756
2533.7
2073.21
1910.62
504.54
46.2264
27.2675
231.065
257.486
115.632
206.721
359.64
156.46
273.798
269.951
30.5151
44.2841
37.0099
79.1272
62.1806
63.9197
46.5877
62.8356
42.2643
63.1049
89.1377
998.666
500.034
808.701
2684.43
287.769
2292.35
196.9
843.982
53.6766
30.1556
482.875
189.912
218.903
153.004
319.894
388.6
375.308
88.2267
13996.3
3526.5
214.787
764.376
363.564
364.898
814.486
1990.51
2569.5
769.233
11.6729
54.384
33.4387
88.2422
1719.07
2340.89
6474.38
6114.31
5545.67
3531.72
41.7477
211.884
267.937
2483.33
6974.08
64.4195
43.8529
37.547
51.0472
66.6956
110.069
419.704
2459.19
232.453
481.133
358.939
995.677
17.135
324.306
28.3245
1083.28
764.733
1522.65
435.894
453.983
298.195
57.6141
25.278
19.7077
58.3842
751.033
766.012
2541.1
639.83
49.3378
53.0137
4.11969
1452.49
58.1243
4026.6
276.19
357.944
1093.26
28.7498
797.35
163.579
108.929
239.669
6276.06
2083.72
38.5528
632.475
1804.61
596.125
202.407
9357.16
3031.58
2525.55
44.4234
8.71641
3.3172
97.0874
9.66872
38.4899
1.91737
1528.94
633.593
352.113
147.246
395.142
2208.45
922.194
5375.85
802.265
163.312
562.826
109.021
1193.21
188.999
234.705
550.534
753.347
113.696
480.009
225.106
208.263
189.53
1258.69
162.132
227.909
297.025
902.886
985.525
2549.99
1533.96
910.399
555.416
230.109
407.418
375.361
711.805
541.42
433.833
115.312
101.149
131.252
75.1231
237.72
8.22807
616.246
663.021
308.872
129.898
789.29
317.747
780.607
3.46603
61.1371
41.5702
294.541
133.592
628.275
7.32433
340.166
212.581
582.904
589.533
838.181
385.814
447.463
31.3997
17.4505
20.7052
6.69178
20.6638
23.6965
189.896
185
732.554
693.312
1671.96
3202.58
643.209
2247.49
459.738
2276.67
1518.7
6159.68
291.576
160.674
99.5885
624.394
1314.3
592.096
3016.13
2516.61
6.67722
1158.54
1621.46
139.56
115.999
120.434
100.26
685.071
83.612
26.653
217.438
56.5151
32.5999
111.46
587.862
1052.87
1087.74
54.6281
678.298
114.189
373.173
684.413
536.223
5.63571
77.6745
33.2297
27.6907
41.2957
98.3095
93.3676
326.84
159.063
330.767
38.7796
59.9225
241.352
184.288
11.3671
17.745
295.561
76.3808
280.507
82.8202
21.9584
204.08
166.979
78.7405
4659.06
491.503
78.8103
137.797
28.5954
53.4524
71.0926
204.04
72.7466
777.525
2494.92
2456.15
114.953
778.695
2415.89
40.2438
1884.27
6087.22
21.506
123.363
58.203
54.1187
160.059
758.24
201.027
2752.27
80.4092
284.759
27.1858
22873.3
1761.3
1037.04
624.504
660.573
456.971
23.4655
329.033
2120.14
231.057
893.561
924.972
339.156
230.743
2114.97
4382.7
1016.81
818.893
285.665
437.399
407.601
1565.82
2290.67
1190.72
2703.87
928.108
47.2567
5.67894
142.183
5661.73
8.06858
19.9182
318.411
25.8064
653.172
417.478
1829.52
8621.17
18.5542
1568.1
710.566
172.052
302.812
12705.1
70.8317
970.186
27.2058
11.6882
33.2675
110.409
113.944
943.847
38.3839
55.3123
35.1017
154.295
793.42
3664.03
34.975
185.853
2630.67
978.024
2333.73
1401.15
67.6683
66.1882
23.4695
1436.32
1856.14
3542.97
61.187
85.4224
94.6726
707.959
1011.82
449.458
1020.04
527.967
2918.01
2276.83
2948.79
887.084
725.487
507.538
2035.49
1174.38
668.685
666.075
168.633
208.219
131.519
2409.47
2526.28
480.943
20.2261
5894.23
244.798
362.111
480.274
190.335
796.21
92.1196
153.337
171.114
662.255
1130.87
14.4977
23.9882
27.9144
21.3349
1581.74
498.646
1334.34
1886.8
1548.3
1795.57
2232.96
1838.87
2114.75
1544.98
33.7769
147.248
60.7731
157.181
163.509
345.819
1047.18
183.107
433.379
17.9047
552.091
16.3994
25.7679
19.4863
118.315
950.211
435.078
255.386
191.256
19.7052
21.9838
20.1089
276.194
972.603
272.84
644.926
84.1651
21.6056
26.8381
20.032
38.4603
293.144
330.102
349.388
2808.27
221.47
611.308
249.069
56.8418
253.424
172.004
253.766
284.384
229.491
628.786
18.1883
1092.55
37.2274
21.3726
907.535
994.904
1644.96
3105.92
965.712
2774.78
1835
1740.01
2718.19
474.453
2869.63
3045.4
1001.07
4909.9
2384.71
4749.85
2556.45
37.979
42.7597
763.029
244.377
1516.22
652.978
285.971
2183.3
118.976
944.309
1603.74
488.218
1743.06
1183.41
562.12
1361.23
381.152
3395.79
2141.32
4108.2
2427.94
1867.51
777.883
1038.95
133.159
906.422
72.6744
1130.31
967.268
1707.17
23.508
20.4562
527.178
247.076
87.2908
357.365
48.5381
15689.7
472.681
2682.52
717.733
489.155
409.4
301.076
933.416
1024.54
537.039
49.643
73.5427
197.075
23.3255
205.589
247.937
9.62246
80.3987
73.1688
58.041
1166.87
67.2498
20.3617
1307.13
677.675
151.168
36.0326
16.6096
95.5808
82.4712
1946.59
55.6197
121.304
1169.37
236.913
189.05
227.279
13.5386
38.7636
12.2726
40.0813
26.1772
75.8069
101.838
249.616
646.952
78.4415
73.4126
277.02
937.024
355.195
209.114
37.0904
345.008
124.075
5.46224
145.718
754.478
297.252
489.378
325.062
41.6506
39.7313
382.062
14.8092
373.975
456.372
207.38
1608.83
1044.58
395.078
390.001
168.724
255.398
130.883
2232.81
2422.06
1671.51
4160.13
22.9402
1573.46
87.6104
83.2265
24.885
17.394
24.8678
117.91
309.973
1789.18
65.2042
162.662
83.521
90.7241
65.123
3.27717
1812.48
1366.09
2177.53
2321.45
2966.49
76.4623
1154.01
550.46
25.4079
98.4817
134.006
3344.15
1305.14
147.527
599.792
69.6787
14.5804
2191.54
3600.32
500.158
199.553
69.1735
3288.29
2036.28
1833.29
372.949
450.56
8.56186
5393.68
915.423
979.954
2353.48
12.3585
11.8769
11.8444
10.2364
3793.94
533.226
129.178
282.686
140.868
133.658
285.188
726.283
1550.29
3102.03
2677.76
304.679
89.765
2474.18
3313.24
1692.23
1942.16
848.048
723.99
388.372
515.268
375.59
94.9134
145.996
109.536
276.2
151.345
8088.68
338.434
56.8493
3413.24
949.647
1105.85
399.566
883.831
30.9979
21.3744
22.4153
48.2885
24.2201
490.062
5195.99
1525.05
3.45927
214.625
502.643
174.309
310.081
105.453
15.2168
35.786
138.077
103.134
2964.51
105.363
94.6523
56.2093
459.098
38.7404
104.461
45.9753
72.2013
85.7646
74.8587
36.5666
65.8383
7050.53
428.852
4787.17
4557.18
968.933
217.757
38.0787
36.1043
150.836
37.5423
5580.76
298.881
3124.59
76.4761
1480.42
4933.8
2661.82
270.381
68.9254
20.9669
111.422
22.5934
355.064
20.9456
9.95481
59.0438
110.117
207.393
779.958
25.2412
37.3819
20.916
3979.27
5.66064
104.537
200.707
523.834
648.148
188.375
3520.42
392.52
53.8303
32.3256
191.038
203.881
213.274
428.115
91.15
210.218
123.192
34.6234
2364.35
857.371
529.764
582.522
19.0289
1823.64
21.3215
22.9977
576.403
73.4348
110.044
18.8852
181.287
71.4072
128.602
41.4705
39.9484
159.157
552.974
119.745
114.667
66.6286
65.4078
95.8391
116.39
1345.55
312.163
287.149
87.722
497.962
501.759
217.315
57.3562
53.0651
75.4379
15.2402
357.202
54.968
332.603
262.471
950.7
266.047
1059.78
851.138
184.729
131.605
1836.58
231.604
25.7527
90.4894
16.1539
92.8728
30.4819
45.0292
3960.54
404.06
372.101
79.4199
49.6232
3811.63
50.6324
22.7391
42.9767
35.3152
11.616
52.3077
1996.6
43.2623
16.6299
321.913
61.8174
23.7592
17.9436
171.876
197.414
411.864
483.509
49.6026
126.1
77.4823
300.887
44.0551
17.239
26.0137
150.549
1437.2
1658.61
2800.84
138.97
35.1055
4.96156
16.5613
82.4527
132.553
714.524
189.253
505.02
50.4366
731.658
677.427
25.4664
164.505
92.7184
1393.48
2802.98
506.166
232.34
618.76
952.643
273.828
38.0473
89.3729
124.808
704.966
247.966
291.543
918.324
90.354
348.115
419.164
1762.42
14.4247
370.044
124.449
145.755
612.204
725.116
186.892
1525.87
2037.91
475.488
284.265
44.0053
49.8792
45.8638
474.27
3085.03
417.087
388.321
242.031
509.908
43.7956
391.734
25.8923
22.6711
216.696
488.282
947.2
2495.7
3828.29
894.17
2768.46
1884.88
2045.47
653.661
128.88
153.928
105.104
85.5674
134.899
887.019
237.175
745.98
1865.58
4068.59
418.687
100.002
97.2873
19.8591
19.2821
20.4756
278.161
1822.14
1236.53
2739.29
1452.24
535.968