/*--------------------------------*- C++ -*----------------------------------*\
| =========                 |                                                 |
| \\      /  F ield         | OpenFOAM: The Open Source CFD Toolbox           |
|  \\    /   O peration     | Version:  2412                                  |
|   \\  /    A nd           | Website:  www.openfoam.com                      |
|    \\/     M anipulation  |                                                 |
\*---------------------------------------------------------------------------*/
FoamFile
{
    version     2.0;
    format      ascii;
    arch        "LSB;label=32;scalar=64";
    class       volScalarField;
    location    "1000";
    object      nut;
}
// * * * * * * * * * * * * * * * * * * * * * * * * * * * * * * * * * * * * * //

dimensions      [0 2 -1 0 0 0 0];

internalField   nonuniform List<scalar> 
65206
(
0.00286468
4.35371e-05
0.000184287
0.00413825
0.000946453
0.00122357
4.4283e-05
0.00125226
0.000476042
0.00251294
0.00062296
0.00094794
0.000366539
2.30589e-05
0.000994248
3.68459e-05
0.000874534
0.000745599
0.000122568
0.00143976
0.00291841
0.000201014
0.00170033
0.0134354
0.00013181
0.00111652
0.00111932
0.00375321
0.0031536
0.000126433
0.00130259
0.00163222
0.00117787
0.000166586
0.000112884
0.00387109
0.00183661
0.000605315
0.000290701
0.00110063
0.0113209
0.0118267
0.00123125
1.32658e-06
0.00322816
0.00382627
0.00088186
0.00135488
0.000217505
0.00117676
0.00157252
0.00165305
0.00520856
0.0123367
0.00217624
0.0133248
0.00179503
0.000148049
0.00158285
0.00157878
0.0013371
0.000205973
0.00162865
0.00162581
0.000368371
0.000229718
0.00166449
0.00172967
0.00160233
0.000159002
0.00131039
0.0134327
0.00117221
0.0021608
0.00191261
0.00136447
0.00213151
0.000139968
0.00104769
0.00976228
0.00103155
0.00144622
0.00163925
0.000849889
6.1898e-05
0.0132429
0.000965831
0.0156189
0.000419563
0.0016064
0.000150155
0.00016784
0.00687331
0.00190344
0.00193119
0.000404292
0.00213285
0.000179521
0.00513863
0.000458053
0.000150601
0.00317081
0.00199358
0.00452125
0.00130402
4.97401e-05
9.0289e-05
0.00198048
0.00628413
0.00139852
0.00411769
0.00138396
1.98262e-05
0.00117133
0.000472487
0.00520989
0.00666246
0.000745326
0.000681033
0.000271741
1.71283e-05
0.000280747
9.96621e-05
0.00016628
0.000175356
0.00209509
0.00122171
0.00736037
0.0074737
0.000243042
0.000343378
0.00115742
6.46805e-06
3.21269e-05
0.00383565
0.00026911
0.00461171
0.00017185
0.000553445
0.00146213
0.000247855
0.00738196
0.00053829
0.000543167
0.00024353
0.00334509
0.00013852
0.00123954
0.00126257
0.000151815
0.00242067
0.00177675
0.00102256
0.000328876
0.000449801
3.23417e-06
0.00238928
7.97319e-05
0.000937865
0.00306988
0.000950217
0.000176493
0.00158517
0.0003346
0.00126563
0.00224128
0.000276749
0.0012714
0.000308956
0.000118483
0.00257601
0.0115101
7.05023e-05
0.00315853
0.00139637
0.00581452
0.00170583
0.000816726
0.00114805
0.00332161
0.000405927
0.0010234
0.000180767
0.00592819
0.00014102
0.00087455
0.000275983
0.00293809
0.000108559
0.00593017
0.000649119
0.00287071
0.00278945
0.000627181
0.00564953
0.00162095
0.00305838
0.000780067
0.00267641
0.00203088
0.000156235
0.00076735
0.00129501
9.08367e-05
0.000768511
0.00208155
0.00698934
0.000361516
0.00150541
0.00124338
0.001703
0.0012513
1.77498e-06
0.00338061
0.00097637
0.00172328
0.00133021
0.000110147
0.000652986
0.00267811
0.00050971
0.000949158
0.00014783
0.000208342
0.0021207
0.00248643
0.000267468
0.000156607
0.00667783
0.00235614
0.000877938
0.000691193
0.00632697
4.75443e-07
0.00313571
0.00084325
0.0045327
0.00469845
0.00130754
0.000176837
0.00536473
0.00716634
0.000170847
0.00104322
0.000112482
8.53008e-06
0.0015484
0.000143548
0.00305532
0.000163643
0.00269561
0.00147999
0.00172535
0.00731491
0.000583554
0.000200531
0.000445115
5.57089e-06
0.00589252
0.00047519
0.00512421
0.00151522
0.000973447
0.00396521
0.00644053
0.00161855
6.98532e-07
7.415e-07
0.000170204
0.0010517
0.00110252
3.06613e-05
6.94439e-05
0.000972692
0.0015842
0.000310577
0.00223228
0.00369908
0.00207776
0.000186681
0.00695797
0.000512956
0.00173331
0.00630894
5.44539e-05
0.00285836
0.00758296
0.000205129
0.000465668
0.00126544
0.00122425
0.00120934
0.000977625
0.00790726
0.00114102
0.00682377
0.000140134
0.00200764
0.00747958
0.00344091
0.000695612
4.62777e-05
0.00170024
0.00012061
0.00498406
5.119e-05
0.00257687
0.000258018
0.00039603
0.00070229
0.000797673
0.00208399
0.00287772
0.000525333
0.00857262
0.00653652
0.0027214
6.00596e-05
0.00562478
0.00996346
0.00249846
0.00108487
0.00063766
0.00196397
0.00261608
0.00162943
0.00890536
0.000315227
0.00871222
0.000526281
0.00213315
0.00151721
0.00282332
9.43129e-06
0.000465762
0.00102065
0.000350551
0.00409959
0.0100315
0.00130167
1.43528e-05
0.00727178
0.000360478
0.00556631
1.8255e-05
1.39594e-05
0.00209251
0.00729922
9.26816e-07
0.00717207
0.000984829
0.00947747
1.46893e-05
2.85619e-05
0.000167109
0.00438138
0.00102921
0.00280114
3.46576e-07
5.2017e-06
0.00287985
0.000148724
0.00610744
0.00747316
0.000137527
0.0039406
3.94737e-05
0.00469832
0.00106033
0.000678151
9.50743e-05
0.0104207
0.00515409
0.00251257
0.000115387
0.0076065
0.00194012
0.00046663
0.00590587
0.000137381
7.89352e-07
0.00211924
0.000368871
0.00285372
0.00545039
0.00172976
0.00463144
0.00169311
0.00104676
0.00186745
0.00102749
0.00100644
6.76241e-06
5.72148e-06
0.00966785
0.000179592
1.4306e-05
0.00545661
3.39532e-05
0.00020717
0.00123999
0.00140606
0.000483403
2.74177e-05
0.00137777
0.00320024
0.00444997
0.00123069
0.000888509
0.00187486
5.80706e-06
0.00140289
0.00462133
7.13868e-05
0.00900298
0.00609261
0.0077257
0.00887596
0.000176342
0.00985145
0.00219133
0.0105825
0.000568342
0.00078485
0.000137628
0.00127643
0.000113907
0.000143065
0.00101682
0.00103668
0.00344848
0.0102528
0.000166522
0.00121343
8.9791e-06
0.00286264
0.00130133
0.00532411
0.00540343
0.000403101
0.00651677
0.0100761
2.23427e-05
0.000476446
0.000971985
0.00105227
1.8456e-05
0.00884747
0.00884176
0.00074946
0.000231329
0.000630364
0.000340958
0.000630722
0.0018253
0.0057276
0.00952603
0.00102815
0.00905048
1.11773e-05
0.00256507
0.00891011
0.00468652
6.23625e-05
0.000139341
0.000199073
8.84876e-05
0.00799402
0.00139724
0.00789314
0.00028244
0.00149743
1.76602e-05
0.00950364
0.00122847
0.00269303
0.00999192
0.00702543
0.0076646
1.25228e-06
0.0040564
0.00196099
2.76716e-05
0.00115122
0.00229993
0.00594396
7.93935e-06
0.00443985
2.0266e-06
0.00168357
0.00800404
0.00105161
0.0011193
3.7388e-05
0.00945767
0.00230522
0.00208065
0.00188699
0.000950189
0.000133825
0.00507831
0.00205812
1.56787e-06
0.00134048
8.63567e-06
0.000496129
0.00290517
1.35488e-05
0.00432031
1.54551e-05
0.00188042
1.72723e-05
8.37488e-05
0.0038136
1.78796e-05
4.43298e-05
0.00232868
0.00173504
0.000974501
0.00088638
0.00396607
0.000420199
6.94394e-06
0.00479937
0.000862594
0.000713023
0.00214529
0.0169967
0.000119193
0.00273787
7.9176e-06
0.00180382
0.00223355
0.00897403
0.0054224
0.00189548
0.000621642
0.000273792
0.00183829
0.00837417
1.72697e-06
0.00186112
1.07192e-06
0.000739038
0.00397607
0.000111505
6.8235e-06
0.00774253
0.0087511
0.000209673
0.00399381
6.2011e-05
0.00501882
0.000627586
0.000198205
0.00868051
7.13144e-06
1.1157e-06
8.86021e-05
0.000332549
0.00591194
0.00836805
0.00193259
0.00240783
0.00151471
0.00235577
0.00359334
0.00240296
0.00212185
0.000152787
0.000411393
0.00421701
0.000239075
0.00177172
0.00192596
1.03822e-05
0.000778803
0.000573991
0.00144564
0.000458256
0.00107667
1.36942e-06
0.000516848
0.00338157
8.82128e-05
0.00125451
7.11966e-05
0.00637844
0.0094441
9.97798e-05
0.000210617
4.09928e-07
9.55824e-07
0.000530944
0.00812714
0.00102262
0.00300052
0.00705381
0.00250596
0.00124503
7.38007e-05
0.00616951
0.000277741
0.00841762
0.00106259
0.000120399
0.00115792
0.00404157
0.00281436
0.00012869
0.000347923
0.00225982
0.0018789
0.0085892
0.00369117
8.39903e-05
0.000330207
0.00107967
0.000957913
0.000196565
0.00529148
0.00406754
0.00124798
0.00253377
0.00226392
0.00176701
0.00101382
0.00317063
0.000270163
1.08875e-05
9.25112e-07
0.000434963
0.00430809
0.00054672
0.000255462
1.41142e-05
0.000217136
9.64919e-07
0.00922425
0.00824796
0.000148669
1.65568e-06
0.000187813
0.000179041
0.00130819
0.00346627
0.00115484
0.00122993
0.00371822
0.000108903
1.49499e-05
8.4331e-06
0.000876699
0.00220548
2.19503e-05
0.0040584
4.09083e-07
0.000225552
0.00481087
0.00249144
0.000351667
0.00599434
1.36203e-05
0.00368382
0.00121666
0.000329017
7.54928e-05
0.00140185
0.00516635
0.00485407
0.000476243
0.00103723
1.5935e-06
0.00457621
0.00227535
0.00262262
0.00165133
0.00181058
0.00283774
0.00221983
0.00305238
0.000284026
0.000119485
0.00716237
0.00130234
0.00874491
0.0023859
0.00153422
0.000318375
0.000430815
0.00790933
0.00222881
0.00132213
0.0169211
0.00556928
0.00118186
0.00106387
0.00551171
0.000249038
1.38894e-05
0.00236916
0.0026859
1.04931e-06
7.54981e-05
0.000874553
0.00118186
0.00412817
0.00114115
1.71789e-06
0.000721227
4.49334e-06
0.00917793
0.00795749
0.000410711
0.00661778
0.000124615
0.000479648
0.00533391
0.00138666
1.37963e-05
0.00428572
0.000533846
0.000410413
0.00402655
0.000189758
0.00114658
0.00551453
0.0067101
4.58567e-06
0.000303214
0.00830384
0.000285504
0.000159221
0.00109211
0.00010354
0.00100119
0.00345249
0.00058064
0.00201408
0.0014411
0.000121358
0.00309456
0.00138324
0.00261269
0.00239243
0.000233363
0.000202753
0.000111633
2.91547e-05
4.31126e-06
0.00763065
0.00199694
0.00158658
0.00155777
0.00192669
5.5955e-07
0.00224616
0.000282864
0.000126426
0.00026948
0.00674505
0.00226114
1.89879e-05
0.00226791
0.00213025
0.000472617
2.52286e-05
1.55146e-06
2.10932e-06
0.00703132
0.00103816
0.000970883
0.00417052
0.00110104
0.000168986
0.00499212
0.00614782
0.00295402
0.00381947
1.37078e-05
0.0015716
0.00558918
0.00473759
0.000127673
9.38713e-05
0.0106339
0.0020288
3.02134e-07
0.00110146
0.00151991
7.02849e-06
0.000376878
0.00208873
0.000284607
0.00477235
0.000443413
1.41076e-06
0.00648892
0.00177422
0.00215013
8.18328e-05
0.00178003
0.00840798
0.0010324
0.000111056
0.00140334
0.00113489
2.42912e-05
3.50103e-05
0.000147856
0.00172849
0.000195095
0.00141798
9.37343e-05
0.000778203
7.1137e-05
0.003513
0.00313167
0.00470509
3.21653e-06
0.00270894
0.00112924
0.00154318
6.90691e-07
0.000298186
0.000598863
0.000115902
0.00728997
0.000257782
0.00217975
0.0063484
0.00211083
0.00669815
0.000223885
5.11162e-05
0.00624251
0.00202726
0.00885176
0.00283119
0.00451277
0.012469
0.000735188
0.000437032
0.0103026
0.0022864
0.0105018
0.00706304
0.00246764
0.00924446
1.69035e-05
0.00114747
2.72198e-05
5.46418e-05
0.0116155
0.00402427
0.00328515
2.87749e-05
0.00411362
0.00842004
0.00384521
1.40637e-06
2.37535e-07
0.00253359
7.83965e-07
0.000735463
0.000756734
0.00118457
1.68269e-06
0.00178755
2.37292e-06
0.0106844
0.000890178
0.00124791
0.00233756
0.000923134
0.00017806
2.47361e-05
0.00298549
0.00225295
0.00317775
3.54224e-07
0.00325877
0.00489402
0.00333082
0.00660986
0.00175078
0.00452128
0.00115242
5.76929e-07
0.00170202
0.00135824
0.00114523
0.000318258
0.0028649
0.000435481
8.96487e-07
0.00369754
6.51553e-05
0.000111746
0.000180683
3.06083e-05
0.00200805
0.00790156
0.00471874
0.00115893
7.81956e-06
0.000566649
0.000565603
0.013152
0.00426415
0.0139396
0.000198357
0.00136542
3.48808e-05
3.56074e-05
0.00904894
0.00329558
0.000723899
1.91217e-06
0.000196075
0.00133419
7.50873e-07
0.000215599
9.00047e-06
0.0113457
0.00735693
7.13142e-05
0.000730403
0.00109401
0.00200979
0.000601607
0.00942051
0.00398398
0.0106472
0.00175994
0.000174701
0.00173922
0.000274698
0.00911947
0.00156147
0.000486346
2.62399e-05
0.00581204
0.000230433
3.99019e-05
0.000546959
5.47217e-06
0.000433815
0.000103177
0.00201843
0.000875085
0.00180847
0.00252696
0.00356681
0.001728
0.000306638
4.44341e-05
0.000136646
0.000202585
0.00185724
0.00131613
2.19946e-05
0.000334758
1.9689e-06
0.00154502
0.00177882
0.00146187
0.00273398
0.00506286
0.00833311
0.00101358
0.000195613
0.0034563
0.00312239
0.00106525
0.000759233
0.000351613
0.00292262
0.00040013
0.00847927
0.00598188
0.000409289
9.80341e-06
0.00116682
0.000382764
0.000237766
0.0135755
0.00663335
0.0138401
0.0089001
0.00755546
0.00106171
0.00188038
0.00591407
0.000307117
0.000947159
0.00136677
0.0196514
0.00850849
2.6387e-05
0.00135252
0.000137109
0.0013187
0.00694372
0.013001
0.00406399
0.00187373
0.000227982
7.18076e-05
0.00101028
0.00843932
0.00275115
0.00399759
0.00149557
0.00230628
0.00275967
0.00779306
0.000639453
0.006115
0.00546784
0.000606132
0.00760005
0.00313528
0.000183388
0.00134583
0.00519141
0.00351434
0.00617649
0.00475415
0.00133332
0.00396058
0.000360133
3.22816e-05
0.00764582
0.00601703
0.00635435
0.000637707
0.0001393
6.67279e-05
0.00190474
0.00107483
0.00111244
0.000359065
0.000738803
0.000770942
0.00765522
0.000547609
0.00623878
0.00128961
0.000407779
0.000970693
0.00525115
0.016409
0.00100281
0.000236711
0.00250889
0.00386486
0.00615431
0.00173458
0.000161443
0.000736321
0.00239607
0.00601266
0.00222971
0.00100241
0.00181038
0.00314157
0.00850525
0.000334
0.000988113
0.00570015
0.002082
0.000883096
0.0007375
0.0018456
0.000886088
0.00125228
0.00285997
0.000653069
0.0015311
0.00257264
0.00247246
0.00135166
7.65575e-05
0.00460465
0.0011912
0.00022454
0.000187281
0.00891272
0.0010348
5.76499e-05
6.14477e-05
0.00025379
0.000462497
8.56361e-06
5.79885e-05
4.36246e-05
0.000667547
0.00109816
0.000186019
0.00121199
0.00137965
0.000752822
0.000143342
7.82876e-05
0.00413265
0.00132483
0.000856408
0.000604153
3.7659e-05
4.43341e-05
4.02357e-05
0.00163944
4.90233e-05
0.000124534
0.00104902
0.00102466
0.00090406
0.000915456
0.00846361
0.000179872
0.00156778
0.0010961
0.0049656
0.00326186
0.00183379
0.000190244
0.00702622
0.000219239
0.00201052
0.00071648
8.05026e-05
0.0018651
0.000660855
0.000721532
4.94719e-05
0.0012492
0.000399739
0.000632089
0.000320001
0.000885216
0.000487697
0.000481264
0.000133942
5.85744e-05
0.000877607
5.44164e-05
4.68875e-05
0.00174424
0.000597916
0.00114742
0.000899633
0.00109453
0.00159714
0.00375754
9.07135e-05
0.000528635
0.00436569
0.000632588
5.21698e-05
6.55343e-05
0.000420517
0.000165123
0.00049084
5.1082e-05
0.000136543
0.00202247
0.0015581
0.000540657
6.34148e-05
5.63249e-05
6.77629e-05
0.00107532
0.000113318
0.000912823
6.46504e-05
0.000843546
6.55942e-05
0.00153084
0.000348577
0.00134704
0.00122839
0.00128789
4.36541e-05
0.00453953
0.000436734
0.00129475
0.000585106
0.00121518
0.00243199
0.000170442
0.00127894
8.40698e-05
0.00154544
0.00177932
6.00508e-05
0.000126879
0.000624881
0.00146959
3.35527e-05
0.00233055
7.73394e-05
6.3891e-05
0.000952614
0.00201115
0.0155113
0.0037334
0.00304335
0.00126191
0.000248196
5.74005e-05
0.00276879
0.000992906
0.00403487
0.00172736
0.0051822
0.00115513
0.00206823
0.00107063
0.000751421
0.00159897
0.00333295
0.0116076
0.00220782
0.00331472
0.000159085
0.00197605
0.00149422
9.92068e-05
1.86309e-05
0.00558323
0.000390365
0.00222242
0.00101555
0.0095414
0.00124827
0.00274715
0.00237232
0.00425973
0.000134559
4.5808e-05
0.000215111
0.000200175
0.00177424
0.0140473
0.000920281
5.09746e-05
0.00227845
0.00042257
0.000886446
0.000618467
0.00178437
0.0001471
0.00912371
0.00199141
0.00115543
0.00194317
0.0004624
0.00885169
0.00186611
0.00283303
0.00340309
0.00505114
0.00158011
0.00180053
9.61758e-07
0.00248604
0.00147181
0.00963071
0.000951303
0.000851736
1.94554e-06
0.00678691
0.0145939
0.00654494
0.000196465
0.00138853
0.00249043
4.46477e-05
0.00111433
1.67312e-06
0.00411719
1.68686e-06
0.000478229
0.00049274
0.006466
0.00205772
0.0021552
0.000546639
0.0170799
0.00145824
4.59839e-06
0.000497519
0.00322359
0.00142699
0.000154461
0.00110662
0.00426778
0.00411412
0.00192615
0.00156265
0.000728614
0.00345849
1.98825e-05
0.00129071
0.000715842
0.00350128
0.000415731
0.00260247
0.000116115
0.00133779
0.000980611
0.00105466
0.000206057
0.00130504
0.00102794
0.000961438
0.000102461
0.00169752
0.00868087
0.00133034
0.000360664
0.00059174
0.00260369
0.000446983
0.000165795
0.00331887
0.000292344
0.0047186
0.00345574
0.00159599
0.00236003
0.0032428
0.0007009
0.000894481
0.00115458
0.000199513
0.000585643
0.000534526
0.000146895
0.000694891
9.84174e-05
0.00388516
0.000173907
0.00220776
0.00150867
0.00114573
0.000863612
0.000747614
0.00203941
5.985e-05
0.00156034
0.00087571
0.000613811
0.00191534
0.00207097
0.00122542
0.00125285
7.75223e-05
0.00172046
0.000882487
0.00396431
0.000200005
0.00151131
0.00791797
0.00046084
0.000454369
0.00096995
0.00123799
0.000426002
0.000108323
5.7496e-05
0.000809554
0.000122739
0.00446417
6.60079e-05
0.00043436
8.39114e-05
8.71968e-05
0.000603865
5.61485e-05
9.79139e-05
0.000439332
0.000283982
5.47196e-05
0.000222448
0.0011635
0.00863842
4.34577e-05
0.000297917
5.60259e-05
0.000896478
0.000734611
0.000204769
0.000627006
0.0005243
0.00991652
0.00017143
0.000743848
0.000556642
0.000543399
0.000816591
0.000354996
0.000613354
0.000439731
0.000371725
0.00189744
0.00190031
5.81837e-05
0.000109619
0.000348867
0.00185754
0.00292588
0.00011806
0.000349499
0.000376291
6.73703e-05
0.000788518
0.000394327
0.00196112
0.000459615
0.000549626
0.00036136
0.000422203
0.000549493
0.00218086
9.36074e-05
0.0003995
0.000628967
0.000525896
5.40146e-05
7.88365e-05
0.000363404
9.47843e-05
0.00138117
0.000558187
0.000352612
0.000453951
0.00013563
0.000434621
0.00071297
0.000264017
7.385e-05
0.000307445
0.00247989
0.000299302
0.000373171
0.000293133
0.000430541
0.00085951
0.000118259
7.25799e-05
4.20365e-05
0.00011833
0.000313445
0.000223806
0.000297684
0.000485715
0.000425872
0.0001128
0.000152909
0.000517703
0.000832753
4.21073e-05
0.000212528
6.02129e-05
0.000160669
0.000140606
0.000545315
4.32704e-05
0.00044782
0.000162996
0.00111031
0.000409312
0.000126953
0.000121911
4.19934e-05
6.31783e-05
4.43771e-05
4.57484e-05
0.00875614
0.000125949
0.000768327
0.000301101
0.000299323
0.000534108
0.0045908
0.000349054
0.000387147
0.000356336
0.000496989
0.000431282
0.0011804
0.000305494
0.000356031
4.79317e-05
0.000244538
0.000108014
0.00076538
2.31716e-05
0.000516974
0.000529077
0.000127866
0.000413021
0.000116143
0.000765851
0.000140931
0.000163871
0.000797667
0.000193323
3.60367e-05
0.000463035
0.000283984
0.000681125
0.000676207
0.000498291
0.000795907
0.000153016
0.00057917
0.000499834
0.000583309
0.000341781
0.000289375
4.83568e-05
0.00340728
0.00836267
0.000646364
3.34292e-05
0.00066584
0.000509607
0.00127725
0.00287389
0.00361261
0.000178781
0.00104119
0.0025231
0.000706707
0.000446085
0.000846704
0.000153034
0.000817003
0.00053928
0.000364988
0.00400015
0.00282974
0.000349447
0.00180089
0.00153022
9.27742e-05
0.000352744
2.1128e-05
0.000430088
2.6396e-05
0.000226513
0.00185371
0.000928435
0.000195136
0.000185179
0.000374799
0.000277869
0.00140072
0.000331061
0.0010429
0.000418867
0.000200865
0.000123341
3.75732e-05
0.00112663
0.00307058
0.00251403
0.000615263
0.000318486
0.000120581
0.000222134
0.000800243
0.000134096
0.000854456
0.00156469
0.000365346
0.00112515
0.00889892
0.00433086
0.000743597
0.000209939
2.95857e-05
0.00539366
0.0072631
0.000595768
2.34363e-05
2.57645e-05
0.00838402
0.000359888
0.000105371
0.000363585
0.0001712
0.000379009
0.000548652
0.0017701
0.00077563
7.01211e-05
0.00214381
0.000282466
0.00101929
0.000248031
0.0029023
0.000818135
0.000533138
7.49639e-05
0.00059718
0.00014802
0.00833449
0.00123326
0.000210135
0.00101419
0.00107111
3.738e-06
1.19744e-05
0.000881193
0.00177848
8.4018e-05
0.0046363
4.00419e-05
0.00100172
7.54328e-05
0.00101545
0.00483357
0.00149544
0.0105773
0.00105621
0.00180395
0.00989952
0.000367639
0.00180047
0.00348349
0.00192296
0.00120562
0.000172776
0.00120317
0.000309484
0.00116903
0.000993061
0.00845686
0.00076067
0.00331022
9.61565e-05
0.00311808
0.000177546
0.000910808
0.000924595
0.00156573
0.00104157
0.00205341
0.000203945
0.00100905
0.000608336
0.00333017
0.00107559
0.0028082
0.00298369
0.00295993
0.00300091
0.000524727
0.000447091
0.00146708
0.000102803
0.000906004
0.00066655
0.00269778
0.000356589
0.000207604
0.00175648
0.000865077
0.000608793
0.000270437
0.00486684
0.000663666
0.000677697
0.00562614
0.000934734
0.000682173
0.000617375
0.000684112
0.001932
0.000877496
9.18882e-05
0.000665567
0.00163032
0.000803616
1.53813e-06
0.0032099
0.0002499
0.0011131
0.000437264
5.53873e-05
5.23944e-05
0.000253226
0.00200027
0.00215953
0.00357545
0.000293012
1.97046e-05
0.000200323
0.00027789
1.21495e-05
0.00140227
0.00191906
0.000138286
0.000408836
2.0618e-05
0.00237196
0.000141773
0.000143821
0.000154696
8.03367e-05
0.00047387
0.000260772
3.57651e-05
0.000670965
3.12511e-05
2.32981e-05
0.000567902
4.39996e-05
3.45847e-05
0.000471704
0.000170252
0.00059952
0.000290356
1.35414e-05
0.00157275
9.37998e-05
0.000360471
8.62896e-05
0.000222677
0.00211351
0.0012781
5.00908e-05
0.00453328
5.49642e-05
0.000536606
0.000443759
8.04897e-05
0.000518077
3.60255e-06
0.000181102
0.00081818
6.00495e-05
0.000206374
0.00136403
8.71796e-05
0.00246395
0.000983349
4.29326e-05
0.00363827
2.73192e-06
0.000600904
0.000445413
0.000989014
0.000840184
0.00156823
0.00671853
0.000302065
0.000217254
0.000786852
0.000306008
0.00048897
0.000604694
8.48208e-05
0.0012889
0.000723982
0.0027573
7.59908e-05
0.000111126
0.0045402
0.000154716
0.000419009
0.00459726
0.000112059
0.000121795
4.84288e-05
0.000259838
0.00030118
0.000319987
0.000266255
0.000289362
7.83072e-05
4.76058e-05
0.000151102
0.000330314
0.000121021
4.0545e-05
4.89809e-05
0.00072433
0.000493709
0.000210028
9.23844e-05
0.00449257
3.16395e-05
0.000120812
4.03639e-05
0.000114583
7.5979e-05
0.00227724
0.000207797
0.00258685
0.00015389
0.000189463
0.000278661
6.84243e-05
0.000133424
0.000267661
0.000829312
0.000440488
0.0182075
0.000346051
0.00185133
0.000271118
0.00617153
0.000363377
0.00326679
0.00378157
0.00117177
0.000692495
4.14749e-05
0.000409438
2.93768e-05
0.000222808
0.000163472
0.000134874
9.97593e-05
0.00106321
0.0012887
0.000418882
0.000544376
0.00439348
0.000592528
0.00676221
0.000526779
0.000427551
0.00775708
0.00119023
4.31554e-05
8.57073e-06
0.00385239
0.00026779
0.00507187
0.000737944
0.00114934
0.000102353
0.00327721
0.00139475
0.00458602
0.000893011
0.00119491
3.44761e-05
0.00190857
0.000131119
0.0137032
0.00277186
0.00212684
0.000135985
0.00198209
0.000704865
0.000769427
0.000424356
0.00831521
0.00266864
0.00076329
0.000594393
0.00208324
0.000918758
0.000183645
7.62633e-07
0.00526797
0.00415887
0.000576439
0.00220851
0.00606797
0.000414457
0.000155494
0.00844698
0.00668682
0.000623169
0.000407612
0.00810228
3.06318e-05
0.00470944
0.000301378
0.000556551
0.000624473
0.00473279
0.000257736
0.00166042
0.0039791
0.00377753
0.00844199
0.000562838
0.00332541
0.0170909
0.00020003
0.000675851
0.000633541
0.00260115
0.00606452
0.00184706
0.00558432
0.00377487
0.0119666
0.00580117
0.00912157
0.00255075
0.000259905
0.000163611
0.00800204
0.00444129
0.000199901
0.00542989
0.000161824
0.00103425
0.000660867
0.00334945
0.0065239
0.00246932
0.00278855
0.000532957
0.000883954
0.00722111
0.00440522
0.00171509
0.0115942
0.000608257
0.00232444
0.00471223
0.00464469
0.000373365
0.00241785
0.00284487
0.00318653
0.0023876
0.000123327
0.000689223
0.000500154
0.000747935
0.000621513
0.0104624
0.00129941
0.00192688
9.29521e-07
0.000751756
0.000541956
0.00457812
0.0126193
0.00117863
0.00266714
0.00620362
0.00112089
0.000426007
0.00286154
6.52014e-05
0.00139829
0.00540848
0.0106962
0.000457878
0.0031385
0.000499087
0.000933088
0.00212739
5.90771e-05
0.00649597
0.00234401
9.75633e-05
0.00172698
0.00141356
0.000162183
0.000163024
0.00271021
0.00402815
0.000145514
0.000414482
0.000857116
8.0898e-05
0.004947
0.0049424
0.000276627
0.000530459
0.000905344
0.00015811
0.000992534
0.00157604
0.00138276
0.00105592
0.000110693
0.00141422
0.0112426
0.000993035
0.00873324
0.0019028
0.000907902
0.00404037
0.00109583
0.00656493
0.00326954
0.00220904
0.00222035
0.00690842
0.00467369
0.00917453
0.0122972
0.00619026
0.00614645
0.0106809
0.00964618
5.51592e-05
7.25765e-05
0.000878698
0.0032209
0.00295617
0.000590705
0.00294357
0.00475848
0.00535726
0.00246205
0.00443243
0.00245988
0.00354546
0.000128279
0.00422045
0.00749768
0.00286777
0.00224736
0.00468033
0.00583112
0.00695461
6.28999e-05
0.000264766
0.000400252
0.00156432
0.00168764
0.00120711
5.61784e-05
0.000522336
0.000937663
0.00317566
0.000269299
0.00294581
0.00157257
0.000442828
0.00294251
0.00307964
0.0111188
0.00902971
0.000243053
0.00466769
3.00311e-07
2.39031e-05
0.000363721
9.16962e-05
9.99477e-05
0.000776015
8.00565e-05
0.00179046
0.00423514
2.58211e-05
5.08007e-05
5.60322e-07
0.00156027
1.88408e-05
0.000470396
0.00301373
0.00537155
0.00511813
0.0104042
0.00314527
0.000873089
0.00658655
0.000811345
0.000674548
0.0103728
0.00570311
0.00106812
0.00047798
0.00249907
2.78352e-05
0.0095089
0.000838576
0.00253299
0.000505287
0.000617628
0.000611112
0.0002339
0.000381721
9.46538e-05
0.00765186
0.00681467
0.00496542
0.000709779
0.000628335
0.00587071
4.22429e-05
0.00551756
0.000300087
0.00345455
0.00842651
0.00289988
0.00512934
0.00449871
0.000436141
0.00956336
0.000514092
0.00198021
0.000406367
0.00400805
0.0085918
0.00233407
0.000125647
0.00050033
0.0107064
0.00146532
0.00125377
0.00154193
5.44446e-05
7.57947e-05
0.0011809
0.00865075
2.59719e-05
0.000155006
0.000372761
8.91598e-05
0.0176106
0.00499469
0.00880932
0.00538138
0.000853971
0.00325523
0.00100319
0.00175526
0.000965324
0.00292169
0.00439217
0.000569899
0.000466055
0.000942118
0.00359751
0.00183225
0.00952096
9.05812e-05
0.00175967
0.0161366
0.00575422
0.000712629
0.000236195
0.000202914
0.00791344
0.00178696
0.000798951
5.76449e-05
0.000281879
0.000865973
0.00345782
0.0112926
8.27168e-05
5.0257e-05
0.000431443
0.00748831
0.00937568
0.00125047
0.010652
0.00861198
7.06514e-05
0.00445341
7.65242e-05
2.46638e-06
0.00551805
0.00544386
0.00130247
0.00353818
0.000382336
0.00873824
0.00940869
0.00279184
0.00838887
0.00391917
0.00960232
0.00240125
0.00278683
0.00952686
0.00917274
0.0190301
0.00150077
0.00484328
0.00265047
0.000754145
0.000851636
0.000367251
0.0174397
0.000696559
0.00143998
0.00881166
0.00344107
0.000478162
0.0103935
0.00179058
0.00163014
0.00110479
4.91748e-05
0.00757031
0.00340096
0.000183858
5.11766e-07
0.00156543
0.0024943
0.00126835
0.000121699
0.000228359
0.000455477
0.000632205
0.000295456
0.00526517
0.000128071
0.00580576
4.00288e-06
0.000809306
0.000314896
0.00545035
0.000627151
3.14202e-05
0.000403819
0.00119592
0.00569307
0.000349623
0.000987873
7.40864e-05
0.00072462
0.00547606
0.0125117
0.00411559
0.00525752
0.00766656
0.000881633
0.000485624
0.00253075
0.00357736
1.22526e-05
0.00987232
0.0122198
0.000881255
0.000369888
0.00646997
0.010289
0.000363662
0.00402177
0.000103679
0.000479573
0.000249043
0.00045456
0.0020364
0.000106514
0.000247272
0.000110739
8.60376e-05
0.000216803
0.000190943
0.0082659
0.00147284
0.00215909
0.00177582
4.45677e-05
0.00411934
0.00304969
0.00419257
0.00399095
0.00109351
0.00386237
0.00388519
0.000726785
0.000211607
9.69229e-05
8.93411e-05
0.00060706
0.00929043
0.000169167
0.00456369
0.000440208
0.000533483
0.00550458
0.00227842
0.00187426
0.00791431
0.010571
1.59872e-06
0.00159624
0.000333984
0.00172069
0.00500806
0.00259695
1.45478e-05
0.000461404
0.000227113
0.00106387
0.000469637
8.027e-05
0.00246214
0.00336774
0.000607609
7.62833e-05
0.00219711
0.00250755
0.000353933
0.000484249
0.0008671
0.00271061
0.0013169
0.000411718
0.0110771
0.00432264
0.00261843
0.00221344
0.00013041
0.00504609
0.000202075
0.000189215
0.00545387
0.00202914
0.00347055
0.00392919
0.00209072
0.00245245
0.000504115
0.00199086
0.000401113
0.00562708
0.00148792
0.00037721
0.000459556
0.000151493
0.000114968
0.00970969
0.00441807
0.0150327
0.00343815
0.000118123
7.70735e-05
0.000861352
0.0062364
0.00375367
0.000846806
0.00155478
0.0019177
0.000650448
0.000337914
0.000416393
0.000799317
0.000704491
0.000459041
0.00158732
0.00082555
0.000541982
0.000224671
0.00192058
0.00571661
0.013819
0.000885483
5.49016e-05
0.000836423
0.000949739
6.32409e-05
0.00565924
0.000138508
0.00610833
5.66076e-05
6.11627e-05
0.00318369
0.000833637
0.00256613
0.00147692
0.00293654
0.00770921
0.00471584
0.00041121
0.00238271
0.00252356
0.0030233
0.00530107
0.0033353
0.00578141
0.00835321
0.000319383
0.000131626
0.000276086
0.000155146
0.00195785
5.72744e-05
0.000158191
0.000886071
0.000702557
0.00122359
0.00788625
0.00757086
0.0153449
0.00696508
0.00386834
1.54272e-05
0.00411012
0.00321027
0.00208925
0.000868629
0.00388236
0.00459378
0.000189658
0.000174717
0.000890382
0.00236322
9.23005e-05
0.000244562
0.000632879
0.000362514
0.00176783
0.00138414
0.000247417
0.00415793
0.000453216
8.30315e-06
0.00215045
0.000408942
0.00209873
0.000188942
0.00156691
0.00337447
0.000312925
0.00202
6.68025e-05
0.00111008
0.00639388
0.000894363
6.7422e-05
0.0001641
0.000741143
0.000522918
0.000111558
0.000807884
0.000472618
0.000417105
0.000382008
0.000662173
0.000156861
1.43373e-05
9.83246e-05
0.000437264
0.00010779
0.00107274
0.00011821
2.58035e-05
1.63486e-05
0.0111799
0.0149743
0.000326589
0.000251698
0.00190895
0.0101799
0.00536364
0.00234968
0.010095
0.00501301
0.000274296
0.00945297
0.00475092
0.0047568
0.000197505
0.0020931
0.0143887
0.00287605
0.00296762
0.00205914
0.00454687
0.000324254
0.004546
0.0110729
0.00930718
0.000924608
0.00466033
0.00491178
0.0142083
0.000919639
0.00186158
0.000542328
0.000498183
0.00458424
0.00454283
0.0167605
0.000500508
0.00159987
0.000438255
0.00832163
0.0109747
0.000147991
0.0118329
0.0104315
0.00333692
4.90393e-05
0.00020935
0.00108211
0.00171104
0.000122844
0.00110378
0.00184775
0.000271333
0.011052
0.000108899
0.000686628
0.00608803
0.0047963
0.000109365
0.000195257
0.000837914
4.57151e-05
0.000267298
8.66665e-05
0.000333692
0.000487914
0.00443025
0.00011167
1.64911e-05
0.00178349
0.000390976
0.0013926
0.000499064
0.0001123
0.000399873
0.00268337
0.000628375
9.28158e-05
0.00837644
0.00109187
0.00453839
0.0017764
0.000380058
0.00102731
0.000943314
0.00225638
0.000880856
0.00880311
0.000136816
0.00033116
0.000496911
0.000523759
0.00241121
0.00121718
0.00871703
0.00881058
0.00837038
0.00161011
0.000337205
0.000734531
0.000361001
8.86053e-05
0.00015501
4.59277e-05
0.00128768
6.23383e-05
0.00880856
0.00248431
0.000560832
0.000450415
0.00337928