/*--------------------------------*- C++ -*----------------------------------*\
| =========                 |                                                 |
| \\      /  F ield         | OpenFOAM: The Open Source CFD Toolbox           |
|  \\    /   O peration     | Version:  2412                                  |
|   \\  /    A nd           | Website:  www.openfoam.com                      |
|    \\/     M anipulation  |                                                 |
\*---------------------------------------------------------------------------*/
FoamFile
{
    version     2.0;
    format      ascii;
    arch        "LSB;label=32;scalar=64";
    class       volScalarField;
    location    "1000";
    object      omega;
}
// * * * * * * * * * * * * * * * * * * * * * * * * * * * * * * * * * * * * * //

dimensions      [0 0 -1 0 0 0 0];

internalField   nonuniform List<scalar> 
65206
(
352450
790580
143557
60635.5
93023.4
52631.5
529656
168848
1.83647e+06
55138.6
60795.1
141665
458256
531754
139089
601129
186285
211023
180901
125113
92972.7
157926
139936
43150.9
172342
170422
183924
76287.4
114657
181061
158569
115932
101590
157212
115120
123906
164826
311316
117928
126309
50106.9
48694.8
132170
8.13922e+06
113130
94603.8
68652
192088
223300
427809
199440
173396
118173
45406.3
112802
43384
150724
177293
155865
155538
166033
270094
130628
163928
522242
252794
158808
159916
143874
177249
185822
43097.5
410854
104009
143625
452464
129861
212063
201390
281921
213279
159251
182416
233652
568121
176769
113191
148466
496677
153967
188086
181378
91731.8
161234
358892
304237
150521
213850
85977.2
501194
188982
144140
212418
103468
391899
91741.1
105328
349875
94889.1
204450
65755.1
114392
8.86314e+06
161214
191742
83570.3
81535.5
118379
100878
250184
7.19533e+06
157155
181122
203617
180609
166871
176553
654054
97908.1
205493
109669
151183
6.26665e+06
3.66613e+06
164145
481322
326700
259016
243534
140741
205541
35857.9
269829
152475
314656
48138.5
172052
164266
175645
649292
109541
143828
98645.8
517191
152153
1.38957e+06
123485
169006
136709
106295
221945
125203
90682.9
86008.2
129305
94294.2
623060
374852
210278
119315
262822
242812
688053
77461.9
114709
324195
117263
338220
102062
54380.2
116196
107185
222906
74138.9
200118
238851
629460
126765
161257
87512.3
83414.9
105157
96331
91213.1
80000.3
107761
84101.1
166155
97655.3
108787
162992
153945
141165
172611
161044
92723.1
84317
62473.8
152308
124958
121747
345402
1.09697e+07
113626
223022
125649
360784
188752
48893.7
106747
311155
196144
222400
171485
116545
146994
166156
231737
77335.8
109429
248218
355109
77382.6
9.93812e+06
105221
240638
88573.4
86037.5
129313
222204
136683
194786
154453
155267
188559
7.41369e+06
175335
4.80333e+06
155717
522876
171339
386313
150604
139447
132125
1.33041e+06
122629
1.0659e+06
1.16799e+06
4.16468e+06
286788
124723
1.87809e+06
130986
81020.7
429327
2.01421e+07
1.39713e+07
231128
276371
120608
1.07575e+07
95523.3
125254
134928
146565
102236
155014
75933.6
376241
157655
106828
184528
658601
2.46326e+06
62105.8
257051
235631
287979
145065
638554
178042
882556
58449.4
176281
58278.8
211628
235722
99556.4
72155.5
256574
6.01546e+06
116808
371920
110252
563097
151695
227460
241749
146966
129091
366478
202608
155618
134895
79741.1
64233.4
602671
62243.1
45776.7
157845
403778
345919
1.36824e+06
283110
144365
41579.5
1.66119e+06
55468.5
108305
827835
243915
68849.8
1.55404e+06
219153
411663
2.08267e+06
128674
110258
51591.1
88447.9
62455.1
1.94172e+06
51317.4
9.00218e+06
1.9989e+07
45024.8
69650.8
5.70145e+06
37667.5
81091.8
95970.8
1.70533e+07
4.11862e+06
5.26424e+06
550796
65520.8
106953
1.05046e+07
7.28006e+06
65294.8
161599
41718.6
107066
1.45167e+06
549212
6.42507e+06
561189
131408
117885
1.55911e+06
586989
152590
672730
4.56517e+06
92516.6
1.03498e+06
772809
86564.6
128593
2.42168e+07
198313
4.3493e+06
286401
330834
137496
379319
179678
449556
179780
1.31758e+06
998236
991451
6.89833e+06
98282
302786
1.00271e+07
69332.8
3.97619e+06
315922
243897
47327.5
3.57137e+06
9.93009e+06
48184.3
182922
54913.6
1.72288e+06
275485
131370
1.48634e+07
46282.8
133343
1.65854e+07
54404.2
109040
75591.4
102146
6.51572e+06
51618.2
1.04039e+06
114814
101960
164583
403845
142232
348401
118646
467105
179191
105012
109043
565552
101138
2.59879e+06
91078.9
152427
125279
283057
340120
512890
109122
7.794e+06
1.01678e+06
1.06037e+06
94424.5
6.65903e+06
55819.8
52686.3
151053
73008.1
131779
1.55224e+06
3.62697e+06
1.02101e+06
321281
52305.4
171489
476796
3.3048e+06
960121
63944
45309.5
2.18182e+06
3.94045e+06
5.16428e+06
109312
39592.3
422767
63981.2
149575
45231.2
1.27988e+07
220604
409234
160629
878692
30931.5
62490.3
5.32788e+06
141359
662895
158571
327277
102138
527142
2.94113e+06
81219.8
1.13192e+07
178065
64373.3
399555
416753
4.50558e+06
84813.3
183100
215918
167670
99311.9
133800
270067
233841
1.13435e+07
1.88358e+06
4.63241e+06
377315
79544.5
1.27393e+06
95521.5
1.18664e+06
174215
8.77443e+06
1.73516e+06
190858
875441
56449.9
92875.4
85368.5
144448
342772
41844.9
673268
8.19991e+06
41776.9
396720
498655
44087.4
447820
324211
271515
967783
275125
112092
64890.3
37123.7
337422
577957
1.54278e+06
3.32497e+06
929165
5.28741e+06
73877.5
2.47741e+07
575948
421693
1.27614e+07
1.26356e+06
67769.8
196346
2.36142e+06
452899
2.64961e+06
75081.3
49658.2
113531
146399
941697
1.78743e+07
89310
100447
96892.7
45470.6
96604.4
162427
116659
57907.1
44499.2
73011.9
159678
100576
198045
223378
6.91809e+06
645563
173027
1.13823e+06
77523.3
74392.9
2.14199e+06
181597
2.74016e+06
9.16422e+06
104789
68100
2.22571e+07
67192.5
1.32513e+06
60313.9
805236
511887
81747
1.82893e+07
6.27038e+06
5.29118e+06
68927.7
120954
47262.7
136965
1.01989e+06
54060
6.47034e+06
411062
85152.1
60165.2
105709
122031
357209
67672.6
376936
75230.8
1.25836e+06
2.13019e+06
129446
724313
55278.3
55160.2
149298
125097
670779
142265
78093.8
201422
40805.1
67947
306727
708892
138850
130945
7.30565e+06
1.07373e+07
1.96651e+07
86043.6
242948
57119.4
102915
8.22297e+06
305714
6.47919e+06
38559.2
64738
774115
1.91518e+07
199572
50506
82314.2
82331.2
1.47291e+06
106329
123994
1.14497e+07
1.16746e+06
3.09127e+06
120772
104552
7.88818e+07
92430.4
6.17751e+06
276014
134912
137626
297216
70968.7
8.88585e+06
416990
181918
56564.6
51981.3
584481
403592
2.28536e+06
145993
234451
4.79801e+06
63093.5
101988
78587
231920
266590
94956.9
110267
176485
340708
72923.4
101485
125771
210982
70499.3
69614
615788
2.93805e+06
377463
163126
67596.5
114842
269723
101953
265512
77907.6
117363
1.25141e+07
98094.8
112639
1.72591e+07
6.15119e+06
57826.2
350360
309970
228588
2.04272e+06
93969.9
4.72135e+06
54584.3
56965.3
141101
103400
128259
218032
112747
1.26651e+06
54353.1
148913
211527
62657.3
173951
1.30218e+06
148472
167462
282855
9.98414e+06
57369.3
83025.3
2.69492e+06
1.0714e+07
1.55021e+06
6.47846e+06
67318.4
72088.7
211349
270371
121441
735341
188641
224170
88794.2
115881
66288.7
269667
593698
6.97173e+06
1.96228e+06
119059
501978
797062
341856
63329.1
2.89863e+07
314194
169882
3.06866e+06
3.86219e+06
64275.8
198098
1.94081e+06
464784
722718
743413
4.83998e+06
3.97736e+07
5.34712e+06
107597
109371
1.9971e+06
68009
312661
3.90281e+06
800301
132050
69310.4
52762.1
8.94679e+06
1.76925e+06
416908
534716
492182
1.21597e+06
359221
987437
1.0562e+07
58725.5
353869
2.12156e+06
316009
206760
130365
535310
101239
1.36479e+07
1.56467e+06
211588
127558
55851.1
108582
1.26096e+06
226119
4.92795e+06
112132
1.58992e+06
7.31801e+06
75722.5
80823.4
97724.7
1.03401e+06
154737
4.33061e+06
1.59994e+06
3.14817e+06
70865.7
38966.2
90259.8
8.79836e+06
72954.7
934904
108908
5.8943e+06
412171
1.75461e+06
140853
70205.1
2.68236e+06
269788
37253.2
253000
43568.9
1.05943e+06
952084
202746
674414
52724.1
987661
654132
66772.5
1.24975e+06
2.48249e+06
458062
604730
911492
66774.3
222584
201244
1.34e+07
497678
5.94435e+06
821368
333919
86538.6
287115
6.46129e+06
73901.7
42529.4
345425
1.59211e+07
9.94566e+06
1.34495e+06
4.42796e+06
160833
175250
72461.4
3.3746e+06
129661
3.94177e+06
741214
156565
731047
930115
254704
4.31376e+06
86696
92634.1
75333.7
202939
1.69415e+07
215523
71926.7
42644.6
209264
136607
573185
138238
9.19239e+06
453508
194522
387462
107028
225903
396847
3.86027e+06
84146.3
5.50259e+06
224103
167914
2.26082e+07
57601
63402.9
581247
89757.6
2.51566e+06
98565
82357.2
568031
281867
225044
4.91089e+06
125415
5.16697e+06
5.09233e+06
52372.8
183967
67632.6
2.62536e+06
146229
504250
7.53955e+06
93191.9
2.42678e+06
415221
34806.9
45615
77819.8
61824.7
351364
3.66697e+06
53513
83395.8
107121
56939.8
158303
106286
516586
35722.8
153287
84777
4.01122e+06
74584
1.32541e+06
9.69383e+06
46199.4
1.3391e+07
67866.9
4.21822e+06
356801
144682
165879
370249
79627.5
126333
82832.1
2.76932e+06
106108
5.28333e+06
137280
166936
7.61498e+06
83003.9
3.64158e+07
120305
174972
119637
63559.2
85746.9
186112
79217.3
378212
580720
120439
421958
435353
1.13092e+06
224601
2.62533e+06
125037
82608.4
2.42004e+06
6.0632e+06
186899
83784.4
127407
200335
110583
194250
47961.9
105611
486682
1.14064e+06
317357
512807
440866
558169
283333
277117
9.12613e+06
350199
487597
712185
146891
153943
37295.4
137418
164648
4.11631e+06
283005
178754
117154
90541.4
233445
113363
78113.6
35866.2
209623
84863.2
89366.9
504349
216817
112435
480866
177271
86842
116415
120142
112075
116591
118318
131787
1.50309e+07
83521.7
72759.6
74307.9
511823
8.74491e+06
3.27688e+06
136172
93988.8
148256
289404
86528.4
139197
85465.1
188031
89427
168052
237255
126317
91333.2
149665
170529
156080
93088.5
88572.9
106235
303082
175972
96268.9
92722.1
82308.2
143097
175455
130572
111678
217384
278630
109456
78849.5
110044
213223
223359
108781
221108
139970
92920.5
269721
130355
113742
108989
133623
369568
89561.6
539391
173694
203813
354625
198214
432935
412365
172912
385229
8.24866e+06
415409
605354
261727
148872
225285
146079
582018
116389
182723
327227
156384
162189
193868
232505
611580
399714
594492
151047
403768
206136
169572
211974
264550
149119
55164.5
179607
78943.9
158078
145637
99125.6
109360
175075
79659.9
219159
93024
195696
255495
51890
185364
174399
282500
140116
347254
233081
494852
63774.6
303227
105313
1.30277e+07
288747
143995
289931
423219
128568
218859
119482
119114
129628
95387.5
103650
173250
157517
399178
131646
282352
203584
258239
503327
257487
287257
191379
70611
124384
243398
203862
325066
204657
72001
123964
150183
211141
170200
204860
175456
266307
373053
149325
104359
316639
71028.7
197064
105046
158950
116739
84484.5
87629
106095
144747
107129
80969
214629
179320
113733
90374.1
2.70525e+06
1.54719e+06
145037
206470
138310
91814.8
356278
83914.6
94382.6
88519.1
717347
3.23319e+06
83148.1
113898
275911
677995
70478.9
120507
104460
178683
175092
641702
261716
256100
103125
474248
153305
487380
104979
127868
1.69975e+07
83485.5
130486
98664.4
152384
41117.2
159602
58767.3
145041
81869.8
153194
6.26283e+06
180029
157579
84531.1
417229
109834
423285
156489
145635
105472
135085
83561
187908
311267
81995.9
73827.2
89558
2.33992e+06
519604
1.10649e+06
137127
332819
70469
140311
2.84133e+06
8.94872e+06
73278.9
549414
45891.2
150061
128087
9.60865e+06
88195.3
426364
85435.5
95222.6
77544.2
58127.8
1.55071e+07
57732.9
2.21641e+07
64854.2
3.82618e+06
86705.6
131491
62445.5
77068.8
58004.9
87495.3
386474
62139.1
5.76738e+07
80188.1
104500
93033.7
156617
87712.1
68140.4
95761.4
75806.3
74766.3
92400.5
87501.5
8.49002e+06
87505.9
117533
75785.8
56984.2
421071
90967.4
58179.1
129618
253826
59727.5
154041
55348.8
105638
106426
1.02768e+06
207853
1.10663e+06
63630.4
93343.4
56093.5
66269.2
222970
69762.4
1.14901e+06
56485.2
76006.1
58110.6
63532.2
73142.9
78908.4
59241.8
62446.9
126428
123065
117583
81700.4
113773
125082
62618.5
113900
62450.9
77238.3
115040
59964
97316
87005.6
205464
86147.7
115604
123845
74989.2
72383.2
98604.2
90978.4
147011
802347
102994
85043.9
124429
157031
59604.3
147806
146254
114345
108627
179396
127424
181816
111614
89206.4
506597
203524
183720
169006
141281
160553
192878
137773
99481.6
351468
203540
114219
144879
245588
314155
220306
170875
363225
72631.4
97176.2
117715
121419
126306
88417.1
96677.8
110353
131279
101825
156963
123295
120672
156962
88819.9
101951
195593
122863
153977
89316.6
148605
89068.3
89575.6
159427
161825
105575
85563.8
76172.7
107825
104862
145854
149941
99967.4
173354
125201
79089.1
88173.8
95879.6
221153
125526
118024
165053
67211
361005
166088
477207
90667.3
98401.2
60165.7
71890.5
123537
120263
78995.1
112907
81808.1
113829
74321.5
129911
107741
113569
217373
56988.8
666519
83543.7
63278.2
493048
46339.3
120014
83497.9
112358
85280.4
89968.3
70639.3
97022.5
85784.2
62866.9
58833.2
85230
76111.1
76782
70765.3
100878
72731.2
93055.1
103816
113545
88751.1
93649.4
115670
56283.9
60823.1
71937.5
83497.7
91231.9
51668.7
60298
66111.7
59301.1
55343.6
72263.3
63112.1
69834.9
61267.5
103656
74783.2
135016
405147
157420
82382.4
128309
78349.3
84298.9
77471.9
87198.8
83306.1
85578
106822
94262.3
95003.6
119945
77593
77797.5
80987.5
74791.4
69954.9
92011.8
109917
73392.1
92087.8
108859
132583
217471
75904.5
91127.6
76381.7
161744
110424
90970.8
72283.1
54329.6
62472.6
153365
105792
74981.7
92328.6
96733.8
61379.1
91090
113554
61066.5
85468.8
72618.9
62800.5
69616.3
93964.4
65408
427517
67370.8
142138
132652
118335
115830
63536.9
83680.2
117207
115119
84208.9
84883.4
251990
86063.5
85756.2
54748.9
114419
127887
72639.4
76429.8
93010.9
59971.2
81499.7
95227.4
134941
108268
67606.9
113284
112678
65602.8
70561.7
104504
111842
56797.5
60358.9
113426
116262
91109
65283.5
60408.6
162963
119586
120983
73193
115305
3.9685e+06
65809.2
72460.2
70281.8
66362.3
90564.6
1.66497e+06
74633.8
121420
56364.3
69036.6
63892.3
58628.1
83766.8
571601
929518
130463
123783
109346
135871
131753
145755
3.57769e+07
4.5444e+06
179719
255110
3.00716e+06
174014
6.68964e+06
74840
1.24661e+07
301372
58362.7
1.04607e+06
366140
7.70807e+06
349026
375096
86096.9
451579
66538.3
77151.9
79436.2
112657
68021.4
6.05351e+06
107678
85036
118611
246852
499824
145779
69875.6
188210
181633
107514
4.42573e+06
303479
53946.8
4.96393e+06
121043
349756
74484.9
295980
131374
67642.5
90621.1
157566
537216
99453.6
82799.5
116567
73045.4
111376
82805.9
116710
185450
55184.5
93206.4
65592.8
169702
76409.8
74543.6
199023
61001.5
83431.9
64136
483930
72907.8
58619.2
50739.8
90179.8
1.66755e+07
66452.1
81683.9
1.7548e+07
82214.3
144186
300588
141632
78004.2
71578.1
125568
132297
61666.6
57570.3
92402.7
165152
158370
146268
262707
185838
77059.6
1.49543e+06
90384.2
211316
62531.9
212458
196307
155064
101817
90498
137760
124706
61400
139266
144292
91932
130214
133039
83844.4
216588
101135
81038.3
274657
70727.2
112418
52062.6
83147.6
124535
74285.4
524170
78343.4
116350
91754.2
158205
136349
68143.4
167092
4.55662e+07
154816
80594.7
64754.3
79296.7
76344.7
82641.4
185423
77968.6
3.4685e+06
336299
4.75583e+07
47152.7
122488
98449
138613
85629.7
370762
124263
125935
171841
90927.2
85164.4
86396.2
134922
721272
99775.7
226943
54321.6
104630
306931
38591.8
72148
38197.2
92065.7
95739.8
90382
128715
82194.8
102844
123223
90780.5
126733
121038
204896
101068
85203.6
130118
81356.5
443175
73331.8
144575
139863
220994
111065
148714
65374.7
45166.2
153205
199207
111730
36900.1
167960
71413.6
56716.1
94733.1
87044.7
140201
413713
76742.7
381989
325301
40267.5
101902
38218.5
50528.2
45014.9
225641
57937.7
87641.7
169406
63176.5
97935
70506.4
93933.2
2.73631e+06
99362.9
1.41671e+06
65136.9
9.42258e+06
71208.2
35594.5
1.51669e+06
259034
206127
284098
407783
64734.8
404653
6.19704e+07
56623.1
55534.5
140074
89340.6
107762
165123
66710.9
63160.8
73010.7
69585.1
1.14769e+06
2.89925e+06
61909.7
94507.5
279738
53320.8
56213.8
1.09204e+07
55338.4
50549.7
54527.8
91158.7
46434.4
56124
81024.3
144275
986445
88960.9
181108
1.92651e+07
43326.4
40366.9
72613.9
60474.7
127984
3.24091e+06
169604
255395
403593
184674
587506
38097.2
698596
1.9975e+06
120919
80838.3
72499.8
37659.7
173737
164326
46315.5
83742.4
233945
726432
596511
104627
154968
990068
248009
53133.2
32529.7
99105.1
35676.6
55440.1
58499.8
59198.2
66596.2
217597
107911
40711.5
635431
117685
1.03366e+06
75750.2
104897
96036.6
219800
333701
185119
379018
230648
495877
193313
186489
589304
361015
132227
260672
567799
487970
429715
260711
211462
278595
165548
188133
77411.3
75741.4
70663.4
78101.7
63383.6
846282
259370
327379
1.2826e+07
80998.9
357725
135294
158836
127706
906883
511853
2.53052e+06
75057.5
211300
258835
107091
155859
170103
343357
123986
86542.8
404019
177688
1.91604e+06
71602.2
112732
366334
163206
577647
958062
522941
487203
100627
105264
40925
67390
260656
48373.2
529444
136407
101192
61847.1
177282
159768
57253.3
135414
106579
193240
101291
67375.8
586418
85434.2
691166
198935
80755.7
64222.7
132557
254403
195528
223946
652308
113193
765890
2.71691e+06
502171
125808
63015.8
77232.2
130199
108896
683547
397195
526403
863376
488747
338274
408767
456725
299717
325512
269459
883596
416024
601520
539667
230803
113684
1.32037e+06
163228
236813
93874.3
248348
119935
590045
73157.2
224526
263141
73306.4
70748.4
166846
247007
175147
248684
126960
452273
117501
201761
1.72871e+06
494993
6.30225e+06
5.78759e+06
62116.4
101461
73392.4
49114.6
66142
286820
80423.1
6.47304e+06
6.74189e+06
7.24055e+06
144160
3.80505e+06
146928
404188
250200
235616
346744
211351
269571
35936.9
43547.3
42534.3
133928
74110.7
291331
273853
223718
2.49015e+06
262800
93599.3
247813
48920.8
57149
49338.9
98375.7
99726.7
44820.1
547498
461623
417686
55525.2
69746.1
82176.6
6.69513e+06
68678.6
64400.4
355277
229291
285313
268955
312302
173883
130284
260674
271955
210506
229165
352323
252350
229035
165559
178378
141935
78715.9
71420.3
6.67352e+06
1.20989e+07
90691.3
232555
117684
124006
81808.8
196059
111003
475659
58685.3
69997.7
68727.6
473216
623287
412266
195495
99945.4
287025
366045
248359
463406
412506
196616
120078
388587
98614.5
154441
161058
647766
139832
178411
63936.6
34484
76051.8
65545.2
68396.6
1.2584e+06
47331.8
113643
37773.6
54847.3
72152.7
1.64731e+06
185563
626495
125443
750573
148391
65804.2
324840
5.74449e+06
443572
80724.7
1.96713e+06
77171.2
261178
158372
146469
200875
108452
365735
148250
277441
376627
48341.2
148650
182097
606191
73742.6
439625
125712
3.42189e+06
286303
97137.4
302776
233153
85913.1
396528
323426
65766.9
156706
248757
83913
89852.1
149775
704705
124140
1.05272e+07
85349.8
61707.4
73629.4
75428.3
53350.5
66019
68804.2
52500.1
434646
66787.5
110557
7.45229e+06
287525
254045
71932.8
329602
458190
256486
187344
57630
286731
95917.5
106947
104124
563239
110408
464321
500983
250741
289921
258618
106956
272173
9.72812e+06
102250
189127
273708
191046
66227.3
218575
382310
275331
55519.5
94072.6
107997
51267.3
47266.5
42500.2
115106
89490.2
113212
118657
144097
66413.6
58175.6
62313.5
82822.4
272642
174536
254629
219398
41839.6
147425
87384.2
95246.5
114150
79370.6
58331.2
46014.4
51262.4
368107
1.05593e+06
288292
546498
306053
223476
266896
230284
72254.7
58639.1
5.38305e+06
46393.2
86086.6
254032
155479
295473
195945
46163
150720
50874.4
61835
78822.9
134301
78462.9
169174
73932.1
301942
38155.3
106442
83867.9
44936.3
568373
613207
119032
982283
91483
57503.9
215620
149892
45214.2
84875.2
9.73002e+06
39078.9
180252
504143
241505
331917
121278
124004
192279
139125
48217.1
153102
153959
85765.4
101283
111809
327959
260014
324998
403433
125406
145639
82589.1
257173
56072.9
149787
358174
631965
319729
108303
119790
119661
78566
40504.5
54820.8
65326.3
176061
216263
109242
411664
120235
81672.4
151025
87759.3
48124.3
133586
290588
85198
33169.2
287372
238099
117913
722229
227332
191901
131746
167983
98016.2
50202.4
233379
367746
279857
262952
299934
432667
513111
242118
107203
66016.4
89574.9
93184.8
215182
6.74074e+06
262914
111168
140900
445753
363985
70969
602482
436559
5.66291e+06
443637
534716
383369
534210
415685
69842.2
149447
207884
62238.5
43990.5
347480
129681
63277.3
165582
158794
115681
139791
81200.6
95795.7
2.48439e+06
63899.4
247073
239384
242340
157039
479848
74996.1
171735
161816
188333
281611
632794
96127.2
136214
55827.4
101231
64741.6
50514
39614.3
71516.9
56852.5
53073.9
82889.3
160356
84526.6
53204.4
579750
395410
50139.4
115539
169577
2.15392e+06
2.13586e+06
56345
198777
186457
1.98246e+06
103115
247493
83654.4
127158
199414
95491.7
129753
212792
1.54572e+06
522453
314826
459355
525574
232183
446164
114370
421340
58570.4
123317
347438
280558
301043
285080
76947.3
101007
74437.9
92242.8
512541
574750
196987
515264
271187
237440
122744
114731
66544.2
1.98213e+06
128951
384420
292023
143593
131080
70373.4
117813
64859.2
245106
62950.6
1.29555e+06
88762
115021
41760.1
116063
161273
70964.8
106406
91619.6
86457.8
73569.9
79836.3
344969
79962.3
175195
155887
33404.8
40610.4
268642
603023
1.68635e+07
140990
99007.9
3.26285e+06
1.75807e+06
100174
402283
733839
217504
87758.9
103135
73195.7
214577
385695
67545.9
165152
62502.8
96714.3
311578
638038
610539
980049
437357
104765
345592
558370
60744.7
44610.1
113313
87289.2
419746
139227
402125
102617
224738
47669.2
75796.9
129198
415248
109511
92909.8
409006
208854
466874
244086
334120
100415
240744
66150.7
92468.4
160434
318543
267457
304368
76603.8
137244
324082
81811.6
5.28399e+06
56142.9
115237
7.00069e+06
269937
89549.6
214444
420102
467939
1.22816e+06
334405
232069
160877
142579
397959
177510
841961
76170.6
46049.2
82458.3
84036
154591
156487
336543
545436
368083
437307
53211.2
52968.8
215627
601598
115161
142100
68684.6
82853.1
130501
499343
305420
563741
243512
540711
883371
376511
144529
118628
67845.7
86541.7
112479
60328.5
70065
65323.5
76997.2
169561
62725.9
107394
152363
289130
56997.5
99108.3
95924.5
153180
66870.5
124089
116214
156614
69493.3
980792
515874
222284
1.56061e+06
255528
227010
109383
112979
5.87083e+06
119721
263946
54705.8
247625
89182.9
62953.8
37028.6
50870.6
75476.2
180134
134151
73248.5
74422.1
126708
83348.7
53749.2
110866
88108.2
210124
102014
624666
365916
240095
468744
281292
272230
60788.3
91603.8
134072
107198
2.80948e+07
1.9639e+07
58054
41924.4
63883.4
84749.8
175850
351209
114141
821930
83886.9
53831
254039
59876.9
1.9964e+06
46782.2
45024.9
40832.8
442687
656782
84169.5
399750
195176
145833
57109.5
124491
59395.2
91342.8
484833
155235
494887
196940
174406
279853
375256
191521
240704
146745
89428.5
89802.2
53210.4
148371
1.842e+06
1.02067e+06
520611
7.60511e+06
89489.3
530854
534137
94582
151998
110883
37959.8
249317
159087
244576
449976
256872
105262
213514
191367
716345
937412
612969
55074.3
6.35712e+06
91964.2
900796
162485
211291
215429
389092
199800
77072.2
211572
119454
174534
142237
99177.4
108658
119313
76345.5
149321
154017
89935.2
111962
350618
52992.7
311547
204456
160691
276170
178633
159583
1.85285e+06
2.26787e+07
207906
175129
204792
123777
118832
358778
89746.7
75925.6
2.75992e+06
841239
42316
85223.7
201927
129298
390150
475105
377361
108243
107739
86116.3
134533
84007.4
575056
448571
740031
825254
370235
238986
115026
205995
136229
253624
642643
86193
48479.9
78748.2
78068.7
48696.7
43466.4
1.03182e+07
1.48156e+06
146595
283576
159258
101050
54080.5
46636.1
53494.4
364216
315776
168291
274210
216369
396475
56235.3
53187.7
86592.7
35222.2
187201
313225
207947
250855
104503
54006.5
6.00282e+06
315663
110874
212068
52566.6
94302.5
690104
126531
76937.5
66398.5
125595
78287.2
267426
547543
90715
52021.2
448125
325799
134113
886362
430258
127375
87340.8
1.18467e+06
58323.6
184096
119926
73441.7
8.5054e+06
489664
383910
195757
165016
230512
434705
251434
233088
247546
105426
331339
69027.2
191754
262133
149558
71599.5
135997
139084
74109.6
330425
166244
236404
126864
35358.3
34025.9
427444
82670.4
99369.1
298570
179909
372551
68137.1
134266
304284
81723.9
83287
81869.2
45482.8
80711.8
96323.9
283972
110273
206714
70766.1
44711.8
237677
178962
87147.7
79677.3
95708.8
325291
49862
1.57258e+07
74878.8
121653
104394
214974
93644.3
97815.9
215154
42885.4
51863.2
108857
72362.7
73532
71072.5
63994.8
119183
101916
44768.8
65115.8
181767
157341
269431
362216
248745
262135
46136.7
429683
96909
624356
242632
449673
150830
180088
89972.5
46957.7
783084
47319
419750
454799
101860
742455
193879
281716
140918
69938.5
91081.1
332330
86741.4
1.372e+06
138648
107120
206105
174149
226790
399216
128796
121517
49039.6
101419
427236
1.7587e+06
87744.1
3.19436e+06
125811
71718.6
70702.1
80436.4
173487
102036
77403.2
180174
1.0315e+07
73834.8
72940.6
167470
90340.1
73035.4
61620.1
195510
28815
42352.1
38492.1
48174.3
56695
124266
123724
344048
228668
116681
55354.9
42294.6
40851.3
85927.3
48829.7
39087.1
327286
271244
410611
96315.2
618974
369443
120133
408916
794571
140915
175475
155444
117703
138358
353330
160393
136000
42407.6
70382.4
59175.9
2.89426e+06
370678
442787
47905.1
330350
165466
44463.8
38956.4
281054
400775
89569.1
407313
39066.6
147220
168453
258125
119468
142654
278394
262980
158020
424898
401329
403002
268231
422965
81556.2
1.23951e+06
64724.9
842017
82131.7
66322.5
45432.9
2.51643e+06
154163
444941
221796
2.02374e+06
144231
247176
370071
176412
92237.1
940809
696126
723289
129943
1.38016e+07
273024
58213.4
273651
110346
162398
59133.3
131026
104154
1.4563e+06
178835
113463
143973
307041
291716
510475
382496
71536.4
106552
115117
114363
287502
577328
65831.2
111278
109004
291447
316986
259695
129090
259229
818259
211853
460090
278402
75196.7
75867.1
274281
140363
97129.8
121751
154466
177142
123004
638124
591783
54351
150575
699796
147427
176644
298729
171711
61013.3
87882.2
178562
136319
138504
126215
58708.2
50364.8
40654.3
74345
2.32378e+06
49739.7
448264
348965
843666
100645
205387
135617
366472
286846
33493.8
65432.1
98686.8
60512.2
91901.3
60222.7
69590.3
40214.2
83363.8
112214
3.64845e+06
46272.4
49426
57250.7
73343.7
146673
130967
36698
143600
132044
75361.9
55674.9
76048
197064
54049.7
188675
160417
54019.2
52002.4
115570
53703.8
157720
302667
429544
214835
126479
382306
148829
104902
134596
381521
217880
154563
87721.4
345225
81039.6
72756.8
64776.8
66190.5
282608
253967
326630
708420
268059
181033
467252
519812
176128
225155
412156
431073
68419.5
490128
432798
649309
544159
224872
81597.3
310082
156120
111190
166433
213650
184006
97010.7
146951
661538
253765
185094
309734
176012
99370
242995
772063
592682
516181
702809
459480
145482
427873
98667.1
352855
616676
222153
405818
192566
169002
158481
211851
124958
91159.7
87176.8
40285.7
1.43729e+07
154190
517943
107594
101164
286291
160752
172212
83556
68419.5
80027
78790.5
158733
65133.8
62571.7
147632
3.33384e+06
72214.1
168848
142174
75297.6
43475
119011
317076
51939.8
131308
84273.6
45894.4
106950
135607
419051
81424.3
104629
258693
182970
273784
188962
116111
76464.2
70003.1
50066.1
57984.6
121743
111400
79755.1
70058.1
105333
149105
132674
104877
229845
193906
99612.6
199164
52397.2
9.64038e+06
1.55815e+06
100926
257359
209605
152759
73443.2
47186.3
151111
3.25787e+06
159868
109021
439349
472911
443733
113939
300738
589212
214600
79809.2
517604
431170
174829
707589
43498.4
310985
79980.3
2.94403e+06
64524.7
69335.2
67841.1
82670.2
79545.5
387180
119301
61441
113894
92022.4
71475.7
1.09977e+07
474283
113152
511856
119247
765594
94383.9
445687
94363.3
42783.8
124916
90194.2
247741
264373
232463
102227
78287.8
58813.5
116383
176733
73848.3
211742
162575
301718
447446
334534
159433
91251.7
95076.1
434932
293351
188081
431882
107837
97975.9
96640.3
102762
3.8392e+06
473614
125213
339975
64542.9
117495
49201.3
267872
493053
255460
423079
42824
102988
469074
590991
189006
478928
239176
304490
128146
245774
456295
134491
36510.4
281179
915839
355888
1.38021e+06
177923
136592
169972
358772
390910
207536
346134
43127.4
191313
46380.4
79795.8
81369.4
79249
224309
372444
7.7669e+06
5.80547e+06
82993.6
137634
178940
45171.7
114414
85453
347827
83002.6
151364
46246.5
153594
142088
372110
127155
97462.8
66467.2
100798
243584
84356
78775.8
167655
872484
261598
729074
620670
321540
100031
46904.5
105499
43169.8
77433.2
435638
48157.9
308000
157293
517401
226656
134546
55018.5
74201.3
61842.8
92901.8
59756.1
67536.1
48684.8
91915.1
163503
112569
203922
153851
45555.1
86086.4
46722.2
276604
6.90698e+06
134666
83813.4
162259
64287.6
56698
173228
74670
105164
46586.5
89026.5
43045.2
55206.6
43060.7
89483.4
145377
1.0029e+06
176097
477198
82036.9
296304
175392
52734.7
435881
161310
78467.7
4.36335e+06
71195.2
202906
49128.4
32782.3
130923
499976
137328
95375.8
43126.3
92291.3
88410.8
99286.7
78070.9
78162.5
64929.6
163991
181966
142610
135505
153828
222435
178863
36490.1
78515.1
61463.5
118270
107959
227386
56878.5
195799
275692
325717
152089
131642
266040
86953.8
235577
901796
199035
54716.1
143479
61992.4
80244.9
71045.1
100983
410011
155138
168123
74292.5
61842.3
185365
48039.3
49138
56459.7
87685.5
107772
53944.2
259962
49864.3
92508.4
38774.2
59354
46507.3
64848.3
268974
241682
41879.7
280994
60807.4
481896
1.29473e+06
69918.3
179570
225478
74300
60044.2
304646
425715
199161
150276
149008
66440.5
55361.2
44144.3
111906
64950.6
266299
206732
115268
324747
174604
286990
138751
132259
90470.7
240088
554438
159610
339116
116449
81639.7
72179.4
78064.6
46384.3
299266
596912
140967
346348
131156
215161
117212
479621
3.04311e+06
65836.2
130773
134999
61165.5
137901
137222
457471
146697
64607.4
204041
81407.5
77549.7
87136.6
116822
265496
77769.4
269239
51167.4
269223
54780.5
73750.1
57652.5
53373.4
1.59236e+06
57085.4
102132
509618
511336
417324
556634
683037
130675
124178
163410
312150
101352
168206
89218.3
95090.1
45849
309149
210150
347411
454647
115527
36793.3
44198.5
61565.4
44833.3
213741
351880
319035
381065
92385.7
356131
346238
49791.6
234950
73342.3
50017.8
47287.2
43872.6
254632
110746
44870.8
40919.4
156340
438061
471839
147308
108869
140155
63967
72392.5
150528
104350
101359
123121
102174
72933.5
104116
4.68923e+06
286468
2.37853e+06
162652
221344
775430
303570
236401
154965
48380.6
1.53919e+06
103749
54156.8
4.41921e+06
100112
81428.7
605774
49096.6
69836.9
123715
157530
48981.9
95005.7
147837
91935.9
440502
34649.2
79938.4
275222
314654
83509.5
131263
73629.9
38947.1
38188.5
494102
185415
1.81986e+06
2.34568e+06
119226
556886
112448
103367
438171
39231.4
665438
186530
379157
290291
123789
81480.4
94949.9
36667