/*--------------------------------*- C++ -*----------------------------------*\
| =========                 |                                                 |
| \\      /  F ield         | OpenFOAM: The Open Source CFD Toolbox           |
|  \\    /   O peration     | Version:  2412                                  |
|   \\  /    A nd           | Website:  www.openfoam.com                      |
|    \\/     M anipulation  |                                                 |
\*---------------------------------------------------------------------------*/
FoamFile
{
    version     2.0;
    format      ascii;
    arch        "LSB;label=32;scalar=64";
    class       volScalarField;
    location    "1000";
    object      p;
}
// * * * * * * * * * * * * * * * * * * * * * * * * * * * * * * * * * * * * * //

dimensions      [0 2 -2 0 0 0 0];

internalField   nonuniform List<scalar> 
65206
(
10391.1
6517.43
6119.42
6812.3
6916.8
5480.28
6876.78
6850.87
9725.28
7482.07
6752.98
6785.48
6550.96
6562.23
6915.38
6668.59
6760.28
6899.86
6766.68
6580.32
6981.19
6317.63
6988.11
5989.75
7091.02
6880.74
7326.13
6330.04
6809.73
6735.52
6763.86
6587.61
6274.37
6858.37
8353.21
7682.29
7849.11
11256
6736.1
6682.53
5990.03
5940.68
6593.29
7111.22
6751.48
6870.76
6546.96
7484.06
8555.36
57395.3
7104.43
6553.97
6601.5
5970.77
6970.34
5969.53
7071.85
6771.91
6942.84
7244.36
6930.6
9742.96
7261.71
7300.35
7119.23
7322.01
6904.37
7983.68
6451.71
7032.13
7363.89
6044.52
6849.33
5993.19
6631.8
56464.6
6882.48
7862.94
7276.66
5445.31
7429.43
6945.88
8774.15
7187.02
7244.54
4614.99
8136.54
5319.53
7193.81
7261.63
7011.77
6675.04
6573.91
10193.8
54812.9
6133.69
7557.82
7366.01
5129.12
7339.39
7057.3
9465.75
8171.8
6509.05
56287
5990.3
5907.28
55844.3
6911.49
7713.55
6709.98
6743.25
5649.35
6700.65
5579.36
7177.29
7329.1
6743.42
6642.53
8478.38
836.685
7023.35
6598.28
7373.11
6832.43
8550.62
7029.54
5674.14
7502.43
6765.53
6934.61
6990.62
4754.67
5755.09
9900.54
6818.74
8167.25
7918.63
6383.82
7422.33
6195.44
5799.26
7495.59
6508.43
5105.4
6497.6
7114.18
6801.12
6989.75
6580.85
6211.59
7060.05
8006.14
6315.39
5542.59
5672
7279.17
7210.5
6745.24
6507.54
6794.36
7391.69
7669.11
6478.84
7689.47
6493.74
56930
55295.3
6310.61
9814.15
9751.25
6525.94
6770.8
7019.67
6802.91
10848.9
7149.79
63235.3
6733.22
6424.6
7202.77
2903
7205.32
6190.08
6969.29
7099.34
6459.57
6843.73
7196.51
6206.67
3183.51
6968.63
6844.65
6944.88
6703.8
6586.11
7091.59
7112.81
7058.06
7165.58
7001.42
7221.18
7218.99
6922.85
7199.3
7144.43
7165.95
6649.54
7399.5
7095.14
7335.89
61336.2
7765.38
6846.08
5331.8
7154.56
57860.9
7307.26
6644.63
7113.91
7332.08
7435.46
7214.65
7010.68
7062.89
7762.72
6912.95
7327.33
7122.36
7321.57
7432.92
56763.1
7021.68
6006.21
6979.66
7237.67
6791.51
6549.88
7075.92
7686.9
8788.55
11819.8
7310.84
7097.24
7372.88
7044.22
7657.6
10324.2
6444.18
5174.2
6816.74
56723.8
7022.46
8298.36
6400.71
7751.9
7175.86
5806.81
6054.4
7542.18
4928.18
6327.37
9169.04
6959.23
7034.75
6634.48
4715.48
7431.92
7186.34
6427.34
7131.35
11087.8
4701.75
7000.44
6629.15
6432.65
7046.29
9186.1
7509.52
62293.1
7029.05
6368.48
7551.57
4182.63
5573.57
4462.05
7464.2
7428.99
9877.33
6884.22
5618.29
7311.9
6322.52
6463.29
6802.72
6346.22
7080.16
6175.64
6562.9
7083.76
7061.54
7352.21
6572.92
58835.8
6192.23
7030.94
8379.81
7530.39
2813.67
7898.97
7556.09
55819.9
7569.38
6265.69
7567.1
7161.57
6981.2
6678.05
6569.31
5247.27
6507.59
7806.2
5830.23
3963.15
6453.44
6520.89
4952.09
3913.07
6355.14
6990.41
-1186.2
6669.68
7117.5
6553.85
8269.47
6808.49
4631.49
7497.42
7884.52
5557.28
7154.22
6465.77
-7557.64
5527.14
-4563.8
-756.645
5463.9
6425.4
6818.9
5567.42
8117.03
6003.63
20605.5
6463.85
6062.01
49349.1
5179.08
6908.7
6813.36
6416.5
5666.76
6451.32
5239.94
5990.07
5273.53
54526.9
10412.4
2863.23
4967.16
5868.43
7403.56
7289.39
9420.09
13681.3
1384.29
6893.06
5601.39
4299.27
6609.12
7013.56
2854.35
6833.84
4718.22
5853.63
5084.42
6339.8
7028.19
7950.74
56505.3
7270.75
9287.95
10418.7
7745.4
6489.48
7035.9
-1523.93
19439.7
6785.64
3551.25
6604.66
7147.35
7767.36
5512.73
15190.6
7970.52
10887.9
6610.92
553.219
6949.51
6670.83
7349.75
7763.57
8524.79
-1404.75
6561.72
6665.51
6811.58
8810.65
-812.38
5253.3
7450.78
6920.32
6640.6
6268.34
4244.41
7282.98
6417.45
5201.65
7232.99
6195.75
6419.13
8101.81
6841.45
7034.23
6336.88
7296.76
7340.11
4296.69
9057.69
5230.3
4617.63
7856.94
1539.96
5094.83
9896.81
6251.73
14785.5
6346.92
6207.43
5147.1
6781.53
7353.84
5825.64
7050.16
3161.38
5133.69
6126.63
4426.74
5208.93
8082.99
9337.03
6436.83
6034.29
5880.49
9455.06
7248.97
5508.15
5022.64
6357.07
5482.57
6917.66
7607.05
4511.45
5726.33
19934.7
5785.32
6171.06
6328.69
6425.45
6538.82
8641.77
1998.23
5493.16
6007.11
6481.16
9106.36
5702.29
4942.69
6029.06
7217.37
6435.24
62519.6
61525.4
4276.54
6491.39
9985.99
5271.04
7412.41
7526.16
6943.7
8705.31
6617.24
6457.55
-2412.28
5165.14
59986.2
6071.63
7094.98
6180.69
5477.9
6287.32
6318.85
4873.66
11814.5
5559.58
7142.12
7069.25
7020.85
2139.52
5532.22
5950.86
5195.9
3512.97
6711.72
63014.7
5659.9
7041.38
5706.46
6706.42
8672.75
5682.37
6887.38
7378.32
6700.49
6186.26
8138.59
6978.8
4462.87
-12874.9
-106.2
6069.38
5175.32
6633.88
7422.16
6384.5
7767.82
6659.14
6586.27
5018.7
5546.53
5555.85
4904.75
5201.83
6669.13
11527.4
9767.79
6378.13
5735.62
5516.24
5545.46
5648.77
5625.02
5432.02
960.655
5074.64
5495.74
6465.22
5432.53
7067.66
7445.64
6436.94
5937.18
6939.44
5271.47
4503.31
6796.46
6554.09
6065.24
5220.62
6680.57
-2529.68
6783.45
5515.03
5501.3
33099.9
6294.35
6666.26
5298.09
3154.9
6937.68
11436.6
7022.06
6880.31
25666.5
5359.68
6368.24
7162.66
6597.13
5943.64
7886.7
4234.53
5103.38
11456.2
5325.08
6812.76
3579.89
7655.64
6483.37
5026.25
3802.81
6742.16
-2416.44
280.776
4108.48
5339.93
6844.69
5446.52
6197.05
1484.6
6779.18
6966.86
6946.9
6621.61
7258.92
16661.3
6073.83
6597.03
7582.94
14713.3
-1825.05
5917.79
4096.97
13267.6
6807.47
4905.96
5960.5
-19.6708
6991.2
5290.64
6455.18
2217.95
6678.95
7236.13
10205.1
6730.94
5782.61
823.58
7182.99
4572.26
-300.397
6603.79
6373.91
6885.72
6853.09
862.788
5781.02
5582.99
7459.8
6966.84
7837.68
12091.7
6829.01
9126.6
8213.02
7324.64
6422.75
10198.1
6778.49
3940.13
15008.7
2559.92
6885.3
6957.4
7043.19
6550.98
7217.83
6761.63
5137.94
7058.05
6576.4
7023.44
6727.51
6951.46
6612.3
6984.35
4859.63
7075.4
6338.2
6892.47
9022.96
2657.87
5808.62
5958.38
6676.38
9912.92
5867.84
6033.9
6656.74
6074.61
4158.04
6443.24
6952.57
4890.57
711.699
6153.23
4598.64
7613.28
5674.93
6892.56
6959.68
5288.6
6242.35
6668.77
6451.17
6975.37
8034.48
8621.86
6981.87
12719.4
10209.6
9596.34
8136.42
6451.14
11097.9
1474.29
6777.78
6721.36
5995.18
5969.73
6496.49
6404.31
15678
30036.4
12741
2402.55
5275.31
6973.36
6474.62
10991.7
6423.96
4152.75
6898.02
5348.97
6908.54
7176.09
6475.91
7620.33
5190.47
2076.9
5906.41
5999.24
4913.02
46263
8525.49
6374.76
4417.52
6081.81
8314.35
9656.78
4967.75
5983.75
7052.05
6940.05
3609.25
7078.54
4568.44
11939.5
1975.64
6118.61
6757.25
6468.4
-1704.27
5917.32
7231.5
9557.36
210.694
7159.64
6583.3
6473.12
9663.87
1544.17
7023.6
30133.7
6654.06
5633.24
6769.97
47033.7
5615.35
6574.28
6033.49
7084.59
6663.53
8193.53
5721.67
29386.7
6490.02
5116.81
3363.51
7188.48
5481.04
10018.4
6112.58
-8778.93
5497.52
5932.72
5258.21
9344.36
10256.5
10023.9
10007.2
4707.57
7378
7580.54
-2610.24
7665.17
8682.51
5613.04
5053.46
6744.25
7472.83
7392.28
72037.4
5015.51
6344.07
8760.94
8245.27
5759.14
6567.31
5872.65
7613.05
6709.77
6714.75
6451.56
80400.9
4098.96
4783.36
65418.4
4925.75
10842.7
6878.11
6508.59
17474.7
9878.9
6074.87
80243.2
5207.5
6556.17
4504.33
4771.12
1319.26
54648.4
9186.73
6425.54
6483.81
7117.56
4804.57
11521.2
6734
5390.83
3600.43
6692.09
6737.19
8325.34
6357.62
5252.58
6315.86
7616.95
6103.32
6786.5
4827.75
3429.73
7780.74
7463.68
10733.6
6974.39
10936.6
6576.94
6363.09
7431.92
5480.87
6127.41
5690.12
6882.99
6888.28
4745.77
7038.57
19153.3
6596.41
6411.52
6965.47
7328.38
6159.15
6938.02
4999.73
6744.69
7817.32
6895.39
1981.92
5566.08
3146.69
3172.65
5448
6347.27
7275.17
7024.88
5921.26
6747.96
4456.1
3061.92
6333.43
5495.43
1383.66
6625.13
11147
8996.64
6234.53
5529.43
5987
6809.89
6127.48
54975.2
6863.33
5120.92
5857.07
6408.19
5924.24
6244.58
6878.64
7636.52
7258.47
5298.28
4912.9
7041.4
5672.14
7561.02
5533.08
6516.36
1767.76
5141.36
7688.63
5483.93
4899.23
6911.63
6899.08
1977.28
6867.71
4475.76
6960.53
3347.74
54213.2
6990.31
7461.66
9055.05
6955.62
6703.8
7228.9
6338.4
7813.24
6672.23
7518.48
6578.97
5883.66
6748.78
23456.9
6247.81
7942.1
6556.22
5583.03
6678.03
5879.91
6531.1
6890.45
5467.43
7652.28
54367.9
54769.4
8001.08
7502.9
6843.72
7227.38
6552.43
17767.1
6360.22
6800.79
4321.24
7154.78
5781.49
5309.13
4973.44
5376.8
6868.66
9015.6
14169.6
9325.51
1456.1
22134.3
8392.54
7451.11
5550.8
8554.38
21146.3
20516.9
3227.51
5186.65
5451.22
6749.5
6869.92
6212.91
2854.9
6999.9
10551.4
6581.18
6791.44
6253.17
7257.04
6210.48
5767.21
4898.89
6653.04
6999.38
4862.19
6143.73
6922.18
21563.6
5937.89
6552.47
6804.21
6678.48
6950.32
7230.84
7043.64
6501.98
29587.4
6376.07
7013.35
6773.4
7222.6
-30097.6
9811.94
6630.97
7721.6
7591.23
6489.24
5675.25
7513.06
6593.79
7318.87
6759.51
7278.71
6555.94
7297.77
7073.34
6195.35
7184.41
7306.36
6967.87
6913.56
6894.43
21100.8
7049.63
8469.05
6964.92
6627.33
7451.13
7035.25
7039.92
7034.83
5640.04
9976.71
7392.52
6794.47
7151.32
7390.43
7380.52
6644.48
7497.24
6885.49
6936.77
7225.66
7426.88
6823.21
6993.27
7240.13
7316.98
6726.5
8054.65
7024.72
7012.13
7486.54
7117.75
7024.77
7314.91
7379.7
7456.12
8861.32
7436.67
7249.22
7402.24
7164.12
7476.36
7231.28
7684.05
6890.5
7553.26
7351.56
9898.62
7302.58
6962.23
7197.99
7188.29
7088.95
7047.08
7814.87
7168.82
7243.98
7300.84
7359.45
7433.71
7168.73
5230.91
7123.62
7968.92
7307.3
9286.25
6530.7
7091.61
7131.54
6914.28
7017.17
7298.93
7210.96
7162.67
7528.29
7131.92
7117.77
7070.21
6674.86
7216.71
7209.69
7138.78
6929.55
6818.89
6959.31
-55392.5
7202.41
7272.88
7343.64
6531.45
7356.6
7178.3
7414.63
7448.72
7349.32
7441.32
6373.19
7286.07
7935.22
8265.35
8063.7
7169.77
7461.52
7356.54
20772
7300.91
7084.66
7220.29
7666.36
6839.61
7090.25
7369.32
7342.05
7659.86
5008.71
7804.71
6705.69
7686.46
6665.63
7545.54
7908.92
7977.17
21194.8
6593.77
7519
7840.45
6880.76
8207.4
7718.07
7764.75
7656.82
6932.68
9274.48
7671.87
8169.03
6919.51
6971.74
8023.45
6672.03
8564.45
7023.71
7495.24
11814.7
8066.14
7454.7
6864.59
7182.22
5401.63
6516.58
6878.29
7024.33
7355.67
6787.68
7229.91
7850.41
10047.6
10898
6771.53
3679.53
7316.78
7240.88
7241.91
11980.4
9438.67
5913.14
7012.62
12608.2
5720.09
12361.8
7078.7
8269.46
636.355
6848.34
6535.43
7275.26
7075.58
5380.01
6747.35
5326.88
7793.5
6935.12
7497.53
5047.81
7675.53
6961.12
6869.51
10770.9
7744.72
6730.69
7800.6
6915.05
8166.45
8037.16
1514.76
5553.36
7410.88
7582.82
8558.87
7034.71
6659.1
8175.61
4942.61
7627.64
7076.97
6759.73
6659.15
3752.4
6314.53
6768.06
12482.6
5198.89
7194.6
7448.18
7300.59
5581.5
2669.84
6534.98
5548.53
6958.21
7942.01
28302
8792.57
7016.5
6908.16
6830.52
7279.34
4083.44
6009.87
7107.12
6253.32
4722.87
5360.29
8807.7
54215.3
6481.97
7186.45
6763.54
6814.48
7383.66
7019.43
6711.18
7763.94
7614.01
8702.98
6692.98
-5456.42
7938.36
8038.93
7044.43
6679.57
13217.2
9238.84
7925.59
6740.58
6158.06
10951.6
7376.23
8820.77
8508.44
9980.19
86657.2
7264.05
92860
8878.62
8563.89
8197.55
10983
6611.96
7166.41
98142.6
6996.73
7001.84
5534.54
3172.18
6890.63
10340.1
9857.77
5539.27
8212.51
8450.42
9110.47
9653.31
8946.42
8905.61
7046.41
8048.62
8368.97
7899.84
6883.62
8304.57
8372.66
7542.32
7368.81
7437.81
7656.17
8197.23
6980.79
7497.94
7859.38
6993.97
7979.9
94478.3
7844.1
6969.29
7689.97
7450.98
6265.65
8851.94
8894.02
7193.47
7545.25
8487.47
8866.65
8762.67
8494.96
9212.88
2716.11
8659.92
8511.61
7248.37
7867.15
7739.09
8812.97
8433.23
7845.83
67675
8791.85
7469.99
6712.55
6816.97
7770.84
9125.79
9211.14
62531.2
4607.75
8502.15
8317.92
9118.47
7744.18
9389.73
8735
9100.46
8699.28
8860.48
9825.13
8271.35
9811.55
9470.91
7301.95
6539.92
8371.49
8460.47
9863.41
7018.4
5605.84
9743.71
10945.9
9488.49
9733.33
7989.67
10896.4
7169.22
10939.2
9456.58
10079
9027.49
9567.34
5393.72
10328.4
8671.99
10186.8
10015
9937.62
10719
10467.6
9128.82
7956.15
5762.66
6413.68
5979.13
10264.3
10371.6
10797.9
11105.5
10306.9
10952
6758.06
10955.9
11040
10943.9
11298.3
7607.62
11028.7
11093.9
10042.5
11334
5498.2
11227.4
11119.9
5989.45
6870.74
9145.37
11189.9
10877.8
11142.4
11593.8
11286.5
11467.2
11205.9
11289.7
10717
11032.1
11225.8
10817.2
6287.42
10603.5
11497.8
11333
11380.8
11272.2
11209.9
11172.5
6196.69
10827.7
10805.2
11172
11236.6
10121
6108.87
10798.2
10748.3
11031.6
10718.4
10970.2
6602.17
11173.6
10922.7
11330.3
10478
7772.59
12172.9
10488.4
10737
6709.82
11047
11551.8
10876.1
8850.5
11044.6
10790.6
9939.39
10492.5
10649.5
6859.81
10262.7
9095.55
9827.67
10107.2
9513.09
10726.4
9135.73
10879.8
5905.42
11380
5525.78
10000.1
7014.91
6559.56
10205
10132.2
9074.59
2313.39
8408.35
7399.35
6572.61
10208.5
8045.19
7394.64
8128.25
10913.5
8300.95
10837.4
8597.55
8696.92
10853.7
7156.34
6780.81
10102.3
4117.19
8623.6
13044.1
9412.82
9899.09
6614.91
8898.09
8420.63
7284.11
6213.07
9765.01
8967.42
9945.22
8412.21
11835.6
9180.16
8060.11
10806.8
9483.08
8842.48
6814.1
1709.32
6462.46
7541.7
7986.41
8412.05
8077.61
8971.62
10420.2
5681.12
2469.03
8470.72
7500.78
2443.44
6398.2
6592.42
9850.48
7808.6
7633.78
7081.92
6217.99
9006.69
6913.43
7359.71
6886.47
7683.94
4454.68
89.7375
8083.61
8088.8
5827.23
8101.52
7789.45
6711.24
7216.17
6461.27
8830.3
6751.89
7122.61
10588.9
8704.98
9278.93
4639.7
7363.53
7234.63
7024.63
6343.41
7503.57
6318.71
14018
5646.57
6968.03
11113.5
-7257.61
4622.59
-3553.57
6959.77
-868.679
9663.25
6736.27
7197.74
6269.11
16173.3
1298.17
6060.17
4819.31
6308.6
5526.19
6882.77
4772.43
6681.25
7571.54
-38262.5
7868.35
5593.35
6508.75
-3575.11
37224.1
4130.15
5620.31
989.208
5966.14
5955.67
37065
9201.48
8092.11
5444.74
8420.74
6573.25
7198.46
9693.9
6018.51
7193.58
7006.74
6278.56
8672.43
6469.68
2488.15
9490.32
5662.59
9499.23
6178.27
6803.39
3306.59
8178.45
1499.72
9569.43
6700.35
6337.65
4668.37
-2401.24
5734.91
5394.22
7153.16
9411.78
7435.2
7178.79
4757.76
6239.25
67047.1
7778.49
7103.87
5464.23
5873.35
6851.81
10105.9
5751.99
4308.65
7716.9
5438.45
5035.05
5757.51
6595.17
6299.11
5961.07
5641.08
7422.5
5282.67
2181.51
7383.96
1670.69
5653.83
5753.37
5774.62
5135.53
6531.91
6765.45
8404.98
7368.81
5126.51
5382.2
4810.29
4992.81
4930.53
4200.12
6040.19
5352.98
4636.83
5372.86
4675.94
3756.95
5108.26
5939.63
4431.85
6397.65
4819.05
7239.61
4972.64
-2082.04
4154.77
7209.44
4569.57
2954.54
3134.92
5538.52
4172.77
13985.6
949.247
3782.78
5053.26
5412.87
5367.08
4960.2
10631.5
7910.85
-2384.53
1494.07
-4301.3
7029.41
6525.42
7640.49
854.626
5038.62
2285.86
6626.15
6967.74
6214.78
4969.1
4640.68
5147.41
7436.76
-532.615
2558.08
6039.84
7186.68
7244.78
4150.38
5906.68
6283.25
6336.26
7343.76
7174.09
7277.59
7214.5
6424.55
6729.57
6816.71
4545.62
7266.43
6487.45
6096.66
6441.86
7210.08
6411.32
7335
11383
6269.43
6865.92
3888.33
37702
6842.95
6547.47
6385.63
6769.91
7499.55
11379.3
7282.89
6134.1
7338.58
6885.18
6761.09
6586.96
6874.06
7113.84
7562.33
5162.65
10496.2
8023.08
6208.09
7341.16
6636.07
7289.42
5976.6
15953.1
6206.3
4925.57
7041.74
6494.86
7050.81
6663.25
6527.65
5889.53
5892.92
4872.78
7660.5
-122478
4532.24
6750.64
-32584.2
4549.11
7924.62
8284.98
3218.99
6165.49
8089.77
-878.188
5813.09
6893.02
7257.6
7637.89
6421.67
-66.7328
5132.53
7619.96
6574.14
8135.84
207.069
-1239.48
7309.61
9691.98
6871.74
8077.94
6382.43
-386610
8544.97
6003.94
5907.02
5166.82
6059.96
5716.83
6898.4
991.163
6630.23
5979.78
2920.18
4164.71
5276.69
6554.03
6086.18
4484.97
5538.89
6246.23
7327.2
2607.92
4558.2
8134.4
6630.37
5759.5
5847.7
2513.5
6283.55
4418.06
6613.01
6702.91
6577.87
7146.78
6621.65
4966
17487.1
29421.6
110175
7092.76
7030.04
9592.3
12151.5
6902.61
6280.13
6403.71
6538.24
6455.62
6460.29
6401.45
6374.76
5546.9
5167.95
6882.84
33378.7
7463.7
8474.95
6443.45
6690.85
5528.49
10283.4
11257.5
11742.4
9679.89
18055
10799.5
11963.8
8960.39
39021.5
25241.2
5945.22
13115.7
24088.2
26609.9
6824.29
12218.9
23303.5
16922.8
26416.1
29160.9
7446.26
7589.04
9560.04
8072.51
7977
5121.35
8987.48
23520.6
3183.32
5219.13
7174.77
10129.1
6482.25
8856.48
30255.1
6941.59
8546.07
5094.3
7035.76
12374.4
7292.62
8184.42
10844.8
3924.37
7580.76
7136.92
9217.37
6091.17
3760.55
6377.32
7103.75
7265.02
7808.66
11313.1
11818.9
13559.8
12409.7
5273.03
3303.59
6569.53
6863.57
12199.6
6860.02
45725.2
9558.25
7403.74
7800.98
6957.8
11812.4
6538.58
6841.59
3045.46
7219.11
7144.66
5377.4
4164.91
6139.69
74569.5
12148.6
6469.54
6810.67
13810.1
15606.5
14589.8
20108.9
6227.87
6963.95
8436.65
14257.7
10074.8
5901.47
6454.38
6501.35
9412.51
9596.25
63494.1
40752.6
102483
68090.9
19912
47323.5
18096.1
42671
34104.4
12786.7
14011
34518
26153.9
5691.94
88773.3
6686.22
6990.55
8744.82
13287.8
6845.83
7689.03
37419.6
6914.67
10466.6
6740.99
6849.19
1891.04
9291.3
6999.9
18617
9036.68
13144.5
12352.3
9426.02
16316.2
5584.57
15188.7
105115
35240.4
5777.21
3409.3
8722.61
7252.05
7834.38
8753.05
7355.22
6295.16
6817.73
8806.96
9563.04
7662.54
7050.3
5620.25
5177.36
22682.1
27337.8
34433.1
6605.14
5444.12
8193.12
6721.11
7360.01
6754.72
6975.46
6918.48
5687.58
8573.6
12331.7
9246.31
43707.6
7588.18
16887.7
6864.15
6907.34
7745.91
7350.84
4384.39
6852.37
-5469.29
34605
72200.8
7414.01
6197.99
6841.63
4090.78
5089.58
7093.73
22010.8
8032.93
11074.2
16456.5
8445.57
32276.2
6160.83
12407.1
18805.4
27992.7
15090.2
21380.7
16149
37615.6
7640.93
6071.75
10227.1
9238.69
6578.16
3844.45
46082.6
7498.19
7248.89
9148.98
10268.9
9853.32
37681.8
5862.29
4174.74
6381.43
6556.88
7625.35
6963.86
10414.7
15135
34887
10248.7
9766.85
14728.1
35252.8
17380.2
44866
10182.9
5017.9
8850.13
6373.49
5426.34
10937
45121.1
4798.34
5090.34
6475.03
6808.52
7678.01
6998.86
6914.27
14321.4
5594.45
6150.75
7564.85
7422.66
6927.59
56574.8
5763.4
94587.3
6653.53
351.219
6783.01
6808.7
34935.5
6661.64
39451.1
6409.6
9237.36
7000.8
20092.6
10508.4
8580.21
10166.1
6192.12
6674.95
9230.08
7157.02
6890.39
5360.53
9541.27
8969.55
53521.5
6197.04
8148.55
4652.64
-22355.5
5039.02
5803.61
33643.5
5540.98
6293.63
5870.88
34049.5
6743.17
17011.2
5.16926
7762.48
5244.65
9852.46
31537.2
5702.97
6856.62
5396.21
7126.24
7348.03
7519.66
10172.2
9690.87
7918.74
9839.95
52530.3
10110.6
7071.63
6781.46
32403.4
11092.8
6753.42
32975.9
8060.51
7818.03
14610.6
6698.97
33643
8480.76
7929.71
8854.99
15881
5503.45
4933.77
46203.7
9436.38
31899.2
22199.6
10374
45590.8
4701.2
6829.27
6467.42
33228
8572.82
6263.63
19526.5
19741.8
18810.7
10051.1
7826.22
9851.05
7008.62
7352.11
6894.43
6746.09
7551.92
7871.66
1947.47
6780.08
6878.44
7597.98
7192.03
7956.41
7913.16
22787.6
7015.38
5499.42
6097.76
6056.55
6685.72
6649.55
8781.87
9152.99
10163
10003.1
7808.3
4495.96
6129.1
30012.1
52942.3
28443.8
16420.5
6020.21
6170.55
6116.98
6044.26
5613.87
6936.29
9783.84
25610
9082.49
14358.7
6860.83
6997.63
5675.32
8310.31
10146.2
9385.35
5211.19
6157.03
6253.93
9130.08
54045.8
6781.21
8861.16
8342.61
7865.57
17547.6
18013.5
7835.09
14378
9160.41
7332.21
7095.2
7904.51
5404
6828.25
-1476.03
6663.65
19437.5
34569
34398.4
94625.9
6916.65
6880.74
9664.55
1381.22
6496.26
6938.91
6118.87
4669.8
6991.18
6050.58
8694.57
4992.81
-1212.1
78422.7
7807.56
8040.02
8766.11
59242.7
7174.84
9645.37
17478.3
25236.2
23229.4
11448
8271.9
7249.77
8244.12
7016.12
7404.7
7582.73
7078.84
12475.9
9671.46
5475.55
6241.53
7496.45
7931.26
7731.22
6288.33
7738.48
8033.41
7006.63
6331.9
6524.9
6821.72
13402
14937
25359.4
28130.9
5879.55
11376.6
6645.52
6838.05
53475
40154.2
50648.3
22161.3
38259
16066.4
28744.2
4386.34
7214.36
6862.45
10515.7
7287.8
8079.91
-7797.63
7627.95
8676.9
6609.61
19228
15809.8
6273.22
57926.3
79765.2
9448.94
7404.31
7131.86
42277.7
35131.9
40567.8
7104.83
10077.1
7202.54
7066.3
7352
24112.4
11478.7
8885.92
16488.9
11311.2
8276.58
11404.2
6442.14
6710.51
5930.58
7077.01
6997.25
15838.2
21878.2
13666.1
71791.3
7071.32
7253.74
11419.8
29512.1
17604.4
25613.3
9940.56
11459
9421.63
7482.06
9531.63
8976.59
7052.66
9548.71
9263.33
9773.43
6652.79
6863.61
8099.84
6865.31
37586.8
5295.69
6853.3
7397.2
7231.36
21311.3
10633.2
6022.98
5419.88
7260.05
18558.2
12646
9463.16
6548.61
15834.7
28690.1
6710.54
12071
12882.7
5490.22
8857.84
16076.4
20426
26115.6
45781.4
20241.3
11398.5
10410.2
6519.88
5588.38
11912.6
18800.6
19010.8
15910.7
7744.94
6934.83
11127.6
11158.6
66825.6
70456.3
12032
11318.4
13511.7
15268.7
6847.45
5748.22
6472.92
45247.2
7324.45
7049.48
7742.84
6692.57
8998.52
7411.84
6696.66
5074.39
6387.27
6403.57
28379.2
6088.77
3159.52
6562.36
6772.09
6467.94
11201.8
7723.76
10773.9
8142.95
11332.9
6813.37
5646.75
6358.54
6857.75
6852.72
6823.97
7015.07
14712.2
30493.9
29359.9
6590.1
7137.84
28475.9
5998.21
6270.4
5805.25
1966.37
16631.5
10884
7362.98
9503.86
6727.29
10347.1
5649.47
8349.03
7157.26
8129.75
6111.27
8387.38
6388.98
46196.7
46739.2
9432.08
23228.5
6837.14
6164.04
6879.08
7778.84
6865.27
6554.01
7313.02
7383.88
7157.29
20349.8
6820.18
6581.3
6657.2
7657.3
7454.85
9380.84
3831.28
27236.8
14323.4
17563.5
7965.03
11072
7985.18
9284.84
7034.06
6259.54
660.865
6288.49
7917.37
7260.06
5824.87
3571.09
5108.7
7117.2
6112.1
4528.65
10049.2
5517.68
5141.13
6525.42
86322.2
3392.16
9821.6
5603.58
33302.7
6730.92
7287.8
8234.64
6087.14
14951
6371.34
6768.04
7744.99
5418.34
17534.3
8738
8497.87
10388.1
15376.9
12706.1
6900.68
5198.27
28271
9403.22
7946.15
8212.22
7301.59
7717.33
8804.43
6318.9
25140.7
90973.3
70160.6
69683.5
42426.1
1753
7290.63
9969.56
5835.75
8064.8
9819.37
8865.57
9361.11
10197.4
11065.9
9342.91
11140.4
7047.1
7591.55
50694.8
7518.84
7295.34
6881.86
9965.9
6459.46
8500.62
3248.74
1547.77
6749.26
1281.96
8730.72
7386.88
3637.05
5125.56
12061.8
7263.32
7309.13
7045.18
10346.8
20367.4
7545.17
48659
10111.6
8303.45
6599.12
6367.89
7712.98
7306.67
6521.98
8224.39
7053.39
6419.61
7333.24
6656.16
10014.4
6925.18
10299.8
9289.63
42373.3
31453.6
18692.3
17373
48695.6
8990.13
8562.46
11044.8
8359.77
6420.63
17724.9
5768.12
6530.19
5058.31
6492.52
5750.71
11405.3
5562.41
6685.87
30820.8
8285.15
7586.66
23217.4
6747.96
-7067.99
6137.59
6925.18
6911.19
2759.44
5842.59
3650.72
8059.4
8294.95
7133.17
10936.8
8658.59
6694.44
4213.04
50672.8
10044.5
51460.1
36930.1
17203
34558.2
33483
30907.4
36868
6525.48
7897.82
7808.72
8237.28
9240.05
56742.1
30616.3
38995.8
5778.11
11071.9
16895.9
16125.7
6483.86
8836.65
7192.72
7044.82
17925.9
27986
27286.4
44426.7
4907.3
5378.99
7247.01
5762.03
73391.1
50249.2
24754.3
5224.88
5183.27
9896.96
4970.63
7073.21
6516.17
7443.18
5805.67
7471.22
6999.47
7462.22
5171.47
7339.82
5354.52
6945.38
8723.46
2673.78
8427.04
7733.84
9393.13
7494.5
7490.74
21868
5287.88
32063.7
6546.41
7296.58
43698.2
6712.62
10931.9
5298.63
3815.5
8063.03
6698.09
6869.63
8545.35
10064.7
6145.62
6561.91
6918.93
-20956.1
19195.5
6457.44
7300.52
17210.5
12781
14038.3
87014.2
62255.5
7422.88
10201.9
10042.9
5493.29
8394.81
10383.1
8782.05
10143.9
15240.2
7733.69
27331.2
10454.8
5756.41
4387.77
58197.7
56398.7
7126.37
8345.31
8847.36
7570.17
6515.7
6680.85
15937.6
9980.44
11396.7
22242.1
12473.7
5997.55
7595.44
6029.26
8784.63
6715.33
27459.6
10134.4
14591.1
12319.9
11816.1
7267.89
8127.67
7558.68
7289.11
12522.8
25059.9
7176.53
4360.19
6762.84
5751.25
5918.99
8194.49
5262.95
5267.31
6734.86
7926.84
4306.78
7810.03
5996.45
7389.51
7607.69
7822.09
5918.18
87430.3
8959.06
5966.79
55101.3
14680.7
9318.95
47493.8
49614.5
5672.6
5950.05
5538.54
10207.9
7419.48
7611.65
5297.17
5960.87
24097.3
9779.31
14105.1
6778.18
26994.4
10193.5
8932.06
6545.09
7509.31
4164.19
5716.37
6047.08
5077.52
6314.21
7747.06
6822.84
7246.64
7541.21
6555.56
7436.84
7382.2
6897.11
6342.84
6912.38
6443.34
29758.7
5986.84
6416.42
8256.36
7627.81
6482.73
6681.24
10134.6
23638.3
7799.98
6524.89
7231.03
5614.86
6696.05
7567.84
7281.29
6676.8
7127.29
10197.8
6092.75
18510.3
21065.3
7028.09
7198.29
6101.46
5771.08
10194.6
702.843
6083.71
2587.81
6356.48
6878.58
9936.92
7145.8
7205.45
6039.08
6153.8
8750.63
6111.88
6964.21
7207.9
6503.91
7019.99
9958.02
7413.03
7746.4
12981.3
9530.41
15409.1
20436.4
10571.3
44970.4
6175.43
85788.9
6170.29
82246.5
17475.1
2779.46
6977.76
6732.12
8453.25
6149.96
35462.7
6145.4
14479.3
56919.7
10018.3
28797.8
10623.7
6448.5
6430.56
7716.6
7972.77
8206.35
6170.03
5740.92
6884.11
7452.47
5014.54
2623.86
25781.3
11749.1
10458.2
10660.3
6269.43
7885.45
4540.49
10078.7
6652.45
7921.47
7021.02
9621.41
7737.69
8177.94
7396.05
7754.89
1501.02
6712.96
-1695.67
6384.77
5795.03
5037.69
8450.65
10021.2
9968.77
7211.06
6868.06
6493.66
6618.6
6812.37
6875.13
8336.24
7691.9
8425.13
6331.37
7282.23
7254.68
6961.96
6976.53
8413.5
6800.62
6937.16
37932.7
14711.3
38563.7
6501.45
5508.79
8944.22
9137.54
24016.5
15507.7
10172.7
4325.57
9516.62
9775.21
7005.69
23269.1
7257.34
5204.08
6924.1
1825.09
6787.92
-5186.62
9737.63
10418.3
6130
14402.2
5770.32
6862.59
5566.61
3420.16
5892.44
6061.06
11324.8
4875.82
7180.36
8071.73
5487.04
6080.28
10555.5
32591.4
25162.4
23319.4
25465.3
33828.1
42025.2
60526.9
41197
5651.37
5634.51
5167.84
-7753.8
10034.1
9937.28
6030.87
5235.77
9949.81
34168.3
14243.5
48428.3
7796.86
26609.7
41087.6
6963.53
6918.77
6156.59
5040.59
7022.52
8282.05
6688.72
6541.34
6683.27
6739.6
6449.61
5419.63
7560.63
6666.99
5619.2
9836.79
12537.7
5601.25
-8058.31
21139.7
21441
25822.9
28879
7086.2
8494.89
9393.28
7537.68
8681.57
11358.6
6669.73
6822.68
7762.41
20568.4
10799.6
10476.6
6103.92
9904.59
39860.2
7671.64
101978
6785.48
7153
6777.21
8793.73
5620.44
9657.9
12139.3
8905.99
7645.07
8461.51
9290.44
47890
6357.9
7811.04
8802.03
6818.42
8966.72
5788.47
31930.8
6254.97
7174.44
10599.6
11337.1
7726.33
5860.18
6757.84
6775.86
6751.34
7870.96
15666.4
5763.11
9457.12
4977.92
81065.3
6692.17
10046.5
7400.52
64193.2
7026.8
6882.89
7879.67
9740.14
4435.37
6611.26
6374.06
6240.7
6564.02
6645.57
8123.97
10658
6856.08
7290.09
8774.29
7127.44
11456.6
11961.3
6316.95
2308.72
6874
7063.96
6893.2
7668.49
4751.23
6332.49
5817.76
4200.47
9065.79
9650.95
6878.44
9134.24
8021.97
9508.19
11895.3
5274.04
11108.6
10416.5
12835
6965.08
7041.24
7355.65
7605.45
7422.75
6500.87
10983.8
8121.99
6299.2
9586
9804.71
15208
21449.4
32883.5
68373.5
9536.63
6047.79
42379.3
38692.9
5536.59
13656.6
20594.1
62983.2
6221.3
31502.7
7468.24
7246.92
57681.9
5652.09
6135.05
6966.76
7516.75
5974.31
10478.9
7780.18
7007.81
3123.39
9653.1
30854.7
4823.76
7826.06
11421
25617.4
5660.21
22139.3
10359.5
25833.7
103059
70216.2
20973.4
17074.8
6461.76
6313.74
11942.5
4570.51
13363.6
11118.1
6258.77
7893.42
7916.75
21244.2
10377.1
7655.32
6349.16
7733.99
-289003
7474.71
10745.4
7464.39
11479.2
9970.5
8138.08
11646.9
6604.57
5977.01
4732.13
7684.96
6608.2
9018.73
6483.92
7018.47
5068.35
6969.58
7242.39
7453.57
6344.57
8139.73
8972.21
6022.11
5986.26
6481.36
9081.44
6832.87
6469.27
7802.2
27165.8
7590.98
7023.66
8857.71
7319.68
7278.13
7156.8
11245.4
8440.06
10162.2
8512.05
9671.01
6733.56
7611.39
8376.46
6059.67
7534.04
7265.69
13252.6
7917.07
28339.5
14788
9313.98
20945
5951.97
6442.44
6057.62
6807.7
28877.6
23035.8
22005.5
9129.74
8998.45
8147.18
5608.57
5554.8
6977.89
7077.82
19882.9
7944.32
7159.99
24242.7
11868.3
18489.1
7483.47
27094.6
37378.9
11365.3
32277
6964.14
8.88957
6070.58
6902.21
9502.42
11220.6
10885.7
7167.46
7919.38
8274.61
7726.49
5872.65
7574.08
7226.67
5111.11
6608.01
61528.9
5811.11
18788.1
6836.46
10254.8
7242.72
10280.1
8278.52
6814.27
6401.44
3387.59
6473.41
2937.79
6438.93
6346.17
4316.65
9968.53
6309.5
13094.1
5343.68
5581.79
7924.23
15951.5
100631
11168.3
9385.77
6903.97
11338.9
11271.2
8008.11
14576.9
21709.1
7504.2
7141.86
7523.44
11314.8
-3927.06
17817.2
9072.57
9721.06
4455.24
6312.68
5903.19
21128
23837.3
48156.9
51493.5
6217.97
6428.62
83871.7
273.944
14292.7
6039.8
21072.3
23338.2
7333.97
16745.3
12713.8
6180.08
6977.68
7985.51
5690.82
11913
16425.8
7286.68
10420.9
12331.6
26618.7
22634.2
4984.26
22738.8
6598.1
6847.97
7045.39
8465.54
10169.5
5025.75
4895.62
6043.52
6562.07
18827.1
6492.81
7121.07
8859.17
6631.01
9103.33
9144.47
10334.5
6714.24
10319.3
6271.75
6450.59
7595.27
19201.1
10596
7435.11
7672.04
6586.16
7262.9
3362.48
9318.42
8237.68
30391.5
20688.8
11692.6
1636.76
6413.84
9159.88
8979.21
8998.71
7191.63
10059.3
10994.6
5793.89
80865.1
6579.11
26393.8
4527.17
9227.27
5163.78
7417.61
6902.1
5364.58
7764.85
6954.14
6860.78
9777.05
7811.17
7868.93
6747.3
5851.27
7247.93
6497.45
6930.13
3936.88
6871.03
7931.39
5961.02
6589.76
6577.52
5498.23
11324.9
7050.23
5107.43
5051.9
6093.77
6691.37
5258.91
5258.4
6677.56
6672.58
3228.87
9297.32
20120.4
5892.16
21581.9
18782.4
6978.79
32698.8
6455.62
5886.51
29214.8
5456.11
7360.95
6694.74
5742.48
7230.54
344.598
5211.8
6760.49
5414.43
6706.71
6713.47
7152.71
7548.69
7515.6
5211.74
7959.74
11271.5
7196.27
6673.8
6557.66
13190
11350.5
6365.45
7665.39
7658.91
7595.67
9457.34
7088.69
6199.74
30532.8
27479.5
14661.4
12112.6
6210.08
6990.44
2590.11
6775.22
59335.7
6861.18
6921.45
7201.76
7049.9
6293.41
8100.08
11209.5
15260
20553.8
27418
6791.26
7393.83
12827.2
7854.94
7066.88
9470.03
9037.57
9778.77
6905.73
7991.51
8775.98
8975.92
5212.9
7280.39
7718.61
6489.28
5755.21
5735.49
5232.74
5452.19
6318.09
1852.64
4635.07
4236.44
7162.09
7394.63
8283.79
6680.67
41597.9
16582.7
6770.06
7133.65
5582.08
10154.7
10216.9
7559.58
7002.22
6944.95
22247.3
16970
9980.63
14902.3
4770.73
5746.31
1475.52
5799.6
5970.32
51600.9
18050.7
6123.63
17752.5
9480.44
6344.02
8899.58
3044.63
4539.24
6431.39
8099.27
8264.45
16530.8
5969.61
8749.7
7200.3
22472
8310.74
6504.19
7254.35
6372.91
5722.1
7399.09
11299.3
5639.74
6165.09
6500.97
21341.8
9124.45
8642.82
6002.04
7422.96
24928.5
6189.7
27989.1
6809.44
7349.85
6759.02
6397.9
6568.11
11266
6989.36
5001.07
5391.77
54390.9
-33.8552
9505.64
36036.9
9861.37
5405.51
7063.39
8080.89
10958.6
7259.69
7391.35
7836.44
7582.09
6452.59
23572.1
10632.1
6654.12
53214.9
4768.32
5988.89
6791.49
6661.65
6858.13
6655.41
10165
8106.28
6883.4
5486.39
22668.5
12942.2
6116.67
7323.12