/*--------------------------------*- C++ -*----------------------------------*\
| =========                 |                                                 |
| \\      /  F ield         | OpenFOAM: The Open Source CFD Toolbox           |
|  \\    /   O peration     | Version:  2412                                  |
|   \\  /    A nd           | Website:  www.openfoam.com                      |
|    \\/     M anipulation  |                                                 |
\*---------------------------------------------------------------------------*/
FoamFile
{
    version     2.0;
    format      ascii;
    arch        "LSB;label=32;scalar=64";
    class       surfaceScalarField;
    location    "1000";
    object      phi;
}
// * * * * * * * * * * * * * * * * * * * * * * * * * * * * * * * * * * * * * //

dimensions      [0 3 -1 0 0 0 0];

oriented        oriented;

internalField   nonuniform List<scalar> 
124195
(
7.24955e-05
1.20282e-05
7.87198e-06
-9.23958e-05
5.53484e-05
-6.60459e-06
-1.4424e-06
-4.73014e-05
2.18851e-05
8.98739e-06
-3.08724e-05
-6.5207e-05
0.000161062
-0.000143005
4.71498e-05
-2.62673e-05
8.74148e-05
1.84281e-05
-7.95755e-05
-9.76788e-05
-8.81271e-08
-5.13433e-06
0.000102901
3.98891e-05
1.38927e-05
-5.37818e-05
0.000218098
-0.000132264
0.000122506
-0.00020834
-0.000429048
0.000242264
0.000118487
6.82967e-05
0.000110223
-8.7983e-06
-6.66723e-05
-3.47521e-05
-1.28195e-05
2.06087e-05
7.94553e-06
-1.57344e-05
-2.73985e-05
0.000163651
-0.000120272
-1.59811e-05
-4.80546e-05
6.19284e-05
-1.65707e-05
2.69679e-06
-9.45328e-06
3.84815e-05
-2.90282e-05
0.000125559
-0.000117954
-4.95021e-07
-7.10983e-06
-4.76929e-05
-3.61638e-07
0.000126848
3.94165e-05
-7.23517e-05
-9.39126e-05
-2.01736e-05
4.7259e-05
9.97624e-05
3.70236e-05
7.79316e-05
-0.000114955
-6.21955e-05
0.000117579
-0.000163717
0.000108334
0.000148503
-0.000129723
-0.000172844
0.000154064
0.000107811
-5.50692e-05
-5.27421e-05
-9.78747e-05
-0.000177246
0.000262018
1.31028e-05
-2.59457e-06
9.98332e-09
1.56819e-05
-1.30974e-05
1.13467e-05
0.00015483
-0.000166177
-7.95707e-05
7.03345e-05
4.43136e-05
-3.50775e-05
-0.000172967
0.000149323
-0.000161893
0.000185538
6.46367e-05
3.30685e-06
-4.83651e-05
-1.95784e-05
-2.47949e-05
0.000120251
-0.00018065
8.51948e-05
6.15848e-05
6.1756e-05
-0.000123341
4.31519e-05
-0.000212136
0.00016195
7.03327e-06
0.000168048
-0.000105019
-5.78701e-05
-5.15846e-06
-2.0994e-05
3.87868e-05
9.46151e-06
-2.72542e-05
-0.000111283
0.000126106
-1.4823e-05
-6.38911e-05
-2.19537e-05
8.58448e-05
-0.00032948
3.96096e-05
0.000326317
-3.64461e-05
-5.64686e-05
0.000325057
-0.000227159
-4.14296e-05
0.000141343
-0.000118404
-2.29397e-05
2.96928e-05
4.48569e-05
-7.45497e-05
0.000164655
-4.60566e-05
-0.000145997
5.49555e-06
-3.20018e-05
-6.52588e-06
3.30321e-05
2.89997e-06
1.60699e-05
-1.34744e-05
-0.000108325
-0.000105477
0.000178172
3.56306e-05
8.81433e-06
-5.05142e-06
-5.29125e-05
4.91497e-05
5.19731e-05
0.000183162
-0.00025993
-1.64969e-05
-5.62073e-05
6.89615e-05
3.74279e-06
2.20454e-05
1.45312e-05
-2.29305e-05
-1.36462e-05
-4.75419e-05
-8.72583e-05
0.00016569
-3.089e-05
0.000217578
-1.19183e-05
-0.00020566
-1.22831e-05
1.42195e-05
-1.27666e-05
1.08299e-05
0.000254615
3.70197e-05
-0.000189456
-0.000102179
3.09209e-05
0.000243195
-3.79987e-05
-0.000236117
0.000132886
0.000129745
-0.000278357
1.57259e-05
3.5713e-06
1.61343e-05
-1.68057e-05
-0.000118229
7.00096e-05
7.92167e-05
-3.09971e-05
-1.30924e-06
9.00619e-06
-1.02915e-05
-0.000235762
0.000199907
0.000179928
-0.000144073
-0.000184395
7.66442e-05
0.000107751
0.000154684
-8.42377e-05
0.00013052
-0.000200966
5.27214e-05
-0.000111904
0.000139758
-8.05749e-05
7.95719e-05
-5.81019e-05
7.33233e-05
-9.47934e-05
-0.000138451
-5.255e-05
0.000191001
0.000115997
-0.000119363
-1.53741e-05
1.87403e-05
0.000215546
-8.09299e-05
-0.000202679
6.80634e-05
-7.06582e-05
3.113e-05
0.000101682
-6.21538e-05
5.47365e-05
2.55003e-05
-8.02368e-05
-5.29603e-05
0.00041614
-0.000147634
-0.000188512
0.000128374
-3.68896e-05
9.70275e-05
4.33215e-05
0.000100559
-9.69919e-05
-4.68889e-05
-0.000104823
-9.24205e-05
9.58387e-05
-0.000101288
9.78701e-05
-1.93188e-05
9.00199e-06
1.03268e-05
3.80199e-05
0.000104583
-7.06256e-05
-7.19777e-05
-7.88536e-09
3.6619e-05
6.53189e-06
-4.31433e-05
0.000211774
-3.52773e-05
4.20692e-05
-0.000218565
1.99554e-06
1.32882e-05
-2.7567e-05
2.87045e-05
-1.42161e-05
0.000168626
-0.000183114
0.000165939
-0.000158649
-7.29017e-06
-0.000214313
7.1031e-05
-2.96852e-05
-2.32587e-05
-3.99592e-06
-7.10905e-05
9.8345e-05
-5.39897e-07
-0.000103288
0.000111245
-7.41796e-06
-7.61818e-05
1.92289e-06
0.00011758
-1.12308e-05
8.26848e-05
-0.000280843
0.000209389
-4.68265e-05
9.13262e-05
4.08545e-05
-4.12835e-05
4.28998e-07
-8.37375e-05
-2.55737e-05
8.60525e-05
-0.000135679
0.000130136
1.82877e-05
-1.27449e-05
6.05025e-06
-3.62129e-05
-5.35749e-05
-7.34617e-06
-2.37506e-06
5.05757e-05
-0.000202531
0.000127383
0.000208346
-0.000133198
-1.11694e-05
0.000171289
-0.000160119
0.000153902
-7.72582e-05
-0.000118022
0.000161682
5.65958e-05
-0.000100256
2.63488e-05
0.0001235
-0.000258459
0.00010861
2.44683e-05
-3.40881e-05
1.16152e-05
-2.76608e-05
-5.2109e-05
4.85287e-05
3.12412e-05
-0.000142148
-0.000227988
0.000317176
8.64267e-05
6.88623e-05
-0.000155289
4.957e-05
-2.82449e-06
-3.74165e-05
-9.32914e-06
-2.91041e-06
-6.60673e-05
6.84378e-05
0.000166031
-5.78423e-05
-0.000164485
0.000230022
-7.69516e-06
0.000299472
-0.000294511
-0.000134294
0.000129332
-2.544e-05
-2.05368e-05
-3.86346e-05
8.46113e-05
-1.98858e-05
-8.63559e-06
-6.52196e-06
3.50433e-05
4.66275e-06
-5.50747e-05
5.0412e-05
8.41107e-07
3.17542e-05
-3.25952e-05
2.68185e-05
-2.2236e-05
3.16801e-05
-0.000179174
3.38985e-05
0.000113596
-7.35748e-05
4.59736e-05
6.08123e-05
-3.3211e-05
4.87589e-05
-4.91334e-05
-5.73501e-05
5.77246e-05
-4.18487e-05
3.54502e-05
-1.41834e-05
2.05819e-05
0.000146091
0.000257161
-0.000367989
-3.52626e-05
3.89376e-05
6.24443e-05
-5.82301e-05
-3.75696e-05
1.55187e-05
-3.94663e-05
6.15172e-05
2.02962e-05
-1.22171e-05
-8.48954e-05
7.68162e-05
0.00012341
1.87174e-05
-0.000121831
-2.81628e-05
-1.36858e-05
4.91677e-05
-3.65836e-05
-1.25841e-05
0.00015443
1.25602e-05
-0.00016699
-0.000205862
0.000293298
-2.62108e-05
-6.12253e-05
-1.87228e-05
-0.000217039
6.04835e-06
0.000119679
-0.000125728
0.000102528
-0.000194948
7.43317e-05
0.000248778
-0.0001047
-0.0002994
0.000155323
-0.000304233
-3.54448e-05
-0.000109079
1.66905e-05
0.000127833
0.000101182
-4.1723e-05
-0.000284078
0.000224619
-5.08557e-05
0.000103577
-4.03352e-05
1.01624e-05
2.20257e-05
8.14702e-06
0.000151953
-0.000152691
6.23228e-05
0.000107655
-7.57972e-05
-4.61668e-05
1.43094e-05
-1.4826e-05
7.70812e-05
-0.000116938
5.46831e-05
0.000273615
-0.000112698
-0.000324362
0.000163445
-8.58147e-06
-3.85504e-05
4.51416e-06
4.26176e-05
-3.01455e-05
-9.52747e-05
5.78095e-05
6.76107e-05
-3.60399e-05
9.07764e-05
-2.58787e-05
9.15139e-05
-6.21101e-05
-3.52503e-06
-0.000148522
0.000178623
9.64329e-05
-0.000126534
0.00010884
-5.03221e-05
-5.85181e-05
0.00011673
-7.59918e-06
2.4072e-05
-0.000133202
1.63366e-05
-3.17524e-05
1.54158e-05
-2.19914e-05
3.4642e-05
-1.26506e-05
-7.3437e-06
4.67058e-05
5.00022e-05
-8.93645e-05
1.0542e-05
-2.53905e-05
2.96483e-05
-1.47998e-05
0.000151673
-0.000162843
0.000210064
-3.25438e-06
1.12883e-05
-3.80625e-05
-8.8975e-05
2.49178e-05
-1.89773e-05
5.18691e-05
-5.78095e-05
1.79109e-05
-6.81456e-05
1.34819e-05
3.67528e-05
0.000301814
4.04799e-05
-3.08596e-06
-5.32925e-06
-0.00011937
0.000127786
2.98951e-05
-1.65962e-05
-3.64291e-05
2.31303e-05
-6.01182e-05
1.65184e-05
4.14049e-05
2.19491e-06
5.43142e-05
6.02084e-06
-4.33536e-06
-5.59998e-05
1.26811e-05
0.000143978
-3.82408e-05
-0.000118418
8.79316e-05
-9.22707e-05
4.33914e-06
0.000142994
3.41064e-06
1.72461e-05
5.17963e-05
0.000118072
-0.000280973
0.000111105
3.09292e-05
-5.07323e-06
-2.5856e-05
-0.000142827
-6.51014e-06
0.000149338
0.00017996
-6.59637e-06
-0.000183307
9.94379e-06
-2.50688e-05
8.16602e-07
2.42523e-05
-2.80199e-06
0.000190291
-9.58041e-06
-0.000177908
-5.54938e-05
7.12296e-05
3.71692e-05
-5.2905e-05
5.58382e-06
1.29919e-05
-1.06235e-05
2.44501e-05
2.6265e-05
1.46155e-05
-4.08806e-05
-1.62876e-05
5.21771e-05
-3.58894e-05
0.000115503
8.66428e-05
-0.000129238
-7.29073e-05
5.10221e-05
-6.08133e-06
-0.000104259
5.93181e-05
3.96347e-05
3.71052e-06
-9.09487e-05
4.76035e-05
1.28905e-05
8.17011e-05
-4.76509e-05
-4.69406e-05
-4.24362e-05
4.08109e-05
3.70756e-05
2.97485e-05
-4.667e-05
-1.85715e-05
3.54929e-05
-2.39881e-05
0.000187648
-9.07021e-05
-7.29578e-05
-6.12468e-06
5.18482e-05
-2.03516e-05
-2.5372e-05
1.59073e-05
4.35107e-05
-1.02502e-05
-3.05614e-05
-9.32579e-07
2.80888e-05
3.40516e-06
-3.23e-05
2.37752e-05
8.52478e-06
-4.61753e-05
-1.75109e-05
5.40468e-05
9.63968e-06
3.49281e-05
-0.000154442
0.000119514
2.76698e-05
-2.14903e-05
9.36879e-05
-9.98675e-05
-6.13689e-06
0.000139196
-0.000133059
-3.43512e-05
1.42147e-05
2.01364e-05
-6.60568e-05
-1.29465e-05
7.30796e-05
5.92355e-06
-0.000281679
7.56539e-05
0.000130071
7.59543e-05
-2.52507e-05
0.000107757
-8.25065e-05
-6.33477e-05
3.10885e-06
-0.00014332
0.000203559
-1.16676e-05
0.000125733
-9.72086e-05
-1.68568e-05
5.62412e-05
-1.71015e-05
-4.84003e-05
9.2603e-06
3.44186e-06
-4.48602e-05
9.16943e-07
4.05013e-05
-1.19084e-05
1.02679e-06
1.08815e-05
7.16534e-05
1.56684e-05
-0.000141631
5.43093e-05
0.000218054
-9.29432e-05
-4.23962e-05
-8.27145e-05
-3.52885e-05
8.61569e-05
-3.31812e-05
-1.76872e-05
0.000134687
-3.8442e-05
-7.95346e-05
-1.67107e-05
0.000216595
-0.000130265
1.68704e-05
-0.000103201
0.000262906
-4.47176e-05
-5.89464e-05
-0.000159242
-7.73899e-05
-6.11757e-05
0.000138566
-0.000150036
3.77832e-05
3.2848e-05
7.94047e-05
1.9055e-05
0.000250859
-0.000141476
-0.000128438
0.000102958
4.28842e-06
-0.000107246
-6.39023e-06
-8.95842e-06
-1.42469e-05
0.000119766
6.33049e-05
-0.000168824
-6.45567e-05
5.27576e-05
-4.18024e-07
1.25779e-05
-1.10486e-05
-1.52924e-06
-3.15187e-06
-0.000176975
0.000176215
3.9116e-06
4.28011e-06
-8.66659e-06
0.000273427
-0.00026904
-9.26697e-05
0.000206851
8.60201e-05
-0.000200201
-1.53498e-05
-2.3463e-05
3.2688e-05
-7.66954e-05
1.00513e-05
4.13493e-05
2.52946e-05
-5.98805e-05
6.94659e-05
0.000262013
-0.000271598
-1.6465e-05
1.02544e-05
-2.80136e-05
3.42241e-05
0.000111105
-0.000111322
2.62799e-05
-2.60633e-05
0.000113282
-5.87059e-05
-2.39917e-05
-3.05846e-05
0.000121328
-0.000115796
-5.53179e-06
5.40313e-06
-8.0446e-06
1.20993e-05
-9.45782e-06
-0.000168832
0.000208531
0.000114306
-0.000154005
-3.66985e-05
-2.11861e-05
8.21278e-05
-2.42433e-05
-2.8675e-05
8.29953e-05
9.63972e-05
-0.000150717
0.000134069
-8.26604e-06
-0.000125803
0.000177677
-8.18381e-05
-5.54575e-05
-8.14107e-05
0.000105928
3.09401e-05
-7.90723e-05
0.000109017
0.000208381
-0.000238325
5.18422e-05
-2.65863e-05
-2.52559e-05
0.000126334
4.7927e-06
-0.000131126
-2.93734e-05
-0.00011907
0.000115316
3.31274e-05
6.12085e-05
-0.000176517
5.56232e-05
5.96856e-05
-6.81864e-05
-3.4934e-07
5.86003e-05
9.9355e-06
-6.04805e-05
-3.27309e-06
4.14465e-05
2.2307e-05
7.94986e-05
-0.000256357
0.000145718
3.11402e-05
-2.88299e-06
-1.88784e-05
-8.02611e-05
0.000102023
-0.000104716
-6.22704e-05
-3.48118e-06
0.000170468
-0.000129272
0.000146026
6.7553e-05
-8.43069e-05
0.00014587
2.72131e-05
2.51189e-05
-0.000198202
-3.84367e-06
7.38699e-06
3.74634e-05
-4.10069e-05
-0.00019695
6.75805e-05
-5.92249e-05
0.000188594
-4.39452e-05
0.000121571
-7.76257e-05
-0.0002877
0.000111219
0.000107011
6.94706e-05
-0.000224688
-0.000151406
0.00018944
0.000186653
-0.00014163
8.90064e-06
0.000132729
-0.000164576
-0.000141837
0.000325468
7.37086e-06
0.000113957
-0.000232499
-0.000207714
6.0579e-05
0.000379635
0.000157034
6.16792e-05
-6.04615e-05
-0.000158252
-0.000319588
0.000264784
9.42325e-05
-3.94291e-05
0.000125785
7.55894e-05
-0.000110495
-9.08795e-05
4.94985e-05
2.29119e-05
-7.97543e-05
2.58998e-05
-2.17987e-05
3.43876e-05
-3.84887e-05
-4.9281e-05
2.91322e-05
0.000133431
6.25355e-05
-0.000124601
-0.000112072
0.000174138
0.000240149
-0.00023042
2.55461e-05
-3.52747e-05
-1.43258e-05
-2.16612e-06
1.6492e-05
-7.68663e-05
0.000103878
2.9777e-05
-5.67886e-05
-2.64698e-05
-5.83e-06
-4.94086e-05
5.62189e-05
-2.14765e-06
0.000115386
-0.000305674
0.000244263
-5.39748e-05
0.00131032
-0.00169356
0.00108616
-0.000702913
4.68218e-05
-5.09253e-05
1.19305e-05
-7.82692e-06
8.845e-05
-1.77815e-06
-6.41996e-05
-2.24724e-05
-0.000123315
0.000737275
-0.000874637
0.000260677
0.000138186
-2.43226e-05
-0.000201411
8.75472e-05
9.19037e-05
-8.29668e-06
-0.000112981
-1.70492e-05
8.70687e-05
-8.47488e-05
1.47293e-05
0.000225996
2.05334e-05
-9.3003e-05
-0.000153526
0.000199902
0.000221387
-0.000169051
-0.000252237
2.9149e-05
-4.30866e-05
1.39376e-05
-6.92348e-05
1.06812e-05
-5.19587e-05
0.000110512
-4.13453e-05
4.91664e-05
4.79629e-05
-5.5784e-05
6.25227e-05
-0.000461148
0.000245175
0.000153451
6.67878e-05
-8.12062e-05
1.44184e-05
-7.88691e-06
-3.28795e-05
4.52935e-05
-4.52707e-06
0.000177882
-0.000162553
0.000113288
-0.000128617
3.67259e-05
-7.66147e-06
-2.90645e-05
-0.000388146
0.000220665
0.000102673
6.48087e-05
0.000178448
0.000142183
-0.00026387
-5.67608e-05
-0.000254223
5.15891e-05
9.7894e-05
0.000104739
6.00744e-05
-8.22623e-06
-5.14664e-05
3.47119e-05
2.07788e-05
-4.02434e-06
3.9315e-05
-4.23442e-05
3.02931e-06
2.64795e-06
-9.99843e-05
0.000202669
-0.000105332
-6.31148e-05
6.25946e-05
8.2151e-05
-8.16308e-05
0.000221773
-0.000250561
0.000264723
-0.000235935
1.50238e-05
-5.10112e-06
-3.97289e-05
2.98062e-05
9.10603e-05
-0.000116935
-0.000116204
0.000142079
-0.000134123
0.000171343
-3.72192e-05
5.30887e-05
0.000532074
-0.000982748
0.000397585
0.000194686
-0.000133
0.000116602
-0.000178288
0.000181371
-6.27356e-06
-0.000117554
-5.7543e-05
-0.000109463
0.000157534
-0.000149723
0.000101653
-5.75785e-05
1.40705e-05
0.000149373
-0.000105865
9.33645e-05
-0.000225039
0.0001204
1.12746e-05
0.000164379
-0.000193548
0.000138009
8.13947e-07
7.21126e-05
6.87714e-06
-7.98036e-05
0.000150073
-0.000162017
1.19441e-05
-3.33497e-05
-5.65877e-05
-6.83444e-05
0.000158282
7.29382e-05
0.000138467
-2.62805e-05
-0.000185125
2.67301e-05
-4.07822e-05
6.941e-05
-5.53578e-05
-4.53388e-05
2.82896e-05
-0.000139542
6.1678e-05
0.000250985
-0.000173121
6.04062e-05
5.22152e-05
5.54265e-05
-4.06066e-07
1.85136e-05
2.64687e-06
9.21785e-05
-0.000113339
5.34139e-05
-1.85015e-05
-3.49124e-05
0.000127391
5.00563e-05
-2.02666e-05
-0.000157181
-3.85466e-05
0.000185008
-0.000146461
-4.85985e-05
8.49175e-05
-4.42048e-05
7.88589e-06
2.92287e-05
9.61372e-05
-0.000125366
-0.000136097
-4.15194e-05
0.000141605
3.60112e-05
0.000133388
1.4264e-05
4.92311e-06
-0.000152575
1.44777e-05
-4.45613e-05
6.074e-05
-3.06564e-05
4.28665e-05
-7.69803e-06
-3.51685e-05
-3.09564e-06
5.02186e-05
7.38878e-07
-4.7862e-05
0.000167324
-7.38285e-05
2.99148e-05
5.04809e-06
2.23994e-05
-3.71943e-05
9.74693e-06
6.3334e-05
-4.02444e-05
-4.08408e-05
1.77511e-05
-3.60902e-05
-1.25719e-05
-2.63885e-05
7.50507e-05
0.000110812
-7.73238e-06
-6.61969e-05
-3.68828e-05
-3.57161e-05
-2.03427e-05
3.48827e-05
2.1176e-05
-3.1214e-05
6.11591e-05
-2.99451e-05
5.46694e-05
-2.64607e-05
-2.82087e-05
-2.95251e-05
-0.000980872
0.000174116
0.000836281
-5.30473e-05
-3.01368e-05
5.10705e-05
3.21136e-05
1.21081e-05
9.63125e-06
-7.62962e-05
5.45569e-05
7.36395e-06
5.58166e-06
-2.9509e-07
-1.26505e-05
8.10865e-06
4.6246e-05
-0.000180083
0.000125728
0.000101439
4.61746e-05
-0.000183697
3.60829e-05
6.31934e-06
-8.19833e-06
1.87889e-06
-0.000195849
-0.000195054
0.000297236
9.36663e-05
4.3595e-05
-5.21311e-05
-4.26612e-05
5.11974e-05
-0.000147609
9.19576e-05
-1.58437e-05
7.14953e-05
-1.38003e-05
-2.6889e-05
9.37538e-07
3.97518e-05
4.11168e-05
6.46667e-06
-4.75834e-05
0.000245434
-8.38557e-05
-2.50734e-05
-0.000136505
-0.000798467
-0.000268972
0.00128816
-0.000220725
0.000163077
-0.000224987
2.81974e-05
3.37123e-05
0.000112967
0.000158322
-0.000238562
-3.27264e-05
-5.82594e-05
-9.57448e-05
5.63254e-05
-3.80576e-05
-1.64223e-05
5.44798e-05
5.39632e-05
-0.000123655
4.32272e-05
2.64645e-05
-0.000934171
-0.000373981
0.00184723
-0.000539078
-6.84353e-05
1.84964e-05
2.0128e-05
2.98109e-05
-0.000314685
0.000715363
-0.000872931
0.000472253
-0.00106259
0.000852969
0.000618945
-0.000409325
9.12524e-06
8.60775e-05
4.73105e-05
-0.000142513
-2.02255e-05
9.52753e-05
8.21884e-06
-8.32687e-05
-1.999e-05
3.57619e-05
-5.31722e-05
3.74003e-05
-3.24727e-05
1.76874e-06
8.23426e-05
-5.16386e-05
4.73279e-05
4.78638e-05
-6.13905e-05
-3.38012e-05
-3.84433e-05
0.00018938
3.70232e-06
-0.000154639
0.000482614
0.00029501
-0.00206662
0.001289
-3.36611e-05
-4.8541e-05
8.17117e-05
4.90308e-07
-4.84501e-05
-6.74241e-05
-0.000203714
-2.90938e-05
0.000139813
-0.00034498
0.000234261
-1.98424e-05
1.05539e-05
6.58911e-05
-5.66027e-05
-8.36158e-05
-0.00021517
0.000129954
0.000120658
-0.000322852
-4.37427e-05
0.000245936
0.000593272
-0.000416399
-0.000107442
-6.94312e-05
-0.000145412
0.000163713
-2.73559e-05
9.05509e-06
-3.69139e-05
-1.48292e-05
5.17432e-05
-2.82236e-05
2.93477e-05
-5.13083e-07
-6.10858e-07
6.51011e-05
2.65558e-05
-3.23159e-05
-5.9341e-05
-3.61077e-05
4.15101e-05
-5.73035e-05
5.1901e-05
-4.3572e-05
0.000127849
-0.000126835
4.25575e-05
-5.97612e-05
-0.000129041
-4.6149e-06
0.000193417
0.000153382
0.000101582
-6.91339e-05
-0.00018583
-2.06426e-05
1.31184e-05
3.32369e-05
-2.57127e-05
-1.80974e-09
-5.90023e-05
5.09631e-05
8.04105e-06
-0.000739309
-0.000941198
0.00170583
-2.53234e-05
-0.000415583
0.000360863
0.000235482
-0.000180762
-7.49468e-06
0.000117166
-0.000251761
0.00014209
9.08e-05
-0.000106053
-0.000492644
0.000507897
-0.000334905
0.000445165
-0.000318491
0.000208231
-9.38118e-05
0.000194914
-8.70801e-05
-1.40226e-05
0.00017759
-7.08173e-05
1.17308e-05
-0.000118504
5.39212e-05
-1.12304e-05
-0.000109379
6.66883e-05
-1.53829e-06
-0.000151851
-8.39554e-05
0.000237345
-6.59258e-06
0.000132152
-0.000194894
5.67288e-05
0.000224226
-8.60612e-05
0.000103806
-9.9989e-05
1.59518e-06
-5.41257e-06
-0.000631164
-0.000322896
0.000204205
0.000749855
-5.50656e-05
3.43149e-05
-0.000124188
0.000144938
-1.64798e-05
-6.48047e-05
0.000113634
-3.23501e-05
5.62957e-05
-1.39362e-05
-7.71352e-05
3.47757e-05
8.33009e-05
-5.62062e-05
-6.28689e-05
3.57743e-05
-1.52979e-06
1.71383e-05
-0.000213146
0.000197537
-1.30166e-05
7.05677e-06
-6.80695e-06
-6.3965e-05
0.000267523
-0.000232335
2.87766e-05
-0.000109651
2.35964e-05
2.62937e-05
7.39219e-05
-4.65743e-05
-1.89163e-05
-8.43132e-06
-1.41862e-05
-5.08652e-05
1.19613e-05
5.309e-05
-5.0619e-05
0.000248168
-0.000219309
2.17605e-05
-9.87642e-05
4.64277e-05
3.39539e-05
1.83826e-05
-0.000128761
0.000118792
-8.856e-05
9.85293e-05
0.000763283
0.000433834
-0.0015118
-2.36637e-05
-0.000105601
6.8748e-06
0.00012239
-0.000115011
-3.6005e-05
0.000100397
2.85195e-05
-1.76666e-05
8.33476e-06
-1.91875e-05
-2.16523e-05
-1.79486e-05
2.70715e-05
1.25294e-05
-8.37515e-05
0.000165579
1.29122e-05
-9.474e-05
-6.69824e-06
0.000425641
-5.54144e-05
-0.000363529
-0.000736749
0.00129851
0.000324016
-0.000885775
-8.03767e-05
-0.000123325
0.000119951
0.000330434
6.22841e-07
-9.97273e-05
-0.00023133
-2.62875e-05
-1.77127e-05
5.44723e-05
-1.0472e-05
-0.000118426
1.41683e-05
3.54074e-05
6.88506e-05
3.65503e-05
-1.75189e-05
3.7355e-05
-5.63865e-05
5.21436e-05
6.70658e-05
-7.08207e-05
-4.83887e-05
0.000124203
-0.000210747
0.000306888
-0.000220344
6.86453e-05
6.61335e-05
3.08006e-05
0.000174565
4.56196e-05
-3.14621e-05
-0.000188723
-0.00176681
-0.00119135
0.00180744
0.00115072
0.000103482
-0.000160554
-5.84394e-05
0.000115511
9.73418e-06
5.87041e-05
-4.07193e-05
-2.77191e-05
5.57059e-05
-0.000109421
9.53208e-05
-4.1606e-05
7.11133e-05
1.42117e-05
0.000178775
-0.0002641
0.000278712
-0.000401864
-0.000421211
0.000544363
6.73086e-05
-1.58672e-05
-3.06862e-05
-2.07551e-05
0.000117144
-4.12846e-05
1.90492e-05
-9.49086e-05
1.60387e-05
0.000217349
-0.000130987
-0.000102401
-1.74843e-05
4.11171e-05
-1.28548e-06
-2.23473e-05
-5.34694e-07
-3.61447e-05
3.58341e-05
8.45156e-07
4.49501e-05
-8.40932e-05
5.54401e-05
-1.62969e-05
2.248e-05
5.78471e-05
9.33071e-05
-0.000173634
2.3556e-05
1.81703e-05
3.40559e-06
-4.51316e-05
3.21877e-05
-9.50952e-06
-2.26783e-05
3.08822e-05
-1.06293e-05
-2.0253e-05
8.51117e-05
-7.90821e-05
3.12084e-05
-3.7238e-05
-0.000140976
0.000222455
7.69066e-05
-0.000158386
9.02271e-05
0.000110498
1.53057e-05
-0.00021603
4.03602e-05
-1.39124e-05
2.70129e-06
2.63555e-05
-2.00781e-05
-1.52892e-05
9.01191e-06
0.000103592
2.40075e-05
-5.0805e-05
-7.67942e-05
0.000107223
-0.000211903
4.91891e-05
5.54905e-05
-1.22198e-05
-0.000174733
0.000174026
1.29259e-05
-9.00512e-05
7.18123e-05
-7.44009e-05
9.26399e-05
-0.00132229
0.000632608
-3.8601e-05
0.000728281
-1.25938e-05
1.71364e-05
-1.08136e-05
6.2709e-06
-0.000442523
0.000956955
-0.000432457
-8.19747e-05
-0.000113819
-0.000114648
0.00026501
-3.65431e-05
-0.000212218
0.000358451
0.000788905
-0.000935137
5.74664e-05
-3.589e-05
-8.7095e-05
6.55185e-05
0.000750542
-0.000941952
0.000412728
-0.000221319
-6.502e-05
4.22088e-05
1.26356e-05
1.01756e-05
0.00113055
-2.01447e-05
0.000303517
-0.00141392
-6.94326e-05
8.36097e-05
7.91874e-05
2.94458e-05
0.000160878
-8.68418e-05
2.64712e-05
-9.03412e-06
-1.7437e-05
-8.38852e-06
-6.13507e-05
5.45266e-05
1.52128e-05
-5.38663e-05
9.15407e-06
4.13427e-05
3.36953e-06
3.6444e-05
0.000104827
1.87265e-05
-0.000159998
-0.000715142
0.000531379
0.000598971
-0.000415209
2.49554e-05
3.51223e-05
-0.000169729
3.05406e-05
6.67214e-05
-5.85595e-05
-3.87025e-05
-7.59813e-05
0.000148847
-4.34196e-05
4.77473e-05
-7.06312e-06
-1.2042e-05
-2.86421e-05
-9.84603e-05
4.08023e-06
1.69638e-05
7.74164e-05
-0.000339752
-0.000362728
4.68225e-05
0.000655658
0.000266481
-0.000167669
-8.43316e-05
-1.448e-05
-0.000111982
2.84474e-05
2.01931e-05
6.33419e-05
1.76908e-05
-2.97197e-05
-8.35006e-05
9.55294e-05
-2.20797e-05
-5.63101e-05
3.03405e-05
4.80492e-05
0.00100381
-0.00120467
0.000241383
-4.05252e-05
-0.000130564
-5.05469e-06
0.00010936
2.62582e-05
-6.52794e-06
-1.48864e-05
2.14144e-05
-5.45157e-06
1.14186e-05
2.16598e-05
-2.76268e-05
2.52893e-05
-7.82755e-07
-2.45065e-05
7.35525e-06
-6.02702e-05
1.74573e-05
3.54578e-05
3.81351e-05
8.55835e-06
-4.66935e-05
0.000126782
5.01753e-05
-0.000108312
-0.000747725
7.9941e-05
0.000780109
-0.000112325
6.2249e-05
0.000168298
-7.54807e-05
-0.000155067
9.0665e-05
-2.44785e-05
-0.000115544
4.93572e-05
-6.95111e-05
0.000100154
-6.65691e-05
3.59257e-05
0.000169176
-0.000473999
0.000371139
-6.63154e-05
-4.79307e-05
-3.1132e-05
5.33816e-05
2.56811e-05
-4.5589e-05
6.39926e-05
3.55596e-05
-1.27866e-05
2.95387e-07
4.5034e-05
-3.25428e-05
0.000180184
-6.00454e-05
-0.000142785
2.26461e-05
-0.000429958
-0.000544608
0.00115244
-0.000177878
-4.99364e-05
1.00214e-06
4.89342e-05
-0.000154992
0.000118863
-2.82778e-05
6.4406e-05
-4.77739e-05
5.29273e-05
-4.121e-05
3.60565e-05
-1.96067e-05
-2.7755e-05
0.000220402
-0.000173041
6.43184e-05
1.91744e-05
-2.56814e-05
-5.78116e-05
6.11894e-05
-6.87411e-05
-8.77923e-06
1.63309e-05
-5.50902e-05
-2.2393e-05
0.000169484
-9.20004e-05
4.78856e-05
-5.10979e-05
-1.82857e-05
2.14979e-05
-9.74673e-05
3.15379e-05
5.01329e-05
1.57967e-05
-3.21063e-05
-3.19298e-05
5.84907e-05
5.54512e-06
2.03082e-06
5.13704e-06
-3.92742e-05
3.31187e-05
-5.17604e-05
-9.63691e-05
3.97197e-05
-5.50066e-05
4.00827e-05
-2.47959e-05
1.87139e-05
5.75735e-05
-0.000184299
0.000108011
-2.85981e-05
1.9804e-05
5.52208e-05
-4.64267e-05
-5.15578e-05
3.55771e-05
2.6859e-05
-1.08783e-05
-2.53059e-05
0.000146028
-4.60446e-05
-7.4678e-05
1.98382e-05
8.29007e-05
-0.000102739
0.000963123
0.00054633
-0.000419514
-0.00108994
-7.1684e-05
5.32172e-05
3.17481e-05
-1.32814e-05
2.54424e-05
0.000140684
-0.000101808
0.000890054
-0.000257503
-0.000698978
6.64269e-05
5.93359e-05
0.000135641
9.26492e-05
-0.000287626
4.4147e-05
-7.60768e-05
7.28559e-05
4.35048e-05
-0.000102411
-1.39499e-05
3.50417e-05
-2.29006e-05
-9.731e-06
-2.40999e-06
5.14163e-05
-6.60006e-05
-7.75181e-07
1.53595e-05
5.61633e-05
-9.37808e-05
6.83054e-05
-3.06877e-05
-0.000126385
0.000126074
1.3948e-05
-1.36362e-05
0.000182543
0.000191808
-9.50273e-05
-0.000279323
5.0925e-05
-0.000109841
-2.52845e-05
8.42009e-05
0.000171164
-0.000265587
3.3971e-05
6.04521e-05
7.36608e-05
2.9411e-05
-4.60772e-05
-5.69947e-05
-5.05232e-05
4.94008e-05
1.12251e-06
3.61865e-05
-0.00021268
-6.86101e-05
0.000245103
6.45471e-05
-3.45821e-05
-1.70744e-05
-5.37405e-05
5.21179e-05
-6.4055e-05
6.56777e-05
-1.7733e-05
-1.57412e-05
3.32138e-05
2.60334e-07
-6.85209e-05
-1.415e-05
-4.02521e-05
0.000122923
-1.94759e-05
-0.000147381
-2.97089e-05
0.000196566
-0.00020993
1.42662e-05
0.000159269
3.6395e-05
1.09267e-05
-7.88687e-05
-1.11641e-05
7.91062e-05
-2.71379e-05
7.02788e-05
6.50077e-05
-3.59393e-06
-7.35353e-05
1.21215e-05
-8.64138e-06
8.11261e-05
-5.73945e-05
-1.50902e-05
-0.000152026
-1.61513e-05
0.000133112
3.50657e-05
4.62466e-05
-3.01529e-05
-3.96738e-06
-1.21265e-05
1.73634e-08
-0.000135473
0.000169926
-3.44697e-05
-3.34335e-05
1.53594e-05
-2.1356e-05
3.943e-05
-9.26065e-05
4.12672e-05
-2.03448e-05
-6.54118e-05
0.000261078
-5.71832e-05
-0.000138483
-0.000102227
1.48335e-05
-2.45889e-05
-5.01397e-05
1.51351e-05
-2.27818e-06
3.72827e-05
-8.08944e-06
7.15026e-05
-7.90137e-06
-5.55119e-05
0.000105116
6.60211e-05
-0.000171138
0.000147805
-6.97732e-05
6.68259e-05
-0.000144858
0.00114472
-0.00166351
0.00172186
-0.00120307
-0.000316247
0.000333887
8.13381e-05
-9.8978e-05
2.73971e-05
-8.88285e-05
4.96929e-05
1.17384e-05
-1.10953e-05
5.87384e-05
-4.83406e-05
6.97548e-07
-2.42799e-06
-0.000291696
9.92301e-05
-5.44991e-05
0.000159616
0.000216876
-0.000212147
-5.92283e-05
-0.00162813
-7.6337e-05
0.000400853
0.00130361
3.90978e-05
-3.38193e-05
9.75018e-06
-1.50287e-05
0.000102264
-2.68617e-05
-9.56282e-05
-1.10281e-05
-1.24837e-05
-1.50572e-05
3.85689e-05
0.000288639
-0.000169074
-1.07849e-05
-0.000108781
-6.74679e-06
0.000195886
-5.96098e-05
-0.000129529
0.00131244
-0.000746645
-0.000769615
0.000203819
-0.000113192
5.78449e-05
7.11763e-05
-1.58296e-05
5.66777e-06
6.39904e-06
-8.46067e-06
-3.606e-06
-2.6392e-06
-9.33092e-07
4.44158e-06
-8.69272e-07
-0.000159797
-4.79658e-05
-4.1343e-05
0.000249105
-3.67148e-06
-7.32386e-05
0.000100164
-2.32536e-05
0.000183838
-0.000256022
5.9619e-06
6.6223e-05
1.01862e-05
-1.67141e-05
-4.52602e-06
-1.08181e-05
1.53442e-05
-3.7671e-05
5.39983e-05
5.10141e-05
-6.73413e-05
4.81114e-05
2.71054e-05
-4.59175e-05
-2.92992e-05
6.65758e-06
-5.91959e-05
3.33094e-05
1.92288e-05
-4.88692e-05
-2.42658e-05
-2.95219e-05
3.17608e-05
-2.82614e-05
1.80625e-05
-2.1562e-05
-1.78367e-05
5.81796e-06
3.77665e-06
8.24202e-06
1.97383e-05
4.34068e-06
-6.30716e-05
3.89926e-05
3.64938e-05
-7.94009e-06
-4.01477e-06
-2.4539e-05
2.06338e-05
-2.3845e-05
5.27145e-05
-4.95035e-05
-4.2937e-05
8.40585e-05
-4.11214e-05
1.14228e-05
2.93904e-06
-1.9382e-05
5.01993e-06
9.99266e-05
-4.94223e-05
1.04201e-05
-6.09244e-05
-0.000197109
0.000128803
-0.000354644
0.00042295
-5.05843e-05
7.84591e-05
4.45514e-05
-7.24262e-05
-1.71121e-05
2.43553e-05
1.73819e-05
-2.46251e-05
2.31905e-05
-1.14323e-05
-6.88933e-06
-4.8688e-06
7.35736e-05
3.37517e-05
-5.8348e-05
-4.89773e-05
-3.06408e-05
1.79083e-05
-1.02774e-05
2.301e-05
-0.000154831
0.000246139
-2.02751e-05
-7.10328e-05
8.13473e-06
-6.1225e-05
5.30903e-05
0.000307153
-0.00021287
-0.000404048
0.000309765
5.85595e-05
4.00274e-05
-7.97134e-05
-1.88735e-05
-1.15514e-07
-4.01784e-05
4.02939e-05
-4.68417e-05
0.000132558
-1.98777e-05
-6.58384e-05
-0.000583275
0.000844304
-7.15097e-05
-0.00018952
-3.2132e-05
-6.82941e-06
-2.56496e-05
6.46111e-05
-3.50257e-05
4.76615e-05
-4.10839e-05
2.84482e-05
-8.99587e-06
1.49734e-05
-1.19075e-05
5.93003e-06
0.000104855
0.00055539
-0.000155821
-0.000504425
2.35714e-05
6.54652e-06
-3.14745e-05
1.35655e-06
-9.08538e-07
-1.72199e-07
-4.54548e-06
5.62623e-06
-0.000396773
0.000322568
7.17763e-05
2.85806e-05
4.74928e-05
-6.18797e-05
-1.41938e-05
-0.000436239
6.30265e-05
0.00221273
-0.00183952
-1.10405e-05
8.77544e-05
-1.773e-05
-5.89839e-05
-4.56027e-05
3.3218e-05
3.21531e-05
-1.97684e-05
-9.87345e-05
0.000100708
-9.92153e-05
9.72415e-05
-4.62745e-06
-4.42884e-05
6.80273e-05
-1.91117e-05
4.49954e-05
5.92714e-06
-0.000184577
0.000133654
-3.74407e-05
0.00014401
-4.57448e-05
-6.08249e-05
0.000468201
-0.000419038
-5.58613e-05
-6.64519e-07
1.36031e-05
2.50222e-05
-3.79607e-05
-1.37587e-06
2.81252e-06
-2.34519e-06
5.03694e-06
-8.51736e-06
4.58593e-06
-1.10552e-06
9.11454e-06
7.70703e-05
-5.6492e-05
2.26308e-05
-8.11331e-05
5.85023e-05
-4.41603e-05
1.07367e-05
3.34236e-05
2.774e-05
4.97201e-05
-8.32982e-05
5.83819e-06
2.91584e-05
-6.43329e-05
-5.66797e-07
3.57414e-05
3.89624e-05
-1.05599e-05
-2.84024e-05
0.000135856
2.30463e-05
-7.41749e-06
-0.000151485
0.000439746
0.000749505
-0.00112443
-6.48238e-05
-2.37701e-05
-1.38275e-08
-5.19211e-05
2.79706e-06
-0.000103663
0.000100202
3.90786e-05
-8.43436e-05
-4.33472e-05
8.86123e-05
-3.70833e-05
3.46301e-05
2.45328e-06
2.28372e-05
-3.39427e-06
-1.94429e-05
5.23389e-05
-5.37818e-05
9.08224e-07
-1.67542e-05
5.03786e-05
6.8127e-06
-4.04372e-05
3.03755e-05
3.58829e-05
-6.62584e-05
6.27446e-05
1.32562e-05
-5.37112e-05
-2.22896e-05
-7.30883e-05
-4.27251e-05
0.00017125
-5.54367e-05
3.86801e-05
-3.56327e-05
-3.32212e-05
3.01739e-05
0.000158928
-5.16071e-05
-1.49686e-05
-9.23523e-05
1.35018e-05
-0.000317695
0.000278463
2.57296e-05
-0.000125435
-0.000127302
-3.04584e-05
0.000283196
-4.14006e-05
8.46088e-06
4.5185e-05
-1.22452e-05
8.26405e-05
-3.07005e-05
0.000225426
-0.000277366
-0.000542396
0.00132321
-2.40218e-05
-0.000756791
-0.000691278
-0.00137278
0.00124522
0.000818846
-0.000222104
0.000150017
6.24203e-05
9.6671e-06
-6.32518e-05
3.17392e-05
-3.83593e-05
6.9872e-05
0.000587851
-0.000969148
0.0004566
-7.53029e-05
8.38069e-06
1.6876e-06
-1.10998e-05
1.03165e-06
1.79806e-06
-1.96305e-05
1.78322e-05
-0.0002026
0.000153946
8.83425e-05
-3.96888e-05
-1.98242e-06
-9.12562e-05
9.45199e-05
2.75494e-05
-2.77075e-05
-2.71297e-05
2.72878e-05
2.16788e-05
4.08505e-06
-1.04308e-05
-1.5333e-05
-7.40897e-05
-3.01792e-05
6.80156e-06
5.66909e-05
-2.62055e-05
-7.35436e-05
4.30583e-05
0.000413393
-8.98694e-05
8.43138e-05