/*--------------------------------*- C++ -*----------------------------------*\
| =========                 |                                                 |
| \\      /  F ield         | OpenFOAM: The Open Source CFD Toolbox           |
|  \\    /   O peration     | Version:  2412                                  |
|   \\  /    A nd           | Website:  www.openfoam.com                      |
|    \\/     M anipulation  |                                                 |
\*---------------------------------------------------------------------------*/
FoamFile
{
    version     2.0;
    format      ascii;
    arch        "LSB;label=32;scalar=64";
    class       volVectorField;
    location    "1000";
    object      U;
}
// * * * * * * * * * * * * * * * * * * * * * * * * * * * * * * * * * * * * * //

dimensions      [0 1 -1 0 0 0 0];

internalField   nonuniform List<vector> 
65206
(
(-42.623 -88.5151 -2.23505)
(1.41799 -41.2692 2.55655)
(-26.7527 -26.6326 0.64894)
(-28.4576 -74.9552 -1.28077)
(10.7049 -57.4776 2.85736)
(-56.1549 -3.25378 -2.65586)
(2.50524 -168.804 0.688288)
(5.33657 -168.358 13.4169)
(-1.2012 172.338 -51.9048)
(40.4597 -73.1717 -9.24714)
(-16.9 -7.97665 2.54338)
(1.67929 -134.12 2.88587)
(2.20738 -156.705 0.850847)
(4.64795 -150.137 0.521664)
(4.22036 -135.071 5.5484)
(2.63635 -160.238 0.478777)
(3.99188 -152.059 2.3041)
(2.44525 -151.039 1.14748)
(2.32834 -126.608 2.9866)
(-3.3065 -81.1925 9.79976)
(9.7381 -99.1847 17.2352)
(-4.05004 -96.2579 1.73252)
(8.41415 -139.432 20.3654)
(1.38689 6.78509 -10.3442)
(3.11148 -170.117 7.54449)
(1.14587 -147.336 3.55333)
(2.45237 -171.433 7.79469)
(2.70296 -31.6981 14.2805)
(9.32235 -127.799 24.5556)
(0.791813 -136.268 3.62518)
(-3.26186 -122.315 5.97106)
(0.370413 -82.8879 9.91767)
(-20.707 -24.4533 3.8859)
(3.15813 -117.738 13.0208)
(18.9823 -80.8742 1.7912)
(25.7454 -159.132 34.0919)
(15.444 -160.422 19.5044)
(-80.3614 -104.36 4.34224)
(-3.85667 -56.5424 3.9577)
(2.82999 -142.293 5.67372)
(16.5891 10.4445 -8.2444)
(12.5056 5.62903 -7.82639)
(-0.20389 -114.75 4.56349)
(-15.8588 28.8948 -22.4263)
(-6.22781 -93.4704 19.277)
(13.2981 -46.6124 0.673169)
(-9.57206 -18.6276 2.17243)
(-11.8385 -127.531 7.41864)
(8.89154 -192.264 28.4972)
(-33.09 -20.6338 -8.25863)
(11.2092 -175.451 29.994)
(10.0814 -160.032 39.6817)
(44.0566 -116.096 -1.95517)
(7.2312 3.43734 -8.34712)
(0.165442 -60.9513 -7.44681)
(-1.35422 2.83551 -8.23254)
(9.89353 -162.776 23.9803)
(2.88872 -158.831 6.34327)
(5.3487 -182.959 12.5764)
(-8.32388 -130.343 7.71634)
(-0.500633 -153.948 6.5526)
(23.0927 -197.389 53.1251)
(-1.15392 -99.4109 -4.18917)
(-10.1086 -146.62 7.83508)
(19.2766 -50.4938 -34.5761)
(-21.7237 -96.717 2.38662)
(-9.00128 -138.009 8.82569)
(-5.10407 -178.112 5.62941)
(-10.51 -93.1604 14.1046)
(1.93522 -161.741 5.47139)
(-4.2583 -162.323 3.24286)
(4.54824 11.4461 -8.49743)
(-11.9217 -19.3869 -67.506)
(-20.3761 -20.5735 8.63424)
(3.87181 -168.221 19.0218)
(-55.8875 -30.7553 -25.8952)
(-1.5427 -116.261 14.341)
(0.526692 -187.016 8.73354)
(2.15253 -176.691 5.48897)
(23.3209 -10.4581 18.0633)
(0.997586 -184.764 5.61295)
(-11.7797 -94.3093 8.04725)
(2.01209 -193.644 18.0239)
(2.39501 -172.291 3.35721)
(0.879331 -177.466 0.481054)
(20.8932 2.69858 21.4597)
(11.2493 -103.575 8.33204)
(25.0128 13.462 21.7725)
(0.656622 -174.133 0.206761)
(9.58006 -160.736 23.6344)
(5.34993 -177.587 11.9035)
(0.320968 -145.089 4.24592)
(36.1672 -92.1388 0.154613)
(2.42021 -210.368 3.47913)
(-54.1423 -53.3575 -17.5228)
(-31.9038 -38.3127 -4.46009)
(-0.0983911 -164.532 21.0131)
(-5.22154 -163.119 4.47481)
(-4.01992 -35.1195 -13.3522)
(1.92222 -190.718 2.48293)
(5.3733 -180.06 12.2119)
(0.641061 -174.135 30.6913)
(21.2933 -186.028 54.1028)
(25.3997 -48.5477 1.51325)
(-35.7808 -57.5487 5.44064)
(31.7133 51.578 2.01728)
(-45.3794 -0.53776 1.3374)
(-54.5235 -57.6941 -5.24326)
(46.0508 -110.276 14.6169)
(-18.7305 -114.642 5.42819)
(24.614 -43.4741 -0.492014)
(-16.7739 -27.8921 7.79532)
(1.02453 234.305 -3.867)
(-5.73684 -104.406 2.93503)
(-6.44072 44.1674 7.4326)
(-19.3524 -59.4172 -9.51847)
(-35.3248 -75.1149 -7.19853)
(-18.547 -26.5717 11.6324)
(-12.4933 -28.3716 2.63533)
(7.08807 -162.375 14.7081)
(20.2966 89.7788 -17.7305)
(8.87652 -161.763 20.3678)
(2.334 -151.692 4.22141)
(-1.06488 -170.525 3.56677)
(-0.01457 -141.363 4.21484)
(-30.9652 -135.977 9.98934)
(-0.0906136 -170.555 9.33679)
(-35.8815 55.2399 22.3163)
(65.8357 -132.862 10.5432)
(-2.89083 -106.498 3.63787)
(-12.7043 16.5057 18.3108)
(0.00123282 -127.229 3.22002)
(-2.77487 -58.7132 -2.92881)
(28.8888 -18.2742 30.9647)
(67.3191 -172.672 -4.30187)
(12.6905 -38.3374 -2.6111)
(30.8071 -15.9212 42.6648)
(-14.8374 -113.56 4.52609)
(-26.8412 -35.3829 -5.75627)
(6.94164 -143.32 -3.74988)
(-8.03041 -96.4569 -0.383645)
(-51.789 -35.5221 6.82514)
(-55.7353 11.3396 -27.2418)
(-24.9018 -25.8628 7.58291)
(30.8978 -18.5123 19.5172)
(0.0577062 -18.2624 4.92968)
(2.86826 -166.901 7.19461)
(5.98107 -166.866 12.777)
(-10.3281 -92.9431 2.05326)
(11.2081 -46.4549 -0.0625178)
(-19.7163 -36.6183 -7.00837)
(4.02202 -168.701 18.0182)
(6.1139 -99.5258 -0.591003)
(37.5625 6.00052 -5.38778)
(-15.6252 54.2414 6.13258)
(17.8669 39.6625 7.45548)
(7.49366 -127.655 -9.7056)
(2.73637 -124.283 -2.59467)
(1.29235 -132.084 3.66859)
(7.47499 -122.354 24.9006)
(-21.7049 -25.7456 0.539202)
(4.56701 -122.3 -2.98703)
(11.3377 -108.563 -0.944206)
(-14.2698 -20.7426 2.76689)
(6.91925 -132.52 0.321027)
(0.388581 -44.6538 10.9432)
(-23.4664 -28.9731 10.8995)
(-23.781 -41.0889 -14.6309)
(-36.2928 -31.6447 0.359345)
(58.8768 -6.76752 -14.401)
(19.1438 -105.631 8.72348)
(-4.64539 61.2833 14.9056)
(0.110166 -42.6923 -13.3757)
(8.58722 -53.1877 0.931435)
(-21.9443 -24.7385 11.0758)
(-23.8518 40.7455 -0.511959)
(6.46684 -118.701 -4.86891)
(-23.9246 -86.4145 3.64231)
(-8.36623 -39.6778 3.67691)
(1.9727 -19.5823 -0.612169)
(7.03023 -27.4085 1.97878)
(18.0774 -17.1461 22.3141)
(4.92824 -157.088 23.37)
(17.3455 -41.4397 7.30421)
(6.25761 -145.383 14.4631)
(-5.87069 -33.4311 1.22553)
(-43.129 -35.1834 -30.3705)
(-0.394968 -138.154 25.3403)
(4.2107 -134.066 -1.56704)
(22.1315 -82.2272 13.4812)
(29.2018 -128.533 -25.5544)
(-3.502 -34.1965 -1.47136)
(-12.7131 -20.3281 -0.0659135)
(-6.43635 -11.1458 -3.8577)
(27.165 -66.4907 -0.459756)
(-0.818959 -85.9191 14.2776)
(3.46904 -44.9011 -1.25789)
(4.93237 -131.445 -2.53946)
(32.4437 -138.903 10.4931)
(11.894 -128.374 -2.02717)
(4.34847 -134.155 -1.60829)
(4.92722 -127.126 -2.74546)
(5.43949 -142.072 -5.50117)
(2.79534 -137.089 -3.08384)
(3.42215 -129.595 -3.26403)
(7.13711 -86.4227 -0.313014)
(-9.51466 -47.2675 -6.00805)
(-11.3583 -2.37605 2.92932)
(6.50137 -163.364 -9.44368)
(5.36025 -128.826 -4.29039)
(17.6895 -137.238 9.41431)
(-37.1415 -88.9558 5.89519)
(10.4766 37.6823 -11.4947)
(5.16562 -113.052 28.0279)
(-19.402 4.78912 12.3958)
(8.93262 -133.776 -5.9667)
(-77.4089 -71.6006 17.985)
(4.58856 -148.891 -5.48976)
(-7.72373 2.4548 1.23383)
(19.6138 -131.469 3.92332)
(1.14946 -145.498 -2.10038)
(4.42885 -153.597 -3.80334)
(4.37052 -167.125 -10.7831)
(-3.42687 -149.328 4.82061)
(2.64838 -104.507 -5.29582)
(26.5202 -159.852 -1.76485)
(-5.34765 -54.623 -2.54809)
(4.65223 -148.571 13.84)
(-35.3889 -79.0325 -6.99193)
(3.71505 -125.953 -8.09807)
(0.370326 -167.792 -3.16872)
(-8.63203 -139.231 0.821643)
(50.52 -120.946 7.15962)
(2.63297 85.5417 -19.2103)
(0.115759 -79.5533 -10.335)
(5.20141 -161.424 -6.27062)
(18.1268 -86.9759 0.37573)
(5.84093 -21.3254 -2.01853)
(6.8054 -125.831 -3.07935)
(0.788315 -158.455 -4.67956)
(31.3878 -136.385 -20.1221)
(-9.94033 -124.991 48.3089)
(4.37486 -131.626 -4.75945)
(2.79982 -134.624 -2.75951)
(4.66204 -146.28 -6.0072)
(-15.7141 246.18 -34.4037)
(10.2953 -158.861 -10.8723)
(5.6831 164.16 9.47324)
(28.1738 -77.3185 -14.2921)
(30.2742 -23.7181 17.6247)
(-30.8326 -27.1585 6.13424)
(-33.8174 -101.173 27.7222)
(-21.7867 -73.9104 13.0704)
(56.6964 -119.268 18.0671)
(-8.09101 -18.6067 0.136211)
(-4.47155 38.0127 -19.3568)
(7.7458 -30.4399 1.39894)
(21.1054 35.5089 8.54084)
(-1.80326 266.173 -15.2666)
(26.8311 1106.13 -55.0119)
(25.1879 19.2006 5.53192)
(27.4828 -35.062 9.48809)
(6.9675 821.223 -41.2778)
(40.7386 -87.6439 -3.86124)
(-21.2638 -63.8201 -7.32992)
(33.5585 27.1085 5.15268)
(-5.56745 163.484 43.7912)
(-0.631094 205.255 -14.2471)
(-24.7412 -43.1888 -20.8669)
(26.8672 -72.5917 -28.3001)
(7.14522 -87.0893 -1.82421)
(2.50462 170.406 -7.05751)
(78.8154 -7.00032 1.75243)
(1.02795 -44.1076 -2.5467)
(7.16651 -148.695 16.4576)
(-27.3919 -29.94 1.71541)
(8.25087 -106.616 16.0504)
(24.5029 -175.046 44.9668)
(21.8021 -112.728 8.83141)
(-3.63232 -101.215 5.41118)
(-29.3278 -14.4067 14.3294)
(-14.1884 -30.1623 -2.48709)
(15.9679 -170.588 -17.075)
(-2.29333 120.783 -4.41963)
(20.2173 333.753 -20.638)
(-17.3567 -8.3075 -4.19003)
(-74.6578 -39.0074 16.4728)
(10.3078 -180.421 31.1394)
(-26.9169 513.331 -29.922)
(4.12341 -152.594 9.58575)
(7.61303 -33.4875 67.1298)
(4.16678 -142.513 21.7476)
(31.0919 -83.8107 -28.1182)
(-33.3564 -66.226 -11.3207)
(-3.32559 -130.649 2.02714)
(-29.9177 -63.638 -12.5033)
(0.972082 -185.568 9.19749)
(28.7294 -85.8563 -14.5066)
(35.8779 -81.0396 5.80799)
(13.8686 -60.6753 1.59889)
(36.4922 18.8571 7.59675)
(-30.2672 185.52 -20.7864)
(0.920932 -79.9475 8.34503)
(-15.8882 -122.017 0.859268)
(18.7695 -57.7237 -7.83794)
(0.741093 -178.285 0.977484)
(-42.8388 -90.5149 15.8187)
(19.9059 -176.235 44.2675)
(48.8272 -12.6147 43.666)
(-24.311 -84.5868 -3.14918)
(3.44186 -115.311 -1.16789)
(-135.116 -46.2578 33.5645)
(-22.5734 -39.2544 -2.48126)
(-27.7702 -30.956 -0.828334)
(6.91781 -34.2548 28.2746)
(-33.3039 -77.8706 -7.31601)
(14.9249 -28.9376 -1.32767)
(-15.4645 -28.702 -4.54581)
(15.7369 -43.2587 2.17963)
(-31.9401 -40.1306 11.9302)
(-34.1979 -17.8419 0.861472)
(-62.0144 -21.6002 -7.1494)
(56.2668 31.1425 1.33092)
(-1.07858 508.286 -18.7781)
(21.7934 -66.1318 32.576)
(44.2497 -39.3908 -3.01952)
(-5.9665 -9.22812 5.80062)
(-3.78362 67.7014 9.04025)
(-37.1588 -66.9029 -9.23799)
(-3.01927 -7.27858 0.657901)
(32.4222 214.059 -11.3224)
(-54.9371 -9.35682 -9.23117)
(16.3039 -73.2409 5.12912)
(-5.53195 1.13733 23.6396)
(-49.7648 -9.85676 0.579551)
(40.1511 -108.518 0.588488)
(15.6444 605.062 -32.1351)
(-3.2965 -137.62 33.0392)
(92.2199 -100.287 0.596215)
(-53.4264 -8.25218 -1.15956)
(48.2025 43.7419 -0.11834)
(-12.3256 -56.9452 -6.49507)
(-1.72135 1014.44 -31.6488)
(-24.9535 -29.0207 6.69166)
(-34.2358 758.938 -52.6904)
(33.4033 560.913 -6.76409)
(-28.4455 -52.7623 26.8553)
(-8.69127 -59.609 -7.05462)
(0.450849 62.5423 -15.7615)
(-46.8808 -42.1375 4.59846)
(36.0743 -30.9292 1.12585)
(36.8348 -68.9928 -11.635)
(-68.8002 1349.16 -41.8651)
(2.3362 -13.7745 20.4326)
(-1.14119 142.786 4.98771)
(273.646 8.1432 91.7815)
(-27.1385 -43.7098 -1.39676)
(24.0139 -121.742 1.15853)
(12.6911 157.141 -11.9405)
(-8.30076 306.966 -32.8585)
(61.3851 -65.314 -20.7213)
(15.9095 -61.7573 1.4975)
(-15.2378 -5.68138 1.49631)
(-16.8965 -40.5413 7.8235)
(-10.5368 16.8385 -17.3473)
(262.475 -47.9963 43.1016)
(42.174 28.11 15.9582)
(40.186 -150.77 -15.8307)
(-1.0456 20.8004 -5.51173)
(9.62786 -61.0876 -0.223464)
(-13.978 865.405 -46.145)
(0.612807 275.669 20.5981)
(65.74 -159.939 -17.1297)
(17.1908 581.961 -17.3506)
(-9.21233 315.861 -35.4895)
(30.6535 -78.1821 13.2546)
(-52.6836 37.8195 -22.2681)
(-26.8217 70.4351 -27.317)
(48.3247 -117.604 7.0182)
(4.15851 -132.469 5.22821)
(12.5517 128.709 40.9665)
(51.818 -97.8596 5.369)
(2.18435 355.035 -37.5215)
(57.1495 -78.4946 22.7198)
(-31.7615 52.9314 -7.44824)
(-44.7272 -6.33448 9.73061)
(-14.8318 70.9818 6.3156)
(14.6647 -158.269 1.89508)
(-30.6154 5.51111 -1.86789)
(17.438 -167.52 46.5227)
(29.7173 -56.2407 6.99615)
(-13.5687 -15.8368 54.3583)
(17.7505 39.2736 1.10542)
(1.14887 101.775 8.16085)
(8.5317 -49.659 30.3756)
(80.3855 -9.05991 93.096)
(-16.789 897.676 -56.2738)
(25.6712 -70.4601 -5.98196)
(15.0153 34.981 9.78171)
(-16.2741 4.67141 21.4066)
(5.9906 -11.4074 -10.8256)
(-18.6581 -75.2954 -4.8828)
(4.61938 275.87 0.960838)
(-39.0754 651.632 -41.7498)
(-18.9193 -75.5557 -5.81663)
(33.7974 -167.113 -34.6878)
(11.7402 -25.7099 3.9437)
(87.3077 -53.2245 31.8702)
(15.8684 -17.9439 -14.3354)
(21.6299 -58.3718 -2.61993)
(-14.2727 281.415 2.23884)
(-19.8197 -73.9085 -7.70595)
(34.6416 -100.906 18.4057)
(-32.364 1508.8 -67.7679)
(-41.0255 -69.9113 -9.23666)
(-13.2288 -39.8757 11.6749)
(-10.357 -58.1128 -2.80844)
(48.7224 -122.666 7.24421)
(-8.77429 441.837 -125.473)
(-28.4666 -19.7216 17.1393)
(46.9259 -61.0885 25.7157)
(70.2839 -75.91 11.3246)
(-19.2865 -15.4594 0.174292)
(-30.8744 -29.9721 1.87611)
(59.402 -32.0753 26.7895)
(7.47223 -139.811 -6.23969)
(-12.7472 4.78692 31.3457)
(29.4925 -26.6939 1.40993)
(-2.23345 30.3397 4.13209)
(-24.1528 -39.2306 -8.3853)
(47.4244 -104.065 2.46401)
(84.1614 -102.059 -2.57406)
(-23.3581 -39.5449 -2.38221)
(-3.81268 -20.0448 -1.62716)
(12.065 50.0939 -5.72715)
(15.2836 -100.022 1.94655)
(7.16489 -142.172 -6.86618)
(-54.8806 -6.24381 -5.41499)
(4.57586 594.021 -4.913)
(-12.6036 3.89925 12.7125)
(25.5619 571.488 -30.1207)
(50.8527 -106.505 21.7491)
(29.3639 698.181 -46.1523)
(-4.39173 41.1877 -19.7449)
(12.4064 532.947 5.88379)
(20.7365 -58.7567 1.67856)
(-7.82655 879.489 -50.5195)
(-36.3649 -69.8429 -9.32579)
(-46.1096 -72.64 -7.389)
(23.079 8.7529 0.072411)
(-20.7956 27.2839 -13.3733)
(25.135 -27.0458 13.9334)
(-21.3691 88.8581 -35.9857)
(3.60191 465.763 -0.0455349)
(35.911 -89.7164 -2.68207)
(-18.114 61.996 9.0014)
(-45.1735 -68.8052 -3.70378)
(-0.101948 13.9345 -11.6207)
(-26.522 49.8966 -6.22006)
(-0.684916 373.138 -26.5231)
(20.8342 135.12 15.6422)
(-21.4099 -62.891 -2.33426)
(-40.745 -26.6904 6.71169)
(43.3644 8.81257 23.7277)
(32.3669 747.827 -41.6353)
(-37.2148 135.036 42.9559)
(1.22851 18.1469 1.97048)
(-13.8248 -14.8264 -3.87406)
(13.386 29.5139 3.72124)
(-21.9328 -25.3891 26.0161)
(-46.4715 -9.12359 6.02666)
(-20.6733 -73.3272 -5.76414)
(-20.6273 354.606 -26.1593)
(69.6677 20.0737 -36.7589)
(197.733 -7.81309 -9.54403)
(-27.4714 -22.5969 33.6363)
(-5.01888 184.922 32.7571)
(-43.5663 -43.5156 8.44225)
(-7.87688 -54.835 -7.00588)
(-17.2649 20.2565 -22.5071)
(71.667 -179.463 17.4878)
(14.2742 755.834 -25.9433)
(38.1813 62.1208 -4.61511)
(51.9723 -108.516 16.9723)
(12.922 -46.7433 -1.3009)
(46.2469 -53.1276 7.83715)
(-13.3841 21.5081 2.93146)
(-47.8705 -2.49011 0.0646248)
(-6.23716 138.917 -13.8519)
(0.977656 -42.8582 -2.2259)
(3.40291 -48.1876 -9.02441)
(-75.1674 -39.1884 23.6419)
(-94.0331 -36.3955 13.409)
(17.2873 84.0691 -25.1323)
(11.2907 -29.2388 12.5144)
(2.89725 -206.124 -17.3952)
(19.1852 33.9245 -7.51137)
(17.5938 -35.7614 1.23274)
(44.8337 -74.1554 -39.7685)
(5.55118 -109.803 1.2433)
(15.5047 582.005 -21.8993)
(-33.0639 -14.0032 -34.3062)
(-22.2052 104.494 -14.5454)
(-43.2476 380.387 -21.4699)
(-3.00902 141.676 -12.1126)
(-71.108 -25.3165 37.5136)
(33.7351 -51.2736 -2.87382)
(-9.12579 45.4879 1.87135)
(31.3237 -17.3533 -33.6601)
(-13.4722 41.0876 14.094)
(65.1741 -75.3024 -5.23095)
(23.0571 69.2108 -32.025)
(25.9481 -68.4314 14.7468)
(40.7891 -189.454 43.9889)
(20.4711 41.8094 2.10072)
(-55.3237 -0.359602 -0.903441)
(18.1757 -130.29 16.1432)
(5.98781 -38.0885 0.788617)
(41.79 30.8215 -38.0207)
(14.0991 11.1675 -21.8971)
(-38.6611 -18.7128 4.35479)
(49.1731 -110.78 10.8973)
(34.6189 94.6273 -0.590366)
(-47.1699 -61.5373 2.47732)
(-26.9578 -55.6499 28.7677)
(32.4892 -42.3252 13.1453)
(-34.4062 -30.4912 -0.505778)
(-2.58644 76.5381 -0.131159)
(-0.732977 -23.4464 3.35011)
(29.0161 -87.9014 15.456)
(8.77367 36.0238 5.6774)
(-29.5348 -14.942 -42.0211)
(23.6132 -138.686 7.73554)
(-20.1687 -62.4732 -6.50169)
(-47.568 -31.5083 3.87503)
(27.7518 -35.5224 -4.6353)
(-160.935 -124.152 -6.04405)
(21.7954 145.501 -17.4711)
(38.2267 1113.17 -3.03463)
(-11.469 25.677 18.7058)
(13.0608 49.9424 -22.8539)
(-45.7393 -2.3196 0.493455)
(4.25108 174.248 -4.51918)
(-146.721 -117.87 -4.48857)
(-139.839 -111.038 -1.36254)
(-92.0883 779.025 -72.2255)
(-10.7725 -27.754 -1.83245)
(-4.01931 -54.0791 -8.53069)
(-19.6728 1.75028 2.06938)
(6.87046 148.884 2.73709)
(-150.153 -103.4 -15.8633)
(0.378536 970.805 -30.0098)
(-36.1735 -40.4944 27.5461)
(-0.435665 -3.63244 2.98908)
(6.65418 -5.38824 -4.80065)
(83.8201 -141.022 25.9706)
(61.4059 19.2932 10.5162)
(-12.7027 142.717 10.2183)
(1.13261 20.0715 2.00881)
(16.1701 -5.85169 -2.93325)
(-34.5728 -1.25248 27.1399)
(-41.0967 -41.4986 10.7039)
(-25.4655 17.7493 -13.7932)
(-73.225 -119.433 9.9649)
(-28.4174 10.5277 -17.4574)
(-9.03984 -2.13564 -5.59524)
(-31.9585 -27.1004 2.51672)
(-26.7742 -8.57326 2.83363)
(-2.50919 -44.6156 2.74507)
(0.114865 -70.2382 -2.13015)
(15.1023 -13.8312 1.91789)
(61.7301 -40.0725 19.8449)
(-17.2518 459.826 -55.5271)
(41.9636 63.8168 7.00048)
(-26.1654 9.81544 -2.72419)
(-8.27984 -11.9683 5.24844)
(-58.6449 -7.80247 -8.66439)
(-20.5359 11.101 3.15681)
(-14.8917 143.281 19.5779)
(25.4961 -54.9341 -2.15031)
(9.76419 235.071 -25.3578)
(7.95052 87.8802 -8.83216)
(-32.8723 0.058497 3.24635)
(-10.7626 -61.0317 3.3498)
(-120.914 672.69 23.8893)
(-32.0684 -8.44723 0.735617)
(16.9476 5.74861 -22.8826)
(10.3664 1.5098 2.44686)
(5.31459 298.195 25.8909)
(-9.43525 -18.8291 -5.03707)
(12.9703 -3.20389 -4.73787)
(-25.5535 209.6 -7.0199)
(0.814723 50.0124 -10.9644)
(34.2483 1055.86 -67.6949)
(-30.2552 -48.9887 17.1826)
(28.5723 -35.804 1.10057)
(-36.6468 -84.3415 1.91571)
(26.4933 -6.31872 1.98341)
(7.492 -97.8823 -29.9229)
(-13.4082 -74.907 -1.71333)
(5.40347 284.87 -36.3869)
(-51.2257 -11.2126 0.20012)
(8.03514 -1.25554 -2.16203)
(2.20626 -0.245384 5.32618)
(-5.97932 -39.1151 4.65777)
(-77.7394 6.76672 -24.3231)
(5.89734 -42.883 8.26433)
(-4.03492 -51.195 -1.34163)
(-20.0853 -52.2209 22.3847)
(-27.2644 -25.7727 0.405568)
(6.17317 88.8233 -13.1953)
(-4.18536 436.457 -18.9023)
(-45.7627 -106.683 -24.005)
(-43.3367 43.0763 -0.786268)
(-24.0037 -53.5382 1.31748)
(-37.3456 -2.16984 2.17178)
(-28.1675 3.86171 1.27957)
(-26.5624 -27.2596 2.58386)
(18.325 -39.9764 13.8207)
(-1.36798 -65.0478 0.217635)
(14.4013 -46.3584 -0.795578)
(70.9876 -53.5372 -38.2531)
(-22.2432 -14.2467 21.2391)
(16.8228 -72.7674 4.81654)
(29.1634 -176.112 15.3187)
(52.6934 -118.762 -10.7631)
(-28.1331 -27.2 6.33574)
(4.78753 -137.17 -10.4028)
(-4.83262 891.587 5.95715)
(-3.85552 988.678 -45.4399)
(8.0206 117.807 3.73667)
(34.4166 26.2851 6.8557)
(9.09924 612.907 -4.09498)
(-11.1843 -1.38228 0.229058)
(-13.4482 17.671 -1.3877)
(-8.66543 108.339 -45.7429)
(36.6734 6.8647 110.675)
(4.33167 14.8778 -18.3158)
(-5.05414 -8.15393 0.886237)
(2.105 -48.3975 -9.89113)
(-1.39125 -42.3812 46.5642)
(-21.2404 191.478 -12.3717)
(6.30684 -149.969 3.89969)
(-4.93091 -0.240168 3.12619)
(-4.15942 -33.7208 0.554614)
(41.8517 -94.722 3.34104)
(114.783 13.3086 -36.2329)
(5.75288 -126.622 7.8489)
(-43.3007 -1.65262 -0.461943)
(-27.0791 447.413 -53.5394)
(-18.0258 14.8148 12.2824)
(14.6054 -32.5772 -19.298)
(-2.78669 -13.344 0.590568)
(7.42013 -114.055 16.919)
(-32.4529 1328.44 107.681)
(10.6345 -38.2904 23.7846)
(11.261 55.4707 5.52109)
(-13.4644 -128.442 4.06194)
(32.5622 -72.7271 -5.16319)
(30.3979 -166.685 15.5475)
(9.02825 -186.732 43.6942)
(39.0096 -108.786 6.08214)
(-0.565045 290.006 -28.7189)
(-159.597 -120.52 -10.4431)
(8.13737 -149.274 -7.98216)
(-21.1617 35.9821 -0.505675)
(0.871341 6.37965 2.81574)
(44.0362 -17.6479 -66.6823)
(28.0756 628.007 -25.6641)
(44.0502 -174.015 -54.5351)
(87.2739 3.77509 45.3331)
(14.5323 -61.9401 -20.0946)
(-7.10154 -36.9635 -8.97861)
(26.5907 -37.2345 2.14864)
(13.9935 -69.3871 -2.1009)
(22.205 -117.862 11.4299)
(28.1484 -48.5531 -10.3399)
(24.6749 41.1662 -26.158)
(25.0778 -138.339 17.0794)
(-7.92879 -55.3365 9.10672)
(21.7452 -53.8909 3.79832)
(-24.1451 -32.7548 -2.21281)
(9.1222 -11.4684 -0.897045)
(39.2255 -86.5504 13.9528)
(7.42968 -129.052 12.4021)
(70.9251 16.0407 -35.3305)
(12.0483 -24.9943 -1.29662)
(-26.8846 -26.3773 1.01072)
(5.36583 -51.4931 7.91932)
(-13.2597 156.657 -14.5404)
(14.3497 96.8551 19.7824)
(-53.9066 -5.85001 0.0144934)
(-44.9097 -13.1327 1.62409)
(37.0447 30.3857 13.7464)
(49.6311 21.4286 -7.34381)
(24.8025 -11.477 -11.8784)
(40.1939 -92.3158 -2.4888)
(2.22944 -60.5355 -3.25064)
(75.3857 3.46856 16.5463)
(-8.18796 1344.68 -34.6513)
(13.3229 -66.176 -1.72115)
(19.0725 -128.639 1.89387)
(21.529 111.407 42.2353)
(-17.6145 113.803 -45.784)
(-32.9581 4.40219 6.5319)
(30.9539 -24.7193 -2.197)
(-69.9668 23.7184 3.33441)
(27.391 1.30727 -23.8873)
(58.6113 30.2115 14.4587)
(5.60845 -17.88 -3.64464)
(26.2101 121.622 12.9077)
(-34.9935 -68.2374 -2.93648)
(-41.5601 -64.8485 -10.9428)
(11.4658 -67.331 0.503422)
(16.8483 -32.7586 -30.0181)
(30.3414 -36.8562 -0.598707)
(10.1894 -22.5438 -16.242)
(-6.21767 -43.1521 11.7533)
(-8.9404 651.849 -45.2957)
(1.95402 7.47078 2.3784)
(76.6816 -175.824 8.42077)
(-0.210928 -131.505 1.45533)
(-59.6162 1.14144 -2.83146)
(74.6633 -178.482 8.33658)
(49.7709 -132.674 -7.07268)
(-1.64944 -106.271 1.74385)
(9.53263 -69.1192 38.3932)
(-86.2165 -59.253 -13.9894)
(6.89047 16.4246 38.0204)
(-38.2864 10.2988 32.9897)
(8.21284 -24.5 4.42661)
(12.8124 991.618 -26.0325)
(-115.906 824.793 -23.9605)
(-3.35823 49.0965 -22.1091)
(3.19295 835.847 -69.0393)
(-33.552 -9.30437 -1.87078)
(3.318 -19.8254 -2.99253)
(40.0913 -31.4999 7.74251)
(33.1691 -181.81 -43.4965)
(11.3707 -69.7027 0.510427)
(14.7333 -45.9617 53.2448)
(24.8987 -56.0737 3.61297)
(10.9564 -10.1154 2.14985)
(10.2651 -92.9456 13.007)
(4.75635 -128.809 -10.1365)
(-56.5663 0.75058 -0.841406)
(5.1203 -159.725 10.9165)
(16.9358 20.1049 1.47252)
(-34.5237 802.275 -41.3155)
(9.68776 34.9633 5.03965)
(-29.1286 0.0513176 6.43241)
(29.2717 80.3298 0.122707)
(304.963 -17.0835 11.1173)
(12.4363 -1.61585 3.32774)
(-10.2633 -18.5988 6.77691)
(-12.3837 260.449 -3.77089)
(-19.3311 -8.9906 0.295152)
(-22.3266 -25.3408 -6.97074)
(-0.415134 1126.51 -35.0501)
(-13.8647 179.595 -0.243017)
(-27.0231 -58.2859 7.96353)
(-10.7838 -43.9151 5.48683)
(6.91256 -45.6344 -29.07)
(64.567 -116.534 18.9859)
(60.9008 -112.955 16.6588)
(2.45834 6.90358 -16.4012)
(-14.4818 282.485 -22.3742)
(72.0241 403.685 -92.9812)
(4.47366 -37.0978 16.089)
(9.8749 -54.2511 21.379)
(17.6159 -40.035 0.0391632)
(17.9149 374.259 -17.6841)
(-8.00222 -62.2467 6.89293)
(33.0149 -32.6427 -2.33933)
(-23.4323 118.457 5.19723)
(19.3001 521.672 -16.9982)
(-2.75114 -48.7781 18.435)
(0.216513 -8.27539 -1.22024)
(5.82831 -16.5574 7.53044)
(-28.3312 541.548 -31.036)
(3.09149 156.553 -21.1101)
(25.622 465.887 -8.40153)
(313.725 23.6094 100.597)
(21.1068 -41.9946 6.71442)
(-46.7735 5.20122 -1.81651)
(25.6785 156.746 24.2771)
(277.224 4.53985 44.2935)
(8.69262 94.1326 -5.49868)
(-6.59852 -11.7522 3.04697)
(76.6568 -93.9613 8.50792)
(-3.82924 -5.62929 34.5774)
(23.6991 -56.4692 33.0233)
(23.4763 -189.089 58.6022)
(6.49093 -20.29 1.13151)
(312.613 27.745 92.3952)
(-5.63902 -11.581 -0.323427)
(5.90291 63.9034 21.177)
(-4.0635 338.135 20.7396)
(20.2253 -43.606 4.21091)
(-40.3618 -24.7373 9.74425)
(-2.55248 5.07212 2.67398)
(-19.262 -20.0669 9.26631)
(-15.4371 347.975 19.9724)
(27.2595 5.02742 4.66956)
(-22.8033 139.303 17.0776)
(-18.3423 -13.9548 -4.35809)
(18.4152 23.957 -11.0885)
(-29.7535 1007.21 -57.8507)
(-1.80101 5.41602 3.79408)
(-6.17703 0.232665 1.20414)
(0.336392 17.2666 -11.3135)
(43.2617 37.8297 21.9445)
(9.78055 -142.784 8.23872)
(-5.51719 627.472 -19.1467)
(2.97122 944.893 -38.0532)
(-24.5399 853.388 -16.4252)
(12.0051 -24.2111 17.5163)
(-7.56565 1.75931 -2.68921)
(55.2551 -141.785 9.48779)
(-9.08344 205.994 -41.2781)
(21.0346 -104.864 4.64904)
(250.264 2.08584 -6.00933)
(-33.8459 2.33208 -6.25323)
(35.1991 121.218 -9.24741)
(-0.605749 117.161 -19.8776)
(-5.6924 193.139 -16.1959)
(-17.5455 55.8812 -1.40067)
(-11.4195 -60.9952 -2.19018)
(4.42131 264.905 8.72401)
(12.3604 -50.9603 -2.61038)
(-26.9476 -34.6361 4.29585)
(41.3561 -37.1448 -12.6602)
(-45.6682 -64.5999 2.71434)
(229.563 7.84762 9.15959)
(-1.2737 438.308 -30.4293)
(-47.0714 -19.4558 20.6081)
(233.004 30.5396 -8.69382)
(3.8852 -4.76134 8.92864)
(-19.9068 12.5142 7.33759)
(18.5429 138.766 7.44159)
(-33.5562 -17.2209 -28.5281)
(0.00162556 420.142 21.8179)
(-14.0221 145.001 -20.1145)
(-7.58985 160.798 -7.49541)
(224.786 32.7053 11.0395)
(17.3095 41.2634 14.3532)
(-8.06478 -60.9712 -4.2386)
(14.0227 29.5637 -36.5279)
(-24.537 1.24568 6.64454)
(4.23691 601.202 -40.3677)
(-0.106388 9.08711 -12.7483)
(-28.8417 1055.65 -50.4493)
(-23.2654 -4.24642 -7.71378)
(-6.17755 20.8482 9.0178)
(20.0043 -95.0143 0.767894)
(22.3047 -86.9024 44.3404)
(-34.0385 730.909 -53.3087)
(12.0958 -62.2836 10.3811)
(-44.5623 -57.3641 5.72458)
(-54.5912 8.73873 43.3826)
(-2.49215 251.057 -20.9264)
(24.9601 107.969 -1.40988)
(0.544817 658.144 33.7274)
(-29.3395 6.77294 25.847)
(-9.64696 -16.7005 -5.32677)
(17.758 -10.9368 12.008)
(-5.30221 -94.6232 -3.44883)
(10.484 48.165 -4.56144)
(10.1605 -133.017 22.5142)
(-10.1761 15.5493 26.0547)
(6.74652 280.984 32.2558)
(4.61923 -118.94 1.96834)
(5.6698 749.134 -27.4524)
(45.1882 -18.9312 26.0802)
(-53.8573 -11.5261 -14.5175)
(1.37505 224.434 33.3396)
(26.1371 51.783 -12.6789)
(4.05603 -54.8787 15.0573)
(14.0712 -79.2133 2.11473)
(6.33129 -47.6869 -21.6638)
(-8.69401 200.237 -12.3591)
(8.88474 -41.5352 -20.181)
(38.3341 -111.188 6.11517)
(-37.6528 -38.076 1.15215)
(64.9857 138.555 -1.1481)
(7.49783 -141.275 19.3718)
(31.0191 601.57 -14.2956)
(-2.65109 -78.8993 7.65235)
(-17.3949 73.8626 -10.8735)
(56.8294 -68.4543 -15.5983)
(31.9721 -81.4426 2.10669)
(51.6016 48.5259 15.8313)
(-3.01845 -40.2825 1.55291)
(100.453 81.0174 17.7167)
(5.27726 -52.1812 5.09117)
(17.8969 47.5286 -2.09506)
(18.433 -92.6091 12.0273)
(-2.65309 557.478 -19.4413)
(3.52489 21.0611 4.50707)
(98.8134 36.5889 -64.8918)
(-20.4247 784.863 -58.7165)
(-13.6086 -0.315009 -3.98989)
(-15.387 -61.9719 -3.22331)
(32.234 183.699 14.9867)
(6.37804 -18.7262 -1.06971)
(29.6561 -54.1459 10.719)
(-4.22537 -29.2854 0.699658)
(15.5057 -25.9191 9.14987)
(-26.2939 48.2171 21.914)
(87.161 64.7941 23.4419)
(4.46045 52.3589 18.1123)
(-29.1776 241.03 17.8502)
(-27.4617 -26.8348 10.3175)
(-18.5864 1107.95 -29.2457)
(13.3683 178.741 -40.8798)
(-40.9132 -69.9668 -4.88616)
(73.0761 91.702 16.2647)
(-23.887 7.12352 5.77645)
(-8.01104 -20.5341 -1.00536)
(44.2029 -29.3793 0.893914)
(-67.9172 -21.535 -19.8416)
(-15.1485 46.4829 -19.4727)
(-13.0155 -10.6336 -0.502702)
(28.0583 56.206 0.685759)
(27.0635 174.611 33.7434)
(-54.9392 -52.9081 6.69896)
(-59.3538 3.03237 -4.95887)
(-2.07978 -24.8204 1.33405)
(63.4837 -11.4053 0.715199)
(29.246 -43.6004 42.3858)
(-21.452 377.494 -44.3903)
(-1.88677 -4.93687 12.0971)
(38.0081 -124.709 8.42814)
(46.6864 -62.0142 -14.0113)
(-19.2355 -86.2331 -2.13756)
(-2.06593 16.7346 2.50255)
(-8.41166 -19.0248 -8.3978)
(0.999136 -28.4722 39.0759)
(2.95389 -3.68267 -0.138249)
(9.9443 -153.427 -6.16235)
(85.0061 -2.83721 4.10606)
(4.09313 223.958 -35.8051)
(46.0472 -120.668 3.95992)
(-4.2186 28.5541 -1.1924)
(4.03397 508.837 -4.83765)
(-10.3823 -6.52371 5.22489)
(2.69109 100.985 -71.8419)
(-47.4956 -7.68557 -19.0326)
(10.7105 541.349 -64.4813)
(-78.8129 -62.8524 -6.04002)
(1.25199 -131.934 2.07518)
(8.55862 -174.065 -14.4494)
(40.3684 -49.734 -9.96589)
(1.92962 -27.7071 -2.16451)
(-35.3826 -10.5286 13.6864)
(75.7301 0.905298 1.95701)
(19.9919 -49.7491 -18.5653)
(-11.5522 -4.23664 7.4778)
(25.2527 191.341 -11.0609)
(-23.0052 -75.9554 -9.63768)
(-4.66104 -121.365 6.04829)
(15.0918 101.528 -53.3254)
(-15.9155 -13.5876 0.19002)
(22.8595 379.399 34.6513)
(-22.417 -33.6826 -6.83111)
(-13.8687 -155.699 12.0799)
(-4.55466 -55.5901 11.3493)
(-44.2593 -11.1932 4.51307)
(53.6121 -134.331 8.32844)
(-9.40553 -35.4633 6.75528)
(-13.9922 -22.5872 6.54822)
(-8.39348 -21.8678 -6.75747)
(9.56669 114.641 -4.20064)
(26.5148 -140.669 -2.95522)
(1.73116 -23.1422 -17.8159)
(27.3849 4.76221 -15.3077)
(17.8597 -31.3394 7.32125)
(-23.1087 -25.3775 7.83966)
(7.45681 976.798 -41.7537)
(76.387 -120.484 0.10652)
(26.0383 -95.6404 14.2463)
(-48.5709 478.753 -6.75716)
(-5.26033 21.3546 -13.1367)
(7.83508 -49.8817 2.18758)
(68.3975 23.908 11.8421)
(23.7317 -32.1512 7.64281)
(23.7848 78.0185 14.8934)
(28.6945 19.4955 4.16888)
(8.57944 54.7376 12.7824)
(-35.4746 -51.89 14.5844)
(39.9371 -72.6035 27.002)
(-0.466952 735.658 -35.6525)
(-5.44488 15.2058 2.85682)
(11.1778 109.494 8.23239)
(-9.51048 7.09492 28.1228)
(180.006 -5.52977 -0.737233)
(1.42047 2.80265 67.4564)
(-12.0309 151.829 30.7798)
(35.4064 -27.249 30.2239)
(-28.3116 623.857 -29.8929)
(164.045 -15.5027 0.532751)
(191.208 -3.8951 -0.0430912)
(83.3839 -161.676 0.825887)
(-47.4294 -13.3724 -5.17887)
(18.5063 44.0946 13.4539)
(-20.9504 -26.1402 4.54473)
(20.509 -59.046 -4.47586)
(38.5715 -54.8547 1.52745)
(-9.55868 633.496 -7.55195)
(-29.7375 -34.2431 4.95355)
(45.2801 -111.473 -46.5306)
(-6.83231 -97.3479 15.1471)
(7.6974 -73.4874 -4.60636)
(33.055 -50.6851 -12.7535)
(6.41888 -127.557 -7.1478)
(-14.2651 -25.3409 1.70506)
(-53.9964 -50.2313 8.43484)
(9.61212 -7.32753 3.86176)
(55.9437 -132.08 7.86776)
(25.2703 -83.621 1.71187)
(25.665 -4.6546 -14.1827)
(72.8726 -29.5387 0.222427)
(7.15155 -112.035 -10.2543)
(183.482 -3.96245 -1.34453)
(41.7604 -35.805 5.56645)
(54.3526 -136.026 7.45861)
(14.234 -131.82 27.3042)
(-20.9416 -18.8573 9.51904)
(-15.1496 -38.0028 5.78312)
(2.72503 -118.07 13.5084)
(11.3387 -55.7265 0.98116)
(-18.5918 1.92436 -0.690715)
(-4.10378 1610.2 -20.9501)
(33.193 -83.5697 5.3659)
(21.7703 -59.936 0.769921)
(31.0087 -97.2748 6.27995)
(-131.34 -128.411 4.39896)
(18.3104 1181.44 -41.7561)
(1.77353 201.764 -48.0154)
(8.69697 -147.287 32.3187)
(14.0361 -83.827 -0.413933)
(4.20419 -132.846 -3.73058)
(20.3223 -39.2387 8.12194)
(7.15454 -59.4456 0.490217)
(2.75109 -118.569 -1.85148)
(33.9385 -80.5157 4.44352)
(3.84295 -121.941 -2.30289)
(37.2953 -81.9321 9.15167)
(6.61912 -147.618 -8.51485)
(-7.59726 -29.2947 -8.1473)
(7.76 -104.224 -0.423692)
(15.1571 -51.0855 -7.8853)
(24.4173 18.6047 -17.4052)
(1.56327 -95.9124 0.255943)
(4.96907 -140.914 -6.23061)
(7.08468 -85.3667 -0.47642)
(8.34291 -70.5082 -3.22897)
(36.296 -127.594 20.1701)
(177.42 -18.7659 -3.44756)
(5.68189 -107.978 -0.632224)
(30.7285 -41.3396 0.145344)
(-2.32708 -26.3649 -1.52052)
(49.7875 -125.221 6.41504)