/*--------------------------------*- C++ -*----------------------------------*\
| =========                 |                                                 |
| \\      /  F ield         | OpenFOAM: The Open Source CFD Toolbox           |
|  \\    /   O peration     | Version:  2506                                  |
|   \\  /    A nd           | Website:  www.openfoam.com                      |
|    \\/     M anipulation  |                                                 |
\*---------------------------------------------------------------------------*/
FoamFile
{
    version     2.0;
    format      ascii;
    arch        "LSB;label=32;scalar=64";
    class       volVectorField;
    location    "800";
    object      U;
}
// * * * * * * * * * * * * * * * * * * * * * * * * * * * * * * * * * * * * * //

dimensions      [0 1 -1 0 0 0 0];

internalField   nonuniform List<vector> 
50112
(
(0.00284476 -0.00315564 1.00619)
(0.0125066 -0.00292566 1.02979)
(0.00172785 -0.00362762 1.03981)
(0.00815452 -0.0122557 1.02461)
(0.0094271 -0.00725618 1.01244)
(0.0109846 -0.00330077 1.03398)
(0.00904814 -0.0110599 1.0287)
(0.00728943 -0.00613476 1.03508)
(0.0148749 -0.00284502 1.07723)
(0.00991525 -0.00287935 1.20379)
(-0.00532416 0.0194798 1.11465)
(0.0122479 0.00137289 1.18833)
(0.0279658 -0.012903 1.11352)
(0.00818761 -0.00249733 1.1446)
(0.017939 -0.00424853 1.12882)
(-0.0017692 0.0115396 1.13932)
(-0.00720875 0.00907821 1.05166)
(-0.0214948 0.017495 1.05694)
(-0.0228226 0.0163089 1.0206)
(-0.0160398 0.0327669 1.03389)
(-0.0108354 0.0156952 1.05566)
(-0.0209172 0.0237975 1.04452)
(-0.0139366 0.0205219 1.04604)
(-0.0206951 0.0256477 1.03824)
(0.00206444 -0.0177516 1.07275)
(0.0032465 -0.00127069 1.17594)
(-0.00491126 0.0129053 1.11577)
(0.0160441 -0.0153831 1.19835)
(0.00961592 -0.0112022 1.09613)
(0.00378942 -0.00513463 1.12109)
(0.00887011 -0.0150643 1.12429)
(-0.00972066 0.0058727 1.11453)
(0.0204329 -0.00717667 1.05019)
(0.00375395 0.000198037 1.0457)
(0.0166766 -0.0175063 1.04078)
(0.015369 -0.0101556 1.0922)
(0.0132067 -0.00616069 1.06647)
(0.00528014 0.00136584 1.04992)
(0.00954485 -0.00431397 1.0738)
(0.0130106 -0.00529621 1.06835)
(0.0145884 -0.000630773 1.07983)
(0.00282921 0.00503632 1.12745)
(-0.0128128 0.0213934 1.0887)
(-0.00104208 0.00622274 1.05174)
(0.0132042 -0.00110331 1.07948)
(2.61936e-05 0.00883614 1.08991)
(0.00552063 0.00274304 1.07798)
(0.00429589 0.00512648 1.08563)
(0.000465193 0.0023433 1.04991)
(0.0121401 -0.011784 1.06127)
(0.00955926 -0.00188982 1.11682)
(8.42789e-06 0.01431 1.08418)
(0.00190103 0.00186745 1.07159)
(0.00769135 -0.00601657 1.06797)
(-0.00308617 3.09792e-05 1.0797)
(0.00234563 0.00195577 1.08931)
(-0.00113387 0.00698511 1.05305)
(-0.0205505 0.0350774 1.06144)
(0.00246214 0.00746293 1.11673)
(-0.016682 0.0170313 1.08746)
(-0.0132231 0.0170892 1.05411)
(-0.0124059 0.00680165 1.07501)
(-0.00698182 0.0123903 1.08698)
(-0.0153169 0.0185542 1.11338)
(0.00917383 -0.00649962 1.19312)
(0.0217523 0.0309352 1.11104)
(0.00339285 -0.0147926 1.08982)
(0.0213364 0.00460665 1.18824)
(0.0164315 -0.00353683 1.19249)
(0.0165208 0.0326788 1.12217)
(-0.00399151 -0.0241255 1.17005)
(0.00903789 -0.00606755 1.10059)
(0.0184358 0.0305084 1.0295)
(0.0307365 0.0273191 0.99854)
(0.022603 0.0250161 1.0351)
(0.0287563 0.0287642 1.0353)
(0.029177 0.0301199 1.03278)
(0.0298198 0.0300055 1.02232)
(0.0288088 0.0317167 1.04579)
(0.0266639 0.0219144 1.02752)
(0.00311957 -0.00497258 1.02688)
(0.00308736 0.00504339 1.02853)
(-0.000224484 -0.00286526 1.0065)
(-0.0136123 -0.0065919 1.022)
(-0.01039 -0.00206209 1.03785)
(-0.00287302 0.00292473 1.01998)
(-0.00913247 -0.00486451 1.02821)
(-0.00254428 -0.00474692 1.00869)
(-0.000579211 0.00641046 1.19077)
(0.00719533 0.0170276 1.07961)
(-0.0130345 -0.00230846 1.06695)
(-0.0246055 0.020397 1.22558)
(-0.00183391 0.00351682 1.15725)
(0.00196158 0.0356117 1.0949)
(-0.0394682 -0.0128972 1.13922)
(-0.0217578 -0.0127654 1.06948)
(0.0280554 0.0307433 1.09656)
(-0.0016994 -0.00686667 1.09197)
(0.016453 0.00916898 1.15732)
(0.0255482 0.0197594 1.08359)
(0.0257238 0.0212046 1.10464)
(0.00846814 0.014198 1.10403)
(0.0308649 0.0288264 1.09054)
(0.0210135 0.0305821 1.10234)
(0.0307588 0.0387023 1.06189)
(0.0213554 0.0372079 1.05332)
(0.0171351 0.0151893 1.03286)
(0.00300001 0.00736868 1.05304)
(0.0130386 0.0278246 1.05841)
(0.0215152 0.0360693 1.05696)
(0.0137563 0.00848608 1.06214)
(0.0115101 0.0136313 1.05755)
(0.00611656 -0.00947596 1.08547)
(-0.00159368 -0.00549226 1.13756)
(0.0195722 0.000483009 1.0912)
(-0.0222661 -0.0181736 1.05967)
(0.00473228 -0.000406485 1.07759)
(0.00233727 0.00198657 1.07941)
(-0.00775493 -0.00913983 1.07856)
(-0.000768719 0.00546821 1.08238)
(0.00268687 0.000280542 1.04371)
(-0.0127339 -0.00818057 1.02708)
(0.00756236 0.00185413 1.05196)
(0.00654678 0.0053604 1.03149)
(-0.00551652 0.00844161 1.04679)
(-0.0062626 0.00296329 1.04484)
(0.00237423 0.00635101 1.05445)
(0.00399521 0.0127143 1.05282)
(-0.0237682 -0.0341227 1.04875)
(0.0527132 0.00998907 1.09958)
(0.00348009 -0.00521974 1.06397)
(-0.0178149 -0.0625255 1.07352)
(0.004706 -0.0192151 0.965803)
(-0.00518468 -0.0226496 1.14603)
(-0.0289356 -0.0473866 1.09588)
(-0.029889 -0.0532149 1.18118)
(0.0167832 -0.00994717 1.06068)
(-0.0147849 -0.027422 1.0696)
(-0.0097419 -0.025485 1.05095)
(-0.0195277 0.020144 1.12788)
(-0.00596878 -0.0118833 1.07952)
(-0.0051513 -0.027461 1.07649)
(-0.00767002 0.00332401 1.07211)
(-0.0309802 0.000498427 1.06173)
(-0.00213757 -0.0185222 1.01283)
(0.00101381 -0.0159379 1.01623)
(-0.0015533 -0.00287079 1.00215)
(0.000378274 -0.0130531 1.01369)
(0.00437596 -0.0196003 1.01868)
(0.00172972 -0.014797 1.00764)
(-0.000440951 -0.0173273 1.01232)
(0.0024242 -0.0114392 1.00169)
(0.0499321 -0.0680069 1.02926)
(-0.0964841 0.30562 0.70148)
(-0.0131963 0.0101261 1.06464)
(0.0032223 -0.0275032 0.971556)
(0.163678 -0.0986103 0.93407)
(0.0371839 -0.00312395 1.11542)
(-0.0165816 -0.0102241 1.01034)
(-0.0221102 0.168201 1.02873)
(0.0138301 0.00816778 1.07218)
(-0.00329871 -0.0190156 1.05965)
(0.032373 -0.0238764 0.960428)
(-0.0059756 0.0384642 1.09249)
(0.00126458 0.0188348 1.06019)
(-0.0146288 -0.102581 1.16416)
(0.105284 0.154808 1.03613)
(0.0234245 -0.0231557 1.13044)
(-0.00640646 -0.0112371 1.07485)
(-0.0144598 0.017459 1.10411)
(-0.00325528 -0.0260701 1.03787)
(-0.00440123 -0.0291695 1.02479)
(-0.0312892 0.00484929 1.07089)
(-0.0250334 -0.00443178 1.02143)
(-0.0104508 -0.0186164 1.04149)
(-0.00512313 -0.0200756 1.0373)
(-0.00755639 -0.0212197 1.03209)
(-0.00237012 -0.0622621 1.0933)
(0.0412706 0.0839339 1.06831)
(-0.0190192 -0.0125978 1.05619)
(-0.00486677 -0.000260015 1.04842)
(0.0103427 -0.0411761 1.19131)
(-0.00664545 -0.0137044 1.10376)
(0.0454877 -0.140891 1.25783)
(-0.00877668 -0.0179897 1.01801)
(-0.0126511 -0.000527471 1.00816)
(-0.101526 0.0129227 0.984527)
(-0.0103549 -0.018376 1.0407)
(-0.01373 -0.0183817 1.04648)
(-0.0171906 -0.012258 1.03896)
(-0.00880947 -0.018404 1.04009)
(-0.00568267 -0.00360259 1.0455)
(0.0533539 -0.0901533 1.23522)
(0.028921 -0.0474861 1.06635)
(0.029328 -0.123409 1.09716)
(0.0314437 -0.0813405 1.15185)
(0.0493784 -0.0303578 1.18621)
(0.0570241 -0.0582803 1.24581)
(0.0808894 -0.139114 1.11064)
(0.0228799 -0.0573446 1.1561)
(0.0124247 -0.0122139 1.00789)
(0.00248275 -0.00436876 1.0013)
(-0.00107673 -0.0130797 1.00137)
(-0.000393497 -0.0192398 1.01036)
(0.00572469 -0.00520722 1.00618)
(0.0132605 -0.00360528 1.00852)
(0.000386495 -0.0191504 1.00687)
(0.000881798 -0.00971165 1.0029)
(0.00643453 -0.0810161 1.04964)
(-0.000343232 -0.0117828 1.03699)
(-0.00778756 -0.0997228 1.01444)
(0.0172878 -0.0746857 1.01885)
(0.00680754 -0.0638854 1.10284)
(0.0109863 -0.0415466 1.12647)
(0.0156898 -0.0863243 1.02282)
(0.00110324 -0.0547222 1.07181)
(0.00176723 -0.0915837 1.11531)
(0.0029961 -0.0348494 1.04698)
(0.0244386 -0.0798583 1.07596)
(0.00996823 -0.108953 1.13654)
(-0.0166712 -0.0609904 1.12407)
(-0.0111311 -0.0668007 1.14077)
(0.0440505 -0.0586908 1.08717)
(-0.012514 -0.0559155 1.13707)
(0.0129576 -0.0183029 1.05583)
(0.026142 -0.0700133 1.1534)
(0.0121674 -0.0316067 1.13507)
(0.0011307 -0.0243992 1.03759)
(0.00276921 -0.0379869 1.02784)
(0.0202039 -0.0784889 1.15132)
(0.000861517 -0.0378027 1.02996)
(0.0163221 -0.0495464 1.1686)
(0.0342525 -0.0303736 1.07908)
(0.00340538 -0.0229661 1.03329)
(0.00331225 -0.0250844 1.03022)
(0.0375183 -0.0502394 1.16841)
(-4.78239e-05 -0.0295923 1.02485)
(-0.00120027 -0.0243042 1.03212)
(-0.000388276 -0.0352342 1.03279)
(0.000262987 -0.0252068 1.03276)
(0.0212401 -0.0956583 1.05463)
(0.052873 -0.0977565 1.06461)
(0.00448353 -0.0415411 1.04163)
(0.0280415 -0.0544525 1.035)
(0.0288811 -0.102277 1.06214)
(0.00249298 -0.0488859 1.10886)
(-0.000254975 -0.0672929 1.10937)
(0.00166954 -0.0645298 1.10164)
(0.0238335 -0.0712469 1.1125)
(0.005219 -0.0502422 1.09786)
(-0.00144435 -0.0316241 1.03504)
(-0.00353212 -0.0238264 1.02723)
(0.00834958 -0.0721807 1.11719)
(0.00104312 -0.0647922 1.12202)
(-0.00552187 -0.0234173 1.03123)
(-3.98334e-05 -0.0287931 1.03698)
(-0.084582 0.00540554 1.11412)
(-0.0928512 0.00425315 1.15196)
(-0.0928183 0.00645888 1.08915)
(-0.0416785 0.0018367 1.0439)
(-0.0465832 -0.00744346 1.12221)
(-0.114843 0.0391916 1.10872)
(-0.0381604 -0.00905641 1.13194)
(-0.0628983 -0.00578934 1.14312)
(-0.0990768 -0.0311472 1.18085)
(-0.121256 -0.0761718 1.21781)
(-0.0737222 0.0107049 1.1382)
(-0.0383491 -0.0330338 1.04881)
(-0.0627632 -0.0497614 1.19256)
(-0.0647356 -0.0094643 1.14505)
(-0.0745275 -0.0586549 1.20908)
(-0.0678942 -0.0687969 1.19652)
(-0.0830126 -0.000761435 1.06981)
(-0.0703512 0.00676943 1.09813)
(-0.0784786 -0.00920576 1.03205)
(-0.0156978 -0.0107611 1.03471)
(-0.0646875 -0.0156525 1.12719)
(-0.0710642 0.000179742 1.05373)
(-0.0577392 -0.0149427 1.13165)
(-0.0487038 -0.00987645 1.12335)
(-0.0111208 0.000684423 1.00858)
(-0.0147441 -0.00921938 1.00354)
(-0.00815051 0.0036623 1.00331)
(-0.000115714 -0.00109133 1.00091)
(-0.0128614 -0.00160093 1.00535)
(-0.0136148 -0.00245007 1.00231)
(-0.0112428 -0.00230604 1.0071)
(-0.0127625 -0.000982748 1.00367)
(-0.050627 -0.0161107 1.15283)
(-0.0654523 -0.00198308 1.13537)
(-0.034058 -0.00832547 1.03615)
(-0.0267943 -0.015589 1.04281)
(-0.0531952 -0.0165488 1.16899)
(-0.0738237 -0.00295819 1.12921)
(-0.0278994 -0.00505903 1.02957)
(-0.0292673 -0.00623819 1.03165)
(-0.117043 0.0170824 1.11475)
(-0.0257642 -0.0210704 1.04147)
(-0.0664663 -0.00834129 1.11349)
(-0.106368 0.00809836 1.10014)
(-0.0620286 -0.0237033 1.16655)
(-0.0828042 -0.0266086 1.15956)
(-0.0962661 0.00241708 1.10105)
(-0.0671988 -0.0322488 1.15931)
(-0.0328761 7.53824e-05 1.11705)
(-0.0348898 -0.00130774 1.03226)
(-0.0342521 -0.0122289 1.04066)
(-0.0285169 -0.00266699 1.02696)
(-0.0318427 -0.00650277 1.03062)
(-0.0277522 -0.00640399 1.03055)
(-0.0291151 -0.0097447 1.03216)
(-0.021181 -0.00297653 1.03296)
(-0.0753728 0.00057512 1.12769)
(-0.0262248 -0.00877333 1.03119)
(-0.0281457 -0.019114 1.03611)
(-0.0503734 -0.0226027 1.15976)
(-0.0724493 -0.0213332 1.1278)
(-0.0208625 -0.00995312 1.0299)
(-0.0620421 -0.0212953 1.1647)
(-0.0139332 -0.00368234 1.04122)
(0.0970416 -0.0867191 1.25508)
(0.0650304 -0.0375257 1.06653)
(0.0980411 -0.0404842 1.16131)
(0.104322 -0.0566092 1.11735)
(0.0484719 -0.0718608 1.18453)
(0.0256053 -0.0682897 1.13688)
(0.0944948 -0.0533146 1.08533)
(0.0919165 -0.0465787 1.14858)
(0.0194817 -0.0115789 1.0166)
(0.00418927 -0.0010302 1.00192)
(0.0135651 0.000924677 1.01261)
(0.00934453 -0.00194049 1.00176)
(0.013135 -0.00454925 1.00863)
(0.00906583 -0.00543146 1.00721)
(0.0133912 8.29707e-06 1.0103)
(0.0123551 -0.0017274 1.00905)
(0.0943643 -0.0175427 1.13867)
(0.0377355 0.00692665 1.05261)
(0.0908031 -0.00609884 1.13356)
(0.0874057 0.00214503 1.08868)
(0.0668413 0.0235863 1.12193)
(0.0286421 0.0247856 1.09483)
(0.0825077 -0.00141278 1.06147)
(0.0582547 0.00305304 1.11366)
(0.122671 -0.0354724 1.10354)
(0.0256206 -0.00148369 1.02125)
(0.105048 0.0119719 1.08075)
(0.104198 -0.0099405 1.14061)
(0.130238 -0.00513997 1.11804)
(0.0854368 -0.00764027 1.11309)
(0.0692095 -0.0182051 0.967614)
(0.105151 -0.00187021 1.10608)
(0.0491167 -0.0133551 1.04854)
(0.0904251 -0.00798241 1.15376)
(0.0888466 -0.0487905 1.11186)
(0.0311539 -0.00978618 1.02582)
(0.0435896 -0.0120904 1.04205)
(0.108902 -0.0336169 1.13946)
(0.039192 -0.0154558 1.03007)
(0.0793631 -0.0261597 1.1267)
(0.0287977 -0.018431 1.04396)
(0.0298729 -0.00786424 1.03579)
(0.0303559 -0.00351718 1.03243)
(0.0663119 -0.0162035 1.12947)
(0.0368355 -0.0155013 1.04609)
(0.0420334 -0.00881044 1.03304)
(0.0395309 -0.00874792 1.0452)
(0.0403484 0.00127307 1.042)
(0.112649 -0.0143467 1.10386)
(0.117654 -0.0389834 1.06992)
(0.0338839 0.00472011 1.0417)
(0.107261 0.0162728 1.04115)
(0.10892 -0.0119746 1.12786)
(0.10693 -0.0175141 1.13094)
(0.0774923 -0.00112203 1.11981)
(0.0767495 -0.00625487 1.13341)
(0.0693202 -0.0166872 1.14359)
(0.0730308 0.020051 1.10004)
(0.0395239 -0.00335484 1.03138)
(0.0419732 -0.0032304 1.0363)
(0.078915 0.0123576 1.12229)
(0.0608162 0.0020212 1.11548)
(0.0389915 -0.000500168 1.03681)
(0.0376002 0.000919888 1.03372)
(-0.0324913 -0.10316 1.26161)
(-0.036576 -0.0470231 1.08331)
(-0.0368551 -0.095133 1.15883)
(-0.0230547 -0.096699 1.1367)
(-0.0297068 -0.0450643 1.22175)
(-0.0437683 -0.017187 1.16459)
(-0.0247956 -0.0929399 1.10722)
(-0.0325191 -0.0828744 1.13688)
(-0.0114694 -0.0092591 1.01915)
(-0.000403428 -0.000919139 1.00146)
(0.00593707 -0.00965012 1.00473)
(-0.00223059 -0.00535779 1.00281)
(-0.00104805 -0.00657782 1.01215)
(-0.00104088 -0.00514948 1.0075)
(0.00182845 -0.00729417 1.00867)
(-0.00104283 -0.00869109 1.00335)
(-0.0143747 -0.0910056 1.11613)
(0.007002 -0.0249514 1.03367)
(-0.0153562 -0.0923942 1.14021)
(0.00293666 -0.0795304 1.09049)
(0.020731 -0.0646757 1.10983)
(0.00677558 -0.0342524 1.10565)
(0.0121469 -0.0744479 1.08158)
(-0.015242 -0.0564203 1.11611)
(-0.0201018 -0.119263 1.09901)
(0.00624434 -0.00726108 1.01424)
(0.00533631 -0.0906206 1.0674)
(-0.0076531 -0.104487 1.12495)
(0.0063222 -0.13326 1.10135)
(-0.00626966 -0.090948 1.0814)
(-0.00711474 -0.108166 0.945134)
(-0.014865 -0.0903811 1.05816)
(-0.0103775 -0.0323972 1.05764)
(-0.0075455 -0.0772541 1.15089)
(-0.0246314 -0.0840435 1.13575)
(-0.00204581 -0.018427 1.0172)
(-0.0107604 -0.0312788 1.04216)
(-0.0283007 -0.0924783 1.13651)
(-0.00941659 -0.0261376 1.02227)
(-0.0198155 -0.0770722 1.12389)
(-0.013803 -0.015467 1.0504)
(0.00841985 -0.0224994 1.03184)
(0.0130013 -0.0206777 1.04722)
(-0.0140984 -0.0521573 1.11722)
(-0.0045788 -0.0221456 1.0367)
(0.00253717 -0.0285171 1.03096)
(0.000172982 -0.0318561 1.04267)
(0.0117972 -0.0311434 1.04368)
(-0.0120292 -0.103947 1.08463)
(-0.0269323 -0.117176 1.07075)
(0.0129579 -0.0197604 1.03734)
(0.014879 -0.0891958 1.05088)
(-0.0108197 -0.101676 1.10582)
(-0.016476 -0.100217 1.09187)
(-0.00303199 -0.0777485 1.10994)
(-0.00726419 -0.0798107 1.09771)
(-0.0123124 -0.0682701 1.11523)
(0.00600277 -0.0588482 1.0754)
(0.0104375 -0.0280991 1.035)
(0.0054992 -0.029263 1.03621)
(0.00218877 -0.0747522 1.10371)
(0.00238358 -0.0576384 1.09571)
(0.0120208 -0.0280489 1.04168)
(0.00619296 -0.0278199 1.0316)
(-0.0735385 0.0409708 1.17247)
(-0.0499334 0.0516927 1.13956)
(-0.024085 0.0558971 1.15561)
(-0.0382157 0.0522064 1.10251)
(-0.0647903 0.0510676 1.16621)
(-0.0130026 0.0482559 1.16647)
(-0.0426847 0.0378064 1.13333)
(-0.0173359 0.0508313 1.12123)
(-0.0306316 0.0442631 1.04398)
(-0.0222976 0.0290215 1.0128)
(-0.0222352 0.0362202 1.033)
(-0.0258419 0.0310887 1.03304)
(-0.0254623 0.0333933 1.03793)
(-0.0252135 0.0249824 1.03077)
(-0.0252568 0.0304621 1.03388)
(-0.023665 0.0289716 1.02647)
(-0.00188494 0.060018 1.10656)
(-0.00508506 0.0318654 1.10104)
(0.0265727 0.0273758 1.04705)
(0.023324 0.0257472 1.03862)
(-0.0114914 0.0612319 1.10538)
(0.00580284 0.022972 1.10357)
(0.0109821 0.0170872 1.05597)
(0.0168111 0.0106696 1.04187)
(-0.0193588 0.055242 1.08677)
(-0.0284943 0.0437066 1.0877)
(0.0131555 0.043766 1.04846)
(-0.00989963 0.0442308 1.06349)
(-0.0317976 0.0811617 1.09673)
(-0.0240423 0.067046 1.08515)
(-0.0141865 0.0457729 1.05764)
(-0.00375365 0.0451017 1.06205)
(-0.0343385 0.0515691 1.13)
(-0.0232767 0.0621603 1.14424)
(-0.0335586 0.0563557 1.14754)
(-0.0390814 0.0318847 1.11027)
(-0.0369234 0.0335928 1.12052)
(-0.0188964 0.0575232 1.12725)
(-0.0321727 0.0391004 1.11855)
(-0.0212932 0.0596093 1.13084)
(-0.0437946 0.0310708 1.1083)
(-0.0272483 0.031765 1.10289)
(-0.0189409 0.0318997 1.10448)
(0.00947976 0.0388997 1.14278)
(-0.0392808 0.0305291 1.11986)
(-0.0337544 0.0331308 1.11506)
(-0.0255193 0.0238712 1.11739)
(-0.0164517 0.0253645 1.10866)
(-0.00818547 0.0375116 1.10358)
(-0.0268214 0.0490487 1.08996)
(-0.0247294 0.0396124 1.09581)
(0.00208598 0.0319888 1.06262)
(-0.00912544 0.0648288 1.07881)
(-0.0116838 0.0609427 1.07854)
(-0.0224011 0.0746263 1.09464)
(-0.0200505 0.0659213 1.0863)
(0.00326995 0.0492183 1.08527)
(0.0114939 0.0306901 1.05413)
(-0.0236815 0.0442858 1.10129)
(-0.0153567 0.0375305 1.1042)
(-0.013053 0.0538015 1.08632)
(-0.00375496 0.0504358 1.10348)
(-0.0182938 0.031662 1.10126)
(-0.0167532 0.0329304 1.09519)
(0.0567306 -0.0394015 1.13009)
(0.0315476 -0.0432022 1.1249)
(0.0161843 -0.0501579 1.14169)
(0.0288341 -0.0456189 1.07418)
(0.0481011 -0.0458208 1.12233)
(0.00240176 -0.0382534 1.13494)
(0.0285399 -0.0361002 1.11047)
(0.0078678 -0.0476187 1.10514)
(0.0252131 -0.0296615 1.06388)
(0.0188514 -0.0157103 1.02058)
(0.0144421 -0.0203684 1.05612)
(0.0171795 -0.019817 1.05484)
(0.0205098 -0.0264392 1.06349)
(0.0186527 -0.01674 1.05958)
(0.0195229 -0.0228621 1.05745)
(0.0156733 -0.0120938 1.05101)
(-0.00825302 -0.0438045 1.16992)
(0.0145857 -0.0328237 1.08981)
(-0.00730274 -0.0491097 1.1212)
(-0.00651979 -0.0358326 1.0885)
(0.00656169 -0.0343787 1.14479)
(0.00651657 -0.0151764 1.13635)
(-0.0190943 -0.02595 1.11912)
(-0.00456754 -0.0524802 1.10761)
(0.00942309 -0.0528675 1.08113)
(0.0222104 -0.034741 1.08697)
(0.000953982 -0.0479859 1.09215)
(0.0082001 -0.0421674 1.08111)
(0.0210627 -0.0700472 1.09232)
(0.011403 -0.0563571 1.09679)
(0.0107519 -0.0423835 1.075)
(0.00334942 -0.0492364 1.10526)
(0.0234855 -0.041549 1.12535)
(0.0202377 -0.0543157 1.13312)
(0.0126909 -0.0645499 1.12414)
(0.029824 -0.0283458 1.10307)
(0.0227299 -0.0282071 1.11231)
(0.0101103 -0.0569206 1.11011)
(0.0240441 -0.0344352 1.10771)
(0.0156149 -0.0572701 1.11381)
(0.0234179 -0.0244149 1.10802)
(0.0194565 -0.0290574 1.10061)
(0.0153885 -0.0243247 1.10861)
(-0.00351418 -0.0372691 1.14498)
(0.0248234 -0.0270086 1.10824)
(0.0232401 -0.0301734 1.10871)
(0.0151529 -0.027847 1.10792)
(0.0125849 -0.028533 1.10922)
(0.00674506 -0.0328271 1.13136)
(0.0181761 -0.0420354 1.08551)
(0.0178931 -0.0337791 1.09144)
(-0.0081647 -0.0332037 1.1085)
(0.00851334 -0.0533188 1.09221)
(0.00915816 -0.0513635 1.08149)
(0.0108509 -0.0622383 1.12139)
(0.0119794 -0.0622012 1.1031)
(-0.00921975 -0.0407429 1.13309)
(0.000724251 -0.0483762 1.11992)
(0.016288 -0.0333371 1.10084)
(0.0157894 -0.0289879 1.09531)
(-0.00112193 -0.0407317 1.13853)
(-0.00250639 -0.0475964 1.13832)
(0.0175277 -0.0318959 1.09891)
(0.0134049 -0.0320877 1.09829)
(0.037758 0.0284876 0.999602)
(0.0364939 0.0326751 1.04913)
(0.0402369 0.0251978 1.02211)
(0.0417561 0.0205167 1.02004)
(0.0398321 0.0275211 1.02044)
(0.0353363 0.0284626 1.04189)
(0.0405382 0.0224547 1.00868)
(0.0379583 0.0257158 1.02372)
(0.0475972 0.0408223 1.15108)
(0.0167572 0.03655 1.28107)
(0.0671208 0.0290016 1.17146)
(0.0517865 0.0275723 1.21784)
(0.0959597 0.0215805 1.17912)
(0.0574617 0.0396287 1.24844)
(0.0638545 0.019588 1.16382)
(0.0488731 0.0389085 1.19399)
(0.0488525 0.0278662 1.06879)
(0.0602098 0.015726 1.15059)
(0.0414639 0.00312524 1.1222)
(0.0424384 -0.0079282 1.10698)
(0.0662996 0.0254242 1.14521)
(0.0809084 0.0320845 1.16261)
(0.0421964 0.00774359 1.11469)
(0.0429294 0.00989914 1.11532)
(0.0391775 0.00290505 1.06642)
(0.0513256 0.0256742 1.18052)
(0.0248183 -0.0166908 1.10146)
(0.0156137 -0.0128534 1.12111)
(0.0288176 -0.0163706 1.17467)
(0.0553604 0.0227149 1.17351)
(0.0139529 -0.0139785 1.11155)
(0.0190282 -0.00264954 1.12384)
(0.0448861 0.0346591 1.0951)
(0.0367178 0.0260576 1.07908)
(0.0381081 0.0180089 1.06208)
(0.0347847 -0.00646659 1.18524)
(0.0341795 0.0384818 1.09568)
(0.0385943 0.0315499 1.08948)
(0.0278554 0.0265484 1.09585)
(0.0320196 0.0133279 1.08064)
(0.0524946 0.0333644 1.13036)
(0.0573027 0.0285464 1.19514)
(0.0727107 0.0320123 1.22505)
(0.0413513 0.0365422 1.09007)
(0.0410201 0.0363059 1.10676)
(0.0655196 0.0215108 1.17936)
(0.0461169 0.030328 1.10668)
(0.0721212 0.0163014 1.17405)
(0.0492623 0.023148 1.0683)
(0.0440036 0.014411 1.05869)
(0.045291 0.0117463 1.14638)
(0.0310345 -0.00984978 1.11828)
(0.039585 0.0179559 1.06606)
(0.0331681 0.0144577 1.06339)
(0.0518644 0.0138934 1.16603)
(0.0489847 0.0230499 1.15288)
(0.0457564 0.0267297 1.07611)
(0.0357384 0.00965711 1.12408)
(0.033775 0.0226381 1.16374)
(0.0545248 0.0235889 1.14952)
(0.064167 0.0274473 1.14165)
(0.0737133 0.0304981 1.1584)
(0.0548042 0.0162661 1.12392)
(0.058485 0.0206186 1.13153)
(-0.0523861 0.106205 1.16315)
(-0.0385056 0.0606133 1.15814)
(-0.0785562 0.0260498 1.12402)
(-0.0213406 0.00927968 1.19043)
(-0.0972976 0.0714677 1.18408)
(-0.16071 0.108437 1.13503)
(0.00669011 -0.0167042 1.12275)
(-0.0813566 0.014236 1.11491)
(-0.0319217 0.0299469 1.05767)
(-0.0312453 0.0238911 1.00612)
(-0.0467694 0.0283584 1.04317)
(-0.0373544 0.0210863 1.03512)
(-0.0276259 0.0272888 1.05033)
(-0.0238158 0.0288025 1.03877)
(-0.0519782 0.0274286 1.05077)
(-0.0351098 0.0242544 1.03755)
(-0.0651 0.0468845 1.09097)
(-0.0516656 0.0272816 1.09476)
(-0.0465377 0.0499635 1.12569)
(-0.0515225 0.0383476 1.0888)
(-0.0723873 0.0389318 1.11549)
(-0.0748881 0.0402385 1.13936)
(-0.0685534 0.0410559 1.0839)
(-0.0774667 0.0375462 1.08679)
(-0.0313049 0.0109518 1.20908)
(-0.027305 0.0175785 1.08399)
(-0.0448111 0.0207188 1.09303)
(-0.00407235 -0.00947921 1.14506)
(-0.0653815 0.0385368 1.1645)
(-0.0807909 0.0536314 1.13589)
(-0.0367571 0.000358348 1.08163)
(-0.06223 0.00363984 1.09527)
(-0.0420342 0.0515654 1.14645)
(-0.0730003 0.0332423 1.13012)
(-0.0596491 0.0383137 1.16674)
(-0.0323614 0.0337814 1.10358)
(-0.0304713 0.0383017 1.11548)
(-0.0526427 0.0568885 1.14571)
(-0.0159989 0.0345062 1.10829)
(-0.0580009 0.0559118 1.13903)
(-0.0619974 0.0525493 1.13983)
(-0.0463695 0.0340693 1.09511)
(-0.0648076 0.0495769 1.10479)
(-0.0673348 0.0430486 1.14805)
(-0.0362221 0.0414801 1.11753)
(-0.0422297 0.043972 1.09065)
(-0.05527 0.0371619 1.13401)
(-0.0393292 0.0420602 1.11176)
(-0.0714615 0.0314561 1.08394)
(-0.0428873 0.00591813 1.12393)
(-0.0284015 0.0270873 1.09895)
(-0.0639052 0.0265591 1.07094)
(-0.0579542 0.0314012 1.09303)
(-0.0552394 0.0151742 1.13127)
(-0.0664239 0.0314066 1.13811)
(-0.0452245 0.0527284 1.17781)
(-0.0752512 0.0349543 1.09641)
(-0.0721822 0.0257118 1.10022)
(-0.038846 0.0265333 1.08685)
(-0.0456268 0.0354192 1.09181)
(-0.0649474 0.0391071 1.14917)
(-0.0585598 0.0376581 1.15901)
(-0.0321601 0.0235263 1.09078)
(-0.0448086 0.0301823 1.09662)
(0.0429629 -0.0918811 1.0926)
(0.0265716 -0.0434505 1.1497)
(0.070702 -0.0440786 1.05542)
(0.0342302 -0.0376838 1.11117)
(0.069825 -0.0670542 1.10701)
(0.101045 -0.0835977 1.06564)
(0.0215919 -0.0206012 1.0561)
(0.0729461 -0.0357004 1.04873)
(0.0250352 -0.0256656 1.06853)
(0.0235969 -0.0149895 1.01499)
(0.0294978 -0.0154938 1.0519)
(0.0282062 -0.016949 1.04784)
(0.0242316 -0.0235187 1.0616)
(0.0235481 -0.0233616 1.06012)
(0.0318938 -0.0138553 1.04953)
(0.0289532 -0.0216742 1.04996)
(0.0589192 -0.0642713 1.0092)
(0.0431329 -0.0164095 1.06766)
(0.0521855 -0.0452753 1.00252)
(0.0426029 -0.0515884 1.02059)
(0.072643 -0.0533 1.02431)
(0.0559887 -0.0365536 1.05007)
(0.0628293 -0.054986 0.991244)
(0.0705047 -0.0571849 1.01725)
(0.0371563 -0.0226704 1.11757)
(0.0366436 -0.0174202 1.05549)
(0.0369019 -0.0389342 1.02432)
(0.0137105 -0.00910502 1.07397)
(0.0654117 -0.0440555 1.06196)
(0.0666005 -0.052619 1.04048)
(0.0418772 -0.0211786 1.02126)
(0.0560831 -0.0229743 1.02844)
(0.0327516 -0.0325509 1.14325)
(0.0668253 -0.0534161 1.05458)
(0.0631693 -0.0562109 1.08148)
(0.033231 -0.016178 1.08354)
(0.0242679 -0.0249393 1.09248)
(0.0451613 -0.0760932 1.06032)
(0.0178869 -0.0184524 1.09224)
(0.0593776 -0.0758487 1.05475)
(0.0470967 -0.0297695 1.14198)
(0.0408821 -0.0170538 1.08591)
(0.0407776 -0.0196999 1.1026)
(0.0477888 -0.0647221 1.0634)
(0.0349484 -0.0230838 1.10585)
(0.0347715 -0.0157862 1.08538)
(0.044514 -0.0270232 1.10934)
(0.0364114 -0.0256521 1.09636)
(0.0689852 -0.0478923 1.01462)
(0.0470253 -0.0210026 1.04588)
(0.0390042 -0.0202788 1.05622)
(0.0562063 -0.0402092 1.0022)
(0.0573962 -0.0447251 1.02868)
(0.0568288 -0.0326192 1.05006)
(0.0636226 -0.0408305 1.04753)
(0.0522911 -0.0518802 1.06159)
(0.0679114 -0.0552377 1.02874)
(0.0654022 -0.0359421 1.02281)
(0.0396186 -0.0161864 1.06257)
(0.039985 -0.0191756 1.07138)
(0.051851 -0.0420871 1.05921)
(0.0631932 -0.0379012 1.05634)
(0.0385734 -0.0175525 1.05561)
(0.0452766 -0.0176513 1.06389)
(0.0312768 0.0349672 0.999388)
(0.0237283 0.0394353 1.04619)
(0.0253239 0.0307874 1.02042)
(0.0348016 0.0355505 1.03042)
(0.0261821 0.0184228 1.0377)
(0.0241893 0.0341903 1.02822)
(0.0261836 0.0332535 1.02598)
(0.0274362 0.0483681 1.02527)
(0.0646439 0.0282179 1.15542)
(0.066322 0.00714444 1.18787)
(0.0238771 0.0419335 1.25903)
(0.0406761 0.0821277 1.16481)
(0.0907825 0.113618 1.11283)
(0.068126 0.0585642 1.20208)
(0.0242603 0.0855167 1.15072)
(0.0174498 0.00842585 1.19433)
(0.0219445 0.0190605 1.11191)
(0.0195254 0.0329544 1.17963)
(0.0218415 -0.0155956 1.06427)
(0.0369226 0.0359173 1.0875)
(0.0702748 0.10692 1.11436)
(0.0514045 0.062703 1.13632)
(0.0303946 0.0445672 1.03782)
(0.0212201 -0.01958 1.04356)
(0.022885 0.0573863 1.09054)
(0.0574095 0.0714906 1.08922)
(0.0500451 0.0517342 1.13358)
(0.0491431 0.0566988 1.11474)
(0.0443785 0.0775713 1.12464)
(0.0396081 0.0823161 1.11337)
(0.0465687 0.0801342 1.11986)
(0.0457723 0.0720981 1.10478)
(0.0410408 0.0313345 1.12948)
(0.0205481 0.0511141 1.09492)
(0.0297016 0.0532341 1.08459)
(0.0654139 0.0596952 1.17701)
(0.0419982 0.0157297 1.1158)
(0.0339626 0.0325747 1.0812)
(0.035091 0.0457198 1.13773)
(0.0363388 0.0277202 1.11255)
(0.0453142 0.0277628 1.13443)
(0.0496929 0.0800761 1.15712)
(0.0452594 0.0732714 1.17468)
(0.017924 0.0319204 1.09754)
(0.0287527 0.0344507 1.12936)
(0.0705379 0.0561686 1.16086)
(0.0299872 0.016313 1.11375)
(0.0675614 0.078057 1.15464)
(0.0195632 0.0356212 1.0946)
(0.0375159 0.0470164 1.09641)
(0.043927 0.0805394 1.10965)
(0.0374326 0.071158 1.09194)
(0.0303827 0.0566384 1.11305)
(0.0243157 0.0350057 1.10224)
(0.038183 0.0836969 1.15122)
(0.0415556 0.0750806 1.14504)
(0.0307235 0.019717 1.12191)
(0.0347294 0.0609331 1.07966)
(0.036488 0.0791274 1.08624)
(0.00397633 0.0444002 1.10355)
(0.0606241 0.0757508 1.15443)
(0.0430994 0.0828663 1.11926)
(0.0145509 0.0629358 1.11815)
(0.0303192 0.0659072 1.08989)
(0.000102409 0.0102591 1.01141)
(-0.010443 0.00335911 1.0468)
(-0.0166506 -0.00182242 1.04985)
(-0.0255298 0.00665095 1.06694)
(0.0212585 -1.82692e-05 1.06114)
(-0.0133977 0.000228306 1.02424)
(-0.030468 -0.0259347 1.14886)
(-0.0428544 -0.0216684 1.14038)
(-0.0381261 0.000654389 1.06863)
(-0.084823 -0.0200534 1.08384)
(-0.0265222 -0.0165145 1.09563)
(-0.0238671 0.00727518 1.03901)
(-0.0375293 -0.0139877 1.07337)
(-0.0791539 -0.00333933 1.05861)
(-0.0199165 -0.0231331 1.12863)
(-0.0727403 -0.0062639 1.12848)
(-0.0132333 -0.0070431 1.08672)
(-0.0233016 -0.0156101 1.1088)
(-0.0205688 0.00358744 1.09843)
(-0.0256288 -0.0027819 1.04528)
(-0.00637924 -0.00731974 1.11047)
(-0.0199288 -0.0116443 1.08348)
(-0.0248231 -0.0063932 1.12752)
(-0.0274789 -0.0105126 1.11751)
(-0.0114902 0.00377686 1.01432)
(-0.00384718 0.00344925 1.00475)
(-0.0137632 -0.00147316 1.01038)
(-0.00195164 0.00146841 1.00082)
(-0.00584701 0.00269437 1.01048)
(-0.00966799 0.00397187 1.01171)
(-0.00592759 -0.000536396 1.00253)
(-0.00619141 -0.00062963 1.00198)
(-0.00384022 0.00506103 1.05528)
(-0.00119298 -0.0123481 1.09063)
(-0.0154022 0.00931682 1.05959)
(-0.0217709 0.00560503 1.05442)
(-0.0406504 -0.0292704 1.13844)
(-0.0473276 -0.026071 1.14899)
(-0.0156612 0.00728449 1.05288)
(-0.0230983 0.00383447 1.06594)
(-0.0301581 0.00528429 1.05368)
(-0.0246062 0.00598619 1.05013)
(-0.0207414 -0.0152857 1.05749)
(-0.0280558 -0.0104473 1.03404)
(-0.0575577 -0.0247395 1.14352)
(-0.0668887 -0.0374486 1.15789)
(-0.0254622 -0.00871262 1.06963)
(-0.0153615 0.00334153 1.08362)
(-0.00520615 0.000285628 1.13559)
(-0.0213887 -0.00281593 1.0499)
(-0.018361 -0.00386636 1.03306)
(-0.0137793 0.00137228 1.04529)
(-0.0220789 0.00497106 1.06153)
(-0.0248572 -0.00380287 1.04654)
(-0.0199543 0.00429385 1.05101)
(-0.0278427 -0.00343083 1.04479)
(-0.00797351 0.000775373 1.12549)
(-0.0173642 0.00326608 1.03942)
(-0.0295911 0.000797934 1.03493)
(-0.0224619 -0.0026175 1.12827)
(-0.0097706 0.00216269 1.12871)
(-0.0271224 0.00157167 1.05872)
(-0.0259671 0.0102766 1.13318)
(-0.0282133 0.00234073 1.04846)
(0.00214176 0.000587979 1.00189)
(0.0139443 -0.00452579 1.00894)
(0.0187395 0.000945202 1.01122)
(0.0134292 0.000857509 1.01284)
(0.00859874 0.0043061 1.00281)
(0.0139824 0.000146839 1.00533)
(0.0173181 0.000788473 1.01026)
(0.0216913 -0.00865263 1.01922)
(0.028264 0.000985047 1.03437)
(0.0541301 -0.027904 1.06907)
(0.0307125 -0.00710497 1.05133)
(0.000152049 0.01592 1.10789)
(0.0227346 0.0158009 1.09892)
(0.0344621 -0.00557332 1.10869)
(0.0130047 -0.00813276 1.10466)
(0.0319795 -0.016275 1.09501)
(0.0053852 -0.00620045 1.06828)
(0.00984989 -0.0362462 1.12824)
(0.0609094 0.0344938 1.04017)
(0.0899119 0.00532788 1.05973)
(0.0742538 -0.00799876 1.25307)
(0.0139693 -0.00723251 1.19561)
(0.0620847 0.00185009 1.1582)
(0.0171335 0.0356812 0.939651)
(0.0133322 0.00815968 1.06265)
(-0.374956 0.0775332 0.707019)
(0.0830661 -0.0845924 1.04944)
(0.0562356 -0.0198514 0.973007)
(-0.128058 -0.0112408 0.957881)
(0.0587502 -0.108027 1.11927)
(0.0355148 -0.0364979 0.996687)
(0.091415 -0.151804 0.994648)
(0.0201408 0.0104202 1.03464)
(0.0135117 0.0130538 1.0154)
(0.00353297 0.0145489 1.01934)
(0.0114854 0.0484207 1.03383)
(0.0238957 0.00214144 1.04087)