/*--------------------------------*- C++ -*----------------------------------*\
| =========                 |                                                 |
| \\      /  F ield         | OpenFOAM: The Open Source CFD Toolbox           |
|  \\    /   O peration     | Version:  2506                                  |
|   \\  /    A nd           | Website:  www.openfoam.com                      |
|    \\/     M anipulation  |                                                 |
\*---------------------------------------------------------------------------*/
FoamFile
{
    version     2.0;
    format      ascii;
    arch        "LSB;label=32;scalar=64";
    class       volScalarField;
    location    "1300";
    object      p;
}
// * * * * * * * * * * * * * * * * * * * * * * * * * * * * * * * * * * * * * //

dimensions      [0 2 -2 0 0 0 0];

internalField   nonuniform List<scalar> 
43136
(
791.89
652.033
571.686
674.228
706.792
680.904
627.313
554.651
565.867
394.346
384.691
461.776
426.984
431.663
403.769
332.323
311.336
266.093
66.096
223.598
267.174
253.867
194.58
171.103
601.376
396.788
357.17
461.418
502.152
471.68
547.146
363.827
570.142
511.498
549.032
469.308
544.309
540.002
566.948
558.01
592.89
434.799
398.386
457.403
476.533
463.104
457.496
424.635
396.636
559.427
417.234
318.884
452.361
463.425
389.239
450.234
348.593
263.227
373.794
337.741
308.415
372.118
376.301
347.643
1168.08
1398.24
599.081
905.245
1127.42
1077.84
884.308
727.53
1533.28
1654.55
851.567
969.214
1314.63
1372.8
1125.87
1117.92
283.023
450.21
188.122
122.03
233.641
226.243
258.462
165.033
658.141
626.491
195.094
434.336
548.585
510.285
348.312
319.77
1223.01
650.432
887.952
974.415
1087.38
817.043
1017.26
844.744
1143.05
924.772
819.756
550.615
978.469
909.029
912.542
818.663
506.221
744.889
768.265
284.868
377.56
604.867
367.165
585.465
326.569
123.564
677.825
517.379
238.106
253.513
645.91
401.375
15.8018
13.0977
10.3999
125.268
34.9553
11.1569
55.8712
29.4799
21.9291
37.4115
26.6052
161.725
58.1687
46.6515
70.3152
78.313
15.2391
26.6295
26.1592
139.36
44.3101
33.2066
67.755
59.2819
258.575
244.142
193.77
328.203
303.384
261.218
310.723
283.331
28.241
50.7785
129.762
143.103
56.3675
56.5684
111.66
99.1837
25.2274
170.172
38.4031
14.3452
81.7252
87.6164
21.8654
60.1932
58.7588
155.792
152.223
139.869
78.29
101.519
115.567
114.094
28.0648
128.907
193.258
78.8141
48.8682
131.597
80.3852
125.666
455.653
731.008
891.159
1208.44
663.072
76.5794
344.928
926.195
646.452
764.868
501.53
1857.91
1065.51
651.169
1336.47
789.77
191.923
205.111
-79.8178
342.039
17.1833
154.404
-41.9936
-1.40938
2069.1
2205.52
1996.44
2017.67
1936.53
1914.35
1860.31
2010.46
867.939
700.285
1702.88
1791.52
1040.45
1059.17
1644.4
1293.97
406.988
1384.36
469.794
483.638
725.864
1116.72
429.942
434.245
447.84
1664.95
1692.84
1354.59
1163.79
1535.81
1174.17
1672.72
374.365
1008.63
1732.66
245.054
224.584
830.514
307.21
1232.88
2487.62
2284.34
2172.82
2206.05
2325.55
2318.3
2204.68
2101.74
1951.18
1701.54
1539.18
1732.93
1840.9
1734.43
1730.6
1517.7
1856.2
1153.38
1328.83
1469.74
1293.25
1278.43
1095.91
1001.85
1816.17
1666.64
1544
1651.85
1710.41
1688.51
1601.93
1371.48
2049.85
1932.44
2110.28
1948.75
1988.66
2006.62
1937.34
1960.83
1984.88
1777.54
1555.88
1899.68
1816.77
1742.13
1832.31
1665.98
1747.37
2100.63
1893.45
1642.17
1793.82
1808.35
1691.16
1868.71
1611.7
1531.18
1683.19
1302.46
1513.82
1557.51
1509.91
1488.42
58.4455
225.781
76.3866
182.465
163.965
124.641
161.023
126.803
307.152
314.987
227.678
348.182
306.046
290.638
275.355
285.264
59.2655
130.211
41.974
141.689
109.246
81.5781
101.767
84.2473
309.613
355.011
196.575
357.876
380.806
328.201
351.752
338.853
323.837
151.931
259.036
367.922
330.486
210.323
310.165
260.063
289.826
273.457
151.927
137.604
275.324
179.751
165.71
186.418
154.654
237.148
373.262
211.034
163.655
254.89
241.614
279.169
150.453
158.696
292.242
153.075
161.533
163.162
169.201
186.337
1108.1
894.112
901.007
874.168
1003.04
444.96
737.787
883.9
582.96
540.602
647.474
460.429
564.511
570.017
545.147
509.902
797.381
705.042
765.981
723.481
774.954
728.679
729.301
740.118
631.695
446.782
665.896
560.394
504.821
511.119
553.373
584.927
743.287
892.44
742.679
526.206
644.917
607.899
641.974
610.477
573.865
504.442
689.292
582.547
614.09
586.083
769.562
669.544
741.53
629.922
498.251
730.561
840.492
724.316
659.549
524.049
739.28
663.394
549.096
654.582
637.265
606.528
648.265
599.285
2706.63
2231.76
2429.6
1960.88
2352.53
2587.73
2064.22
2196.57
1936.64
1511.68
1465
1306.32
1690.17
1658.18
1537.13
1412.53
2046.95
1589
1630.97
1196.03
1733.13
1690.4
1650.98
1495.86
1289.9
760.382
954.589
790.654
1126.8
1077.45
967.177
875.435
1994.19
2031.01
1679.79
1339.97
1824.27
1963.4
1506.6
1764.96
2077.86
1420.17
1582.96
1960.52
1780.7
1586.05
2000.82
1673.65
2002.5
1492.91
1113.57
1285.8
1599.59
1487.85
1411.36
1296.8
1874.53
1151.61
1092.36
1433.17
1606.91
1332.6
1504.65
1121.69
145.257
176.006
150.799
167.547
132.184
154.108
69.259
144.572
293.232
516.641
309.412
246.069
381.573
404.498
179.491
404.818
78.7973
87.7312
36.8485
92.8081
63.8102
16.4793
55.8967
74.8786
245.954
243.124
155.714
310.527
247.293
142.823
201.063
177.817
221.782
78.1821
165.449
186.634
118.999
85.567
237.404
179.721
200.72
194.457
161.407
127.053
187.687
135.837
168.086
182.306
41.383
101.375
97.2304
80.0419
166.748
142.705
136.223
131.396
98.0936
89.4386
199.975
172.165
78.0942
40.7873
113.628
159.972
600.038
880.926
709.309
775.986
1007.97
1109.55
906.756
1207.56
1176.78
1319.34
1004.51
1026.96
892.603
1005.02
803.464
914.173
752.31
1015.38
959.606
577.174
1040.84
979.54
909.772
865.495
589.332
798.531
681.835
521.396
593.316
636.995
570.531
673.401
1132.27
996.523
825.054
731.903
875.431
989.303
1079.61
701.534
1251.42
751.625
993.488
923.701
1258.11
794.01
869.554
916.041
884.893
514.941
685.856
688.823
756.404
683.017
622.105
707.698
982.549
818.471
920.358
1104.9
1124.14
637.191
884.014
599.016
2577.33
2233.45
2322.68
1883.55
2301.44
2396.51
2217.13
2204.65
1970.82
1958.18
1850.51
1480.24
1793.84
2065.78
1650.42
1641.58
2062.53
1856.94
1706.9
1368.35
1728.08
1906.82
1569.91
1645.48
1310.03
1141.5
957.021
830.025
1157.7
1161.62
956.46
969.866
1977.73
2001.76
1605.63
1500.44
1843.36
1943.79
1615.42
1696.65
2058.68
1517.16
1985.45
2110.32
1877.33
1733.47
2103.56
1782.76
1837.66
1501.2
1286.09
1214.17
1627.22
1555.76
1380.55
1326.98
1949.75
1289.1
1322.81
1798.08
1741.85
1476.63
1696.4
1488.35
1472.62
766.942
1653.07
1975.57
1452.22
1047.91
1855.57
1258.52
337.162
4.0665
304.747
408.151
535.047
412.509
379.153
245.618
1325.41
507.912
1148.06
1539.33
1231.25
1086.41
1225.07
1084.85
1887.48
1066.17
1693.84
2012.62
1567.97
1496.89
1715.96
1498.48
922.254
1343.44
1590.86
888.274
1018.14
1010.65
623.453
1543.91
396.513
609.241
357.208
1236.97
692.243
506.493
367.123
620.73
1562.72
1721.51
1061.27
1454.08
1620.75
1615.51
1387.29
1305.12
1258.64
1233.89
875.779
584.471
1023.19
1267.26
725.506
1054.28
2607.72
2694.46
2542.09
2543.96
2693.96
2634.32
2682.24
2676.57
2643.66
2655.61
2464.37
2573.39
2753.66
2564.82
2641.39
2479.58
2352.96
2244.05
2056.42
2168.91
2324.83
2266.78
2021.38
1931.59
2130.49
2270.73
2176.99
1699.06
2131.42
2240.32
1856.05
2144.99
2737.26
2476.96
2556.28
2551.85
2639.23
2609.42
2631.4
2611.84
2700.22
2476.16
2412.34
2461.53
2626.62
2557
2514.07
2501.65
2455.27
2276.68
2301.65
1970.93
2311.67
2520.68
2192.05
2244.97
2433.11
2292.68
2410.75
2426.47
2368.43
2300.5
2415.31
2421.51
1850.08
1257.7
1758.97
1746.92
1355.62
1424.91
1586.8
1522.19
753.513
891.034
1067.07
895.627
554.692
896.912
939.909
867.206
1362.31
1220.36
1259.61
1524.09
1244.97
1294.23
1304.23
1261.77
1624.78
1351.67
1584.7
1600.21
1438.53
1577.03
1568.27
1618.36
1081.56
1565.93
1576.44
1109.51
1163.16
1340.2
1139.14
1468.01
1116.35
1159.9
1190.42
1351.99
1119.9
1159.85
1115.56
1012.95
1707.17
1671.54
1321.53
1545.16
1713.81
1587.38
1439.25
1583.93
1383.87
1504.95
1145.61
1133.16
1420.73
1539.33
1142.2
1269.52
62.901
57.5379
131.067
42.6229
56.9013
59.4901
45.1665
32.8909
49.1434
96.1744
417.376
175.789
125.125
224.725
234.855
294.21
710.305
835.161
1241.86
960.393
800.151
987.644
1033.18
1186.97
220.799
167.423
438.037
486.839
338.237
226.157
511.623
496.642
70.983
239.645
53.7986
107.528
99.1051
75.0184
48.3522
73.0999
95.4467
208.844
519.111
354.375
104.797
188.87
244.991
371.915
309.104
105.91
247.808
624.14
287.348
108.214
426.387
171.469
423.682
803.087
299.7
669.71
556.547
556.691
556.948
454.793
1516.35
1383.8
953.89
1180.58
1308.31
1315.18
1118.03
999.354
1330.77
1296.54
924.823
994.415
1315.49
1342.52
1101.44
1127.91
556.599
561.082
204.815
290.47
526.121
499.311
363.452
338.473
846.622
631.108
325.285
590.587
763.896
729.678
564.919
505.602
1202.69
863.259
1001.09
941.736
1010.85
958.679
1019.61
1044.09
1290.72
985.047
896.443
859.317
998.599
983.402
881.707
879.564
658.724
739.724
755.499
316.768
662.981
692.022
514.223
591.416
610.947
277.659
741.345
720.124
601.789
557.916
773.703
620.905
63.8225
37.5484
188.844
194.386
32.0378
38.222
179.44
176.416
276.265
583.232
446.922
397.891
492.953
529.055
381.617
542.553
761.77
1093.48
1363.24
1242.98
898.011
1009.22
1115
1206.68
385.462
620.314
1107.89
932.931
597.841
707.16
839.062
916.688
93.5832
306.949
164.618
336.547
118.48
231.568
204.939
236.218
155.37
429.886
583.122
348.602
222.36
364.337
385.363
485.531
528.843
385.281
474.361
946.439
570.775
438.112
717.998
639.056
634.758
1089.84
637.845
878.162
811.13
817.319
703.565
825.122
2450.63
2067.29
2288.57
2153.75
2317.93
2294.6
2365.31
2241.07
1548.93
977.026
1495.19
1296.04
1365.87
1194.95
1651.49
1357.54
1978.27
1628.86
1738.61
1545.54
1832.39
1757.72
1722.32
1702.57
1821.88
1495.74
1349.64
1502.98
1675.17
1660.57
1711.4
1467.75
1869.05
2092.69
1938.89
1507.9
1992.07
2140.27
1721.14
1964.8
1802.83
1487.48
1616.76
2010.27
1866.91
1739.9
1900.74
1740.41
2072.99
1966.75
1660.25
1653.98
1824.51
1935.29
1713.92
1701.9
2005.29
1625.84
1510.01
1648.25
1825.89
1631.39
1769.38
1549.06
448.684
542.812
495.083
952.888
1030.93
665.461
565.73
607.041
295.413
11.8557
62.0266
233.535
24.812
47.7305
15.9864
-105.328
118.945
164.917
-3.17121
307.796
173.287
93.0536
142.679
74.2737
1462.43
730.064
990.652
1627.19
1536.47
969.607
1623.9
1247.36
427.939
557.558
1435.25
551.654
270.28
525.027
364.236
668.883
225.918
60.4772
215.879
272.513
403.813
174.113
135.975
-0.125769
181.489
1239.38
774.512
484.836
367.658
872.251
439.177
905.622
303.92
118.72
303.895
102.435
207.243
75.2662
-4.21216
77.4873
197.208
359.599
318.833
215.672
311.311
368.87
171.039
208.273
355.131
335.911
166.295
24.9666
334.06
315.276
238.675
286.215
142.73
109.834
37.3615
73.3696
107.737
90.4493
51.187
42.9911
212.893
79.3794
131.126
297.652
198.216
153.094
213.94
169.908
260.377
162.087
222.071
154.59
182.055
151.29
95.5669
200.028
291.549
87.0165
146.034
185.688
196.437
115.286
232.878
184.373
123.604
212.471
100.869
110.919
164.564
172.678
150.661
141.911
128.768
74.0177
73.5087
129.92
111.784
76.1688
121.783
33.6625
1854.73
1532.01
1427.21
1039.36
1767.72
1711.95
1629.3
1612.07
1140.22
943.836
1074.95
737.415
1013.8
965.657
836.177
949.057
1022.47
1300.9
1121.95
946.028
1255.06
1378.92
732.007
869.676
750.138
704.533
711.187
641.126
697.196
735.968
690.121
689.771
1360.22
1442.44
997.425
759.282
1077.07
1243.4
789.025
972.087
1464.93
711.07
1314.65
1572.02
1076.58
779.517
1196.65
1263.67
941.299
995.039
796.565
831.295
836.692
888.316
906.799
689.161
1065.71
810.087
726.39
910.011
499.673
891.972
825.364
811.297
0.0200844
21.4462
-24.7992
218.679
22.0476
28.8177
25.5544
-5.86741
37.3325
-24.8317
78.8345
170.324
87.5093
-12.5953
122.119
48.8083
-94.7041
-25.9074
-79.9105
-234.57
-21.3656
-75.8391
20.354
-85.5729
561.385
740.798
842.818
1414.07
849.754
1000.12
1232.49
1085.73
32.2574
74.5308
307.5
287.426
8.23472
106.792
110.888
147.52
5.22648
48.5429
56.2542
-156.525
3.22928
52.6872
-4.58279
60.0753
30.4428
637.41
387.922
821.638
-31.1433
400.927
68.2968
414.236
-197.745
342.473
98.1754
57.2995
-10.6742
-42.7821
44.1208
0.0380273
1518.4
1287.68
1781.63
1430.04
1443.56
1531.64
1604.31
1550.84
797.144
827.096
1152.47
686.747
787.278
835.329
834.657
887.348
1845.71
1438.29
1866.59
1606.71
1647.56
1484.12
1626.92
1631.26
1421.96
893.978
1449.44
1231.87
1209.18
1207.19
1376.53
1235.89
1148.03
1601.67
1373.27
981.871
1227.47
1410.24
1047.82
1385.31
1087.88
923.61
1146.18
1632.95
1153.36
957.27
1438.95
1133.13
1650.24
1531.24
1055.57
1461.69
1646.71
1394.87
1396.06
1191.65
1721.87
1438.8
1054.88
1273.05
1441.42
1338.42
1200.71
1191.77
-1716.53
-959.992
169.554
-233.896
-2196.42
-623.109
-259.79
-1915.27
-191.428
392.713
-66.4888
836.862
-211.525
804.172
140.257
266.819
138.599
192.187
1004.59
1509.59
174.203
228.21
761.887
969.509
1798.5
40.6035
2126.09
315.451
2668.01
2091.79
328.524
1241.3
-1216.82
-1595.88
204.142
1421.02
26.588
-2632.33
356.529
1624.08
829.367
1023.96
475.048
190.849
1066.42
-175.9
-63.7702
560.112
-522.861
2310.4
360.501
1713.57
1575.69
-261.635
384.989
-65.373
-875.912
1844.85
694.429
676.064
-1735.58
1523.95
353.199
284.975
1892.04
1687.73
1744.58
1667.96
1860
1766.63
1827.75
1732.63
1550.89
1379.03
1456.06
1284.63
1418.78
1446.78
1380.33
1310.45
1654.3
1560.5
1533.84
1526.05
1517.65
1670.29
1507.69
1394.18
1492.66
1243.34
1397.14
1557.62
1465.56
1287.24
1481.52
1313.14
1566.97
1651.5
1436.6
1349.85
1571.52
1609.63
1375.24
1427.3
1627.89
1369.37
1512.42
1702.48
1483.31
1437.87
1622.01
1464.79
1661.23
1482.2
1418.67
1463.89
1536.22
1596.62
1413.2
1465.4
1619.03
1336.52
1290.94
1353.31
1508.36
1572.66
1399.36
1476.25
1311.38
1357.08
1133.31
1392.93
1251.49
1365.77
1415.78
1345.95
1268.06
1271.34
875.83
1209.41
1243.83
1180.39
1316.32
1110.04
755.113
539.492
289.281
901.689
754.845
493.954
622.418
550.863
1289.35
1208.37
1213.8
1409.01
1192.31
1138.67
1079.32
1270.97
1259.18
1103.04
1178.37
1141.12
1396.76
1257.45
1317.68
1277.58
1233.48
1147.91
799.873
964.444
1274.71
1190.41
1004.22
1094.09
1076.62
1175.91
1175.55
818.213
1156.59
1241.45
936.947
1154.96
990.103
1028.81
1047.92
855.654
903.649
956.058
1001.72
1047.91
240.048
251.235
372.011
197.533
267.964
306.517
185.63
354.653
113.415
211.831
716.33
243.08
25.9835
183.723
39.8269
-463.745
1176.27
1283.75
2065.28
971.949
777.206
1323.19
807.831
927.789
282.184
378.298
-1855.44
482.109
208.724
-20.2281
813.727
-858.55
231.496
287.679
280.241
181.97
208.005
220.736
238.158
259.609
100.859
204.046
797.065
28.5115
170.991
54.0851
35.4657
-88.0111
48.8464
341.104
481.909
675.677
485.79
327.645
606.311
535.597
268.259
861.826
-170.973
-679.762
524.439
511.558
594.28
394.368
1728.1
2359.13
361.206
1003.61
1452.54
2047.09
228.631
858.358
568.488
140.912
487.752
232.537
425.58
576.104
390.268
387.169
-55.1774
98.8556
-410.896
344.495
242.269
-206.672
522.227
196.829
-3113.28
643.474
482.799
383.58
704.727
2159.81
356.325
753.234
605.46
585.935
958.709
295.82
675.968
337.256
1152.3
1244.13
789.591
507.069
574.062
333.827
573.975
509.491
735.796
487.409
736.911
952.471
650.73
447.43
-208.696
567.646
634.97
971.488
337.706
429.4
432.074
306.753
385.816
456.918
319.752
415.986
84225.7
65925.9
69564.5
110609
64695.1
53734.6
43961.4
94814.4
56863.3
41374
40700
45978.8
46796.8
33096.2
9411.67
30026.7
54094.8
46417.3
31890.2
59522.8
27286.9
38206.7
32367.4
20826
59621.1
23410.6
50445
45620.3
50941.6
21090.4
11955.9
35543.6
64030.9
48715.6
88793.8
30416.9
40974.5
51559.9
75213.6
37657
39769.3
8593.54
39079.6
68286.6
75633.7
23024
56340
26573.9
32757.4
33403.7
70478.9
80705.2
81857
43088
77564.5
75697.1
42979.8
-53752.1
74813.8
39112.9
-1.40194
-12703.5
1149.42
66830.5
25929.9
40809.4
45785.9
17300.7
44779.1
34384
30875.5
43542.8
36220.2
34243.9
18971.1
42999.5
27192.8
25092.9
56416.8
50032.5
16030.1
9380.82
-26979.6
66664.5
21139.5
-20813.9
-46240.2
10303.9
56920.4
4059.49
27329.2
23757.1
12416.1
-7661.71
-3409.26
47492.7
41845
60697.5
-26606.5
50617.4
58207.2
50529.1
69095.9
34048.8
41046.2
25129.2
2133.08
44386
47324.4
40168.6
30997.6
21517.9
39118.5
83401.5
29656.6
18221.7
-7568.97
33199.2
70437.7
26211.4
50678.1
80600.6
45990.4
51867.2
8400.96
77985.8
24936.4
53172.4
3104.69
3480.67
3077.13
2996.8
3384.01
3375.97
3181.54
3374.95
3652.31
3114.76
3018.48
2685.42
3291.7
3596.13
2814.8
3246.87
3228.35
2752.42
3188.63
2289.85
3188.4
3843.01
2863.63
3310.87
2821.64
2635.31
2330.34
2152.92
2624.31
2841.98
2422.24
2536.46
3456.26
3257.62
3125.52
3068.2
3150.46
3287.09
3183.14
3138.52
3750.84
3026.3
3596.03
3456.96
3533.38
3197.93
3481.34
3222.68
3087.34
2926.52
2915.4
2830.91
2651.07
2970.98
2874.8
3387.64
3364.23
2640.95
2823.37
3247.55
3148.53
2840.62
2889.44
2673.73
509.104
1222.03
1542.65
1283.41
1341.49
1060.75
1152.39
1571.08
2092.03
2703.11
2739.74
2052.72
2768.11
2330.78
2716.42
3649.84
2232.84
2828.56
3056.22
2633.21
2585.02
2404.47
2604.91
3315.21
1886.29
2098.13
2519.71
2046.68
2152.37
1966.2
1899.55
2882.03
1863.88
1846.84
1721.6
2374.25
2055.86
1924.44
1995.03
1768.58
2015.99
1806.87
2402.32
2000.14
2150.11
2440.91
2076.94
2797.39
2057.6
1506.5
2342.28
2238.42
1931.09
1842.35
2193.73
2124.71
2357.48
2657.66
2961.79
3627.23
2470.73
2395.48
2797.9
2576.72
75.9904
242.437
138.08
216.062
198.377
214.2
204.945
235.122
470.2
858.898
787.083
701.153
641.429
674.081
649.651
774.278
155.236
537.109
-275.858
401.062
389.962
433.669
321.82
422.842
368.046
504.539
508.039
491.13
439.999
494.525
489.995
519.554
403.006
317.776
312.532
575.566
373.514
373.815
455.698
310.263
428.664
594.149
577.128
269.465
446.658
651.736
341.99
521.323
324.801
360.21
593.66
537.804
323.664
382.383
530.117
552.068
337.209
619.952
674.333
706.646
499.082
538.131
556.067
730.095
52.3757
137.129
188.833
246.111
102.12
174.494
123.819
258.041
715.439
1098.65
714.348
1094.77
1030.01
880.534
975.433
918.339
105.154
407.258
111.133
365.707
180.355
183.331
230.815
212.685
408.557
1043.92
549.299
983.359
655.691
719.842
686.882
770.441
336.419
121.867
142.307
859.079
351.618
175.111
598.08
311.686
532.815
865.697
520.203
67.2539
522.019
843.586
265.966
626.864
43.605
214.343
833.736
410.413
266.829
357.901
381.535
542.438
102.155
495.408
865.187
586.29
417.352
493.249
648.356
679.225
1088.19
1527.61
1904.27
1489.75
1111.29
1482.18
1670.98
1705.22
1865.66
2052.26
2316.83
2029.51
1860.27
2018.01
2057.52
2220.16
2350.73
2399.49
2644.3
2461.26
2267.61
2342.26
2372.44
2396.48
1659.59
1873.42
2133.28
1869.58
1784.36
1922.28
1910
2014.36
1560.46
1801.35
1732.78
1875.42
1731.75
1625.97
1842.39
1845.43
1776.26
2061.62
2290.4
2066.27
1954.09
2024.46
2150.58
2142.94
1941.44
1878.6
2021.67
2177.85
1994.83
1971.31
2068.28
2013.85
2128.9
2256.05
2149.57
2353.84
2130.24
2202.92
2187.99
2169.49
29.3233
22.1207
22.4571
167.688
46.8718
7.87148
86.0631
110.794
-295.049
413.335
181.629
1886.23
434.263
449.54
467.142
427.543
22.6134
220.88
597.063
685.622
110.664
215.202
46.6034
184.386
310.305
1468.29
469.48
630.943
280.81
554.033
311.729
746.393
72.5346
62.0316
97.9059
962.973
67.7688
93.2993
503.178
50.9453
-12.7613
844.669
136.576
88.9062
134.823
279.268
108.479
82.4352
125.942
169.627
725.583
437.942
80.2576
290.96
305.575
418.945
160.075
724.825
1137.11
-40.3186
273.62
499.32
34.3073
516.199
1875.51
1688.07
1061.47
2079.65
1913.43
1274.84
1863.92
1195.22
1287.66
819.11
571.488
1790.02
1238.2
1132.21
1203.27
679.224
608.553
360.709
117.749
494.39
507.898
247.681
380.952
131.008
1919.8
2036.03
1107.94
1894.72
1990.11
1610.9
1671.67
1198.06
1522.78
1030.44
1908.97
1742.78
1510.94
1255.47
1744.32
1490.07
1180.2
1290.73
649.877
635.162
1001.02
823.734
874.003
727.023
1044.48
1719.3
1518.45
912.433
970.711
1310.48
1091.8
1414.32
552.372
286.901
990.072
308.87
553.25
639.704
662.187
1005.55
-72.2945
530.352
1072.08
456.598
250.407
564.408
371.475
656.46
990.866
966.718
1389.23
1135.89
969.686
1017.13
1155.92
1217.6
1807.87
1594.15
1715.11
1508.06
1371.1
1522.76
1085.98
1307.46
788.191
1168.04
1248.05
1169.86
914.198
1139.88
1107.79
1207.42
652.392
1004.74
779.484
1049.41
788.664
779.824
884.204
863.241
889.916
1100.75
1307.47
1327.37
961.845
1211.57
1249.46
1204.2
1070.38
846.397
1160.67
1456.95
1178.49
1039.39
1318.88
1177.22
1256.8
1535.1
1262.04
1384.8
1342.5
1508.25
1287.15
1497.44
345.01
-814.405
177.868
424.745
688.981
-501.301
195.494
518.354
-1077.37
-2065.18
211.803
-798.978
976.789
-163.654
-799.746
873.935
-46.4289
-121.738
-30.2077
100.442
-69.8648
-107.397
8.51967
-96.6849
63.7084
-27.3202
-95.897
-81.2298
158.667
-208.43
-83.6536
40.578
1076.98
89.7866
919.837
383.264
79.6937
156.141
-132.404
-424.072
-346.499
110.245
404.366
88.4216
117.655
-539.774
-28.4205
527.974
-80.6272
151.754
298.39
254.739
143.671
637.365
360.986
439.131
250.902
397.167
418.774
-59.555
-179.007
166.915
-272.467
-104.75
-350.457
-95.9169
743.707
452.28
208.178
134.716
711.867
358.666
1.07688
-22.7345
78.1241
27.5358
82.3793
-4.73475
-30.7385
5.4786
702.54
143.15
275.769
245.123
396.964
240.892
582.651
560.475
291.884
308.695
405.928
353.679
283.982
283.424
296.565
281.645
132.82
458.422
136.944
232.087
76.8091
10.5929
330.678
437.411
-8.24575
44.5423
225.717
352.312
127.19
5.82054
330.705
161.893
-121.591
178.042
303.727
573.192
278.475
367.279
402.551
428.156
38.9341
298.667
164.054
236.264
437.299
120.893
167.047
145.577
40.7935
43.9527
244.077
196.126
100.346
99.2269
189.635
217.023
99.6953
84.4484
279.019
266.682
157.504
140.452
228.929
226.932
480.616
486.371
795.293
660.045
552.026
539.261
768.586
734.226
348.161
364.207
460.038
451.879
344.204
398.376
478.066
429.316
144.568
300.523
228.163
273.732
221.711
272.703
205.018
233.809
131.909
303.47
345.192
285.014
216.128
244.554
267.102
338.091
477.466
335.302
370.4
618.64
459.007
360.898
452.857
438.74
366.272
549.595
375.128
456.983
517.392
457.742
448.728
437.252
1215.68
1064.35
1598.75
950.035
1123.14
1261.54
1248.46
1223.15
772.066
240.887
897.214
621.284
605.126
607.317
700.048
749.848
1849.42
1548.33
1653.55
1398.16
1880.96
1927.1
1976.29
1855.91
620.607
659.389
834.319
584.245
511.279
706.431
577.389
627.396
823.733
1395.25
913.536
724.217
919.865
1126.46
936.747
1078.2
991.692
790.165
1250.45
1629.42
977.431
984.726
1398.84
1192.73
1484.97
828.522
823.13
1055.6
1136.84
1035.1
1060.69
1017.14
1505.21
1148.66
849.737
1297.15
1523.67
1130.45
1172.1
985.684
-791.33
1219.43
-1268.95
-776.291
-2309.72
-2441.41
-1395.02
-208.373
1366.89
727.659
1853.39
2634.52
551.452
9.4936
891.974
968.291
-1973.01
9026.11
17257.7
-2257.29
1615.62
-6208.35
-7333.59
4825.06
3335.87
2085.68
4778.5
2784.51
2484.32
635.509
3125.53
4468.31
-739.956
-1030.05
-593.978
807.551
-3508.57
-2368.07
-970.083
-1283.39
997.662
3176.84
-173.449
-181.045
-41.1706
-631.154
1430.71
-769.656
-1085.46
-384.341
-1424.57
549.752
-4460.61
1045.23
1413.9
3987.48
2206.82
2079.02
-1153.23
194.008
-1472.65
1317.71
-3964.72
187.935
311.086
698.46
572.175
563.336
410.148
514.929
608.912
650.352
996.751
1566.48
1527.86
1337.08
1234.16
1364.87
1294.95
1407.84
800.555
1376.18
919.609
1124.82
1013.3
1059.24
1006.25
1136.94
970.179
1261.56
1336.6
1326.49
1129.18
1268.37
1324.33
1405.25
817.97
822.04
742.671
1157.99
887.384
794.417
931.698
863.2
936.676
1220.95
1379.26
907.576
1026.16
1187.35
913.554
1248.3
917.538
939.962
1264.45
1190.07
911.744
999.667
1166.49
1189.31
940.607
1258.38
1354.78
1419.81
1106.61
1233.52
1301.92
1311.86
8424.12
917.899
1541.31
2281.36
2550.24
18373.9
-8605.3
2894.44
1699.63
1609.91
1432.46
103.023
1596.62
1601.6
1348.7
943.902
2440.38
684.64
882.645
4031.61
3283.83
1372.19
3318.58
1083.95
9989.57
4248.54
4401.27
318.07
3769.64
870.338
2675.65
1908.72
-961.48
317.408
5476.09
-708.867
-2924.17
4090.17
-2596.57
3375.1
5618.34
-807.365
1882.1
6065.86
2612.08
-504.942
-1928.87
-542.065
-1888.28
8881.68
2432.29
6667.75
10312.1
5326.6
5396.64
4370.78
7851.62
4530.64
3441.26
1019.11
6103.71
1257.76
575.298
2780.64
-88.8207
629.17
1084.93
436.748
561.256
641.822
735.465
823.015
793.567
1016.54
1328.53
736.985
771.631
994.224
647.615
885.297
1705.21
1795.85
2051.84
1364.97
1551.61
1584.63
1999.47
1803.36
524.029
618.465
877.966
565.494
553.814
607.64
575.604
653.721
765.198
1017.61
690.476
657.432
766.927
853.147
710.258
707.202
945.826
750.731
1359.4
1254.03
938.586
887.648
1297.53
1168.78
1117.56
805.332
739.182
1010.56
1087.14
823.442
972.907
838.959
1234.06
1052.84
826.923
1338.83
1188.16
1000.2
1054.81
1137.9
47.3314
-251.838
78.7534
165.688
155.752
387.296
241.881
744.332
1939.43
14021.1
7872.71
4061.43
5294.26
6541.54
7371.65
5757.15
98.1849
3831.76
1566.56
979.744
680.549
1100.47
856.928
1310.43
356.644
2702.55
3191.75
149.93
668.998
1991.32
1377.94
2689.13
806.98
393.968
295.728
1086
1246.18
684.465
1415.93
1337.21
1423.88
2955.64
1898.34
545.28
1189.29
3720.02
2140.67
2622.04
608.964
596.107
1045.37
1019.28
811.073
1546.88
775.317
722.989
621.585
2678.18
3695.37
1519.58
1811.65
2613.19
3166.24
3877.49
39.5135
31.758
36.3096
185.875
68.5922
26.9165
124.756
77.7567
19.3157
36.7032
37.4412
175.174
35.3799
24.561
103.755
63.5247
35.2972
35.5784
60.447
221.096
71.0894
40.4579
108.814
81.397
305.372
323.192
317.029
404.925
328.877
314.902
359.593
331.918
45.9234
50.5373
205.936
169.525
100.461
116.659
164.162
173.264
32.0736
162.752
15.0134
25.4973
63.6064
112.848
31.493
46.8063
121.162
241.305
223.435
223.981
207.828
202.11
190.847
249.327
67.4499
184.826
195.12
46.6493
140.14
149.109
105.021
196.398
559.177
-109.409
504.904
907.386
906.562
515.726
876.7
597.362
80.6104
-127.894
-424.327
390.442
287.065
147.836
377.095
202.951
-201.276
-326.203
-100.753
-157.751
-1369.47
-1003.22
-1249.04
-350.614
1242.38
996.228
1865.64
1623.15
1410.25
1132.81
1477.43
1396.89
64.3668
-162.112
1035.82
331.678
115.211
130.938
188.296
1523.3
-87.7198
447.873
-305.328
-565.931
-67.7759
263.153
-281.62
-131.187
134.847
1008.8
461.492
847.403
145.511
1277.96
757.315
1255.47
-416.99
492.583
370.382
25.9038
-299.711
559.382
-14.2723
326.853
3121.29
2806.54
2639.09
2810.62
3391.39
3254.4
3198.02
2876.68
2280.04
1959.09
2230.71
1932.09
2433.69
2262.92
2129.56
2066.93
1693.87
1850.07
1702.09
1702.56
2106.9
1795.72
1734.74
1459.9
2304.3
1803.81
1856.56
1761.65
2038.94
2049.74
1955.48
1970.93
3079.45
3057.66
2687.18
2164.4
2924.65
1747.38
2155.4
2427.76
2851.46
2091.98
1957.42
2879.76
2347.49
1676
1820.53
1986.75
2837.14
2578.94
1956.5
1829.18
2114.09
2020.57
1991.26
1841.7
1864.7
1839.71
1878.46
1521.76
1370.35
1938.38
1632.48
2003.11
-48.7565
-112.867
194.927
121.888
26.1842
-39.6488
369.125
350.508
-87.7953
58.7055
48.9902
349.216
156.984
12.7373
240.382
134.55
53.4564
32.1542
103.861
428.184
128.648
20.5297
217.706
119.818
667.612
723.25
761.513
1057.95
864.783
740.65
1052.64
876.773
-40.2304
15.9017
222.34
426.174
176.235
53.2674
231.282
178.028
1.86276
250.981
46.6286
43.4129
143.616
236.962
37.6062
134.41
183.154
529.996
653.177
610.808
268.666
385.242
409.457
513.666
109.983
487.932
489.54
162.778
178.327
381.564
218.173
333.957
-8802.48
4808.24
-5447.47
2076.15
-3287.56
-11795.6
-126.636
991.163
1992.1
17674.5
23292.7
6926.24
18807.7
24136.9
-1568.36
-785.832
-2052.9
7984.23
1613.3
2859.8
2063.17
1120.37
2121.48
1194.9
631.816
3822.66
3683.89
1623.81
1675.8
2691.55
2543
3895.26
10591.7
-4712.39
574.966
3399.53
6242.73
2311.22
2381.67
291.202
6799.1
3827.93
3474.51
-7063.3
10805.4
479.053
5950.51
8692.67
136.776
782.237
4664.69
3155.77
1662.34
2907.77
1948.35
2829.22
935.051
3729.26
4815.04
7830.55
3205.2
2034.89
5876.8
3849.04
2484.28
1915.98
2582.39
1559.16
2075.62
2164.63
2108.49
2130.73
1393.59
1092.87
1360.23
760.217
902.56
1179.01
788.422
986.376
2362.2
1682.88
2156.02
1538.68
1861.53
1972.03
1867.5
1792.18
848.376
741.445
886.058
667.076
680.522
726.259
604.539
708.57
1426.51
2007.6
1224.59
732.575
1451.74
1579.7
1013.31
1299.59
1599.46
844.632
1487.56
2123.47
1454.56
1002.65
1921.82
1346.08
1918.26
1089.53
765.498
1012.44
1576.01
1218.28
1171.55
844.127
1991.68
1151.76
798.029
1360.93
1440.31
1165.47
1149.84
987.567
636.702
891.525
70.4515
1076.48
1060.54
884.715
586.083
341.071
759.117
602.842
506.428
1060.98
727.298
341.343
759.86
570.505
32.2103
156.142
-57.9057
218.153
146.303
136.931
253.729
326.554
1664.75
1495.28
1034.16
1672.62
1633.98
1486.31
1807.56
1401.05
869.184
270.829
1307.09
1257
770.74
658.374
1251.19
1058.3
702.331
985.601
317.848
291.286
571.886
800.083
247.939
542.914
376.089
1190.38
1305.93
800.017
349.395
818.587
601.425
1052.65
334.113
706.938
1020.8
502.409
398.265
606.996
407.787
554.025
46.3771
135.279
102.537
187.562
102.48
113.918
97.1644
120.884
472.195
726.849
637.592
932.578
620.148
658.364
712.18
758.288
206.997
612.836
764.272
535.044
299.615
445.575
396.355
536.822
434.279
873.123
753.807
937.52
657.893
640.561
754.783
768.252
274.443
159.774
299.421
618.621
286.544
195.336
435.279
274.754
246.796
660.212
489.43
176.038
282.421
561.835
302.133
425.688
198.325
304.529
714.705
490.645
264.154
304.275
363.791
531.646
210.765
577.946
718.115
579.768
377.12
429.101
502.357
607.085
1878.97
2240.87
1457.85
1946.69
2003.68
1950.03
1857.41
1751.3
2544.06
2847.98
2063.63
2701.73
2698.18
2490.91
2422.65
2409.17
1014.02
1298.05
727.744
1059.96
1132.65
1053.19
873.516
826.317
1886.95
2285.43
1455.14
1743.85
1915.05
1848.82
1663.44
1579.1
2421.04
1610.38
2004.03
2348.53
2164.57
1901.25
2408.56
1931.56
2280.96
2213.8
1706.68
1581.37
2023.25
2127.66
1784.99
1773.8
1369.21
1760.75
2068.61
1314.36
1462.99
1726.87
1510.94
1887.95
1317.27
1268.57
1979.57
1529.72
1386.2
1418.24
1589.7
1760.65
21.769
137.92
25.1884
85.9888
44.4839
65.7568
51.7499
43.947
381.73
662.193
251.508
590.604
547.512
550.88
455.159
537.739
-9.2644
101.008
-59.16
65.0993
41.0904
43.6003
9.02055
26.3525
198.185
561.468
284.298
654.623
412.459
431.512
434.485
440.62
190.846
32.0781
98.7129
441.099
145.948
48.6715
240.43
97.2548
184.887
488.311
241.973
36.4848
145.348
283.303
30.505
129.411
26.6749
118.304
366.795
188.983
78.9448
128.229
186.4
257.08
28.0682
167.536
387.486
176.751
99.4498
184.832
157.217
224.911
1849.15
1156.48
1609.95
1591.2
1546.73
1538.86
1722.45
1393.72
1219.36
840.991
806.75
481.723
1093.05
1004.04
741.978
699.372
1249.41
720.809