/*--------------------------------*- C++ -*----------------------------------*\
| =========                 |                                                 |
| \\      /  F ield         | OpenFOAM: The Open Source CFD Toolbox           |
|  \\    /   O peration     | Version:  2506                                  |
|   \\  /    A nd           | Website:  www.openfoam.com                      |
|    \\/     M anipulation  |                                                 |
\*---------------------------------------------------------------------------*/
FoamFile
{
    version     2.0;
    format      ascii;
    arch        "LSB;label=32;scalar=64";
    class       volVectorField;
    location    "1300";
    object      U;
}
// * * * * * * * * * * * * * * * * * * * * * * * * * * * * * * * * * * * * * //

dimensions      [0 1 -1 0 0 0 0];

internalField   nonuniform List<vector> 
43136
(
(-5.55497 24.46 23.7117)
(-4.87573 14.1272 14.8692)
(-2.09531 19.0503 24.8947)
(-6.59419 27.6437 15.6481)
(-8.39596 28.4023 20.2445)
(-6.0284 24.2166 22.2864)
(-4.07722 24.7613 19.8041)
(-3.0698 24.0387 22.1699)
(-15.9731 23.5615 21.3134)
(-18.0986 23.2103 22.3349)
(-3.64681 12.7344 20.6686)
(-5.98396 16.3794 16.4662)
(-18.4108 23.1052 20.0486)
(-18.016 20.2254 21.3781)
(-5.1085 17.9503 20.5401)
(-8.70948 15.1883 19.8528)
(3.69032 19.981 27.2054)
(-0.155875 8.34062 19.6735)
(0.597268 16.3795 24.535)
(-2.83376 19.6755 24.666)
(1.32829 18.164 25.9292)
(2.98197 13.6162 27.6194)
(-0.0681331 19.1453 25.3144)
(0.0735783 16.8705 27.5359)
(-12.1757 29.9492 17.4352)
(-10.9461 24.1925 12.3236)
(-6.02886 24.6772 20.2005)
(-17.2386 35.6967 13.3622)
(-9.82548 35.1663 14.8311)
(-8.01448 28.4885 17.8732)
(-9.07944 34.8124 16.8172)
(-7.91396 27.6928 17.2125)
(-4.95976 7.55384 14.1636)
(-3.70087 22.4382 21.6333)
(-7.43834 31.1412 17.0579)
(-3.90434 16.5893 10.8865)
(-0.445245 10.6097 15.5056)
(-4.53797 23.6444 19.843)
(-5.77228 12.999 11.609)
(-6.14745 24.4974 19.708)
(-12.9354 14.442 20.4544)
(-2.95838 11.6911 18.2494)
(-0.990459 8.41643 20.4996)
(-2.01933 17.8525 25.0198)
(-3.89934 9.97315 18.7124)
(-2.62663 12.2404 17.7947)
(-1.57493 8.87799 21.0947)
(-1.96461 10.7444 18.6555)
(1.65784 25.125 24.0548)
(-8.49441 30.2002 17.3832)
(-7.99286 22.8168 12.9525)
(-3.3049 25.0275 20.7533)
(-1.67518 24.9505 22.6291)
(-3.78526 28.5362 19.1731)
(-4.03855 25.6223 19.8319)
(-6.35192 24.1612 16.7193)
(0.644371 21.5902 26.8144)
(-3.65825 20.7716 22.8459)
(-5.69779 15.9998 17.0248)
(-3.45421 10.1578 20.8213)
(-0.303745 17.5583 25.9906)
(-3.34763 17.061 20.9271)
(-1.75963 11.4576 20.902)
(-5.74151 13.316 17.3026)
(-73.0609 29.9866 1.43742)
(-52.3548 15.5642 3.01377)
(-49.7865 12.7654 -4.91606)
(-55.5185 21.0349 2.48909)
(-48.4958 16.7585 4.15266)
(-38.6552 11.2786 -1.18959)
(-62.2878 21.4151 2.2203)
(-40.796 8.98447 -4.28168)
(-58.9405 25.6068 21.3066)
(-46.7649 31.0497 40.7492)
(-54.6939 28.4972 27.3779)
(-44.1201 24.0946 27.3068)
(-52.5861 29.589 29.4884)
(-47.127 29.3188 30.9167)
(-50.1629 27.4714 28.6549)
(-50.3159 24.8143 29.581)
(-46.0297 14.9683 5.94028)
(-55.9526 25.9422 21.0873)
(-44.8599 19.7778 12.8135)
(-30.7166 15.7326 10.3408)
(-49.3922 18.1244 12.5224)
(-55.8477 26.9436 16.0804)
(-44.2037 13.882 12.1396)
(-42.698 20.1831 14.012)
(-64.2655 19.804 7.1408)
(-32.0956 9.69966 15.1782)
(-45.2847 11.1796 4.70473)
(-73.347 20.562 14.7319)
(-50.9404 12.6492 10.288)
(-43.0157 10.4291 9.40131)
(-62.1429 19.2998 8.12306)
(-44.8723 10.5033 6.09548)
(-50.9001 13.7163 14.5677)
(-41.6265 9.64921 5.60604)
(-41.5787 13.169 1.79249)
(-30.7518 10.1869 13.7124)
(-28.6826 11.3521 8.87925)
(-38.0957 10.2306 1.06467)
(-31.6971 10.6843 6.93882)
(-37.7664 11.0716 2.89222)
(-62.6892 24.9036 14.1344)
(-40.1063 21.1984 16.2131)
(-62.3877 30.0116 27.5899)
(-45.4205 16.2102 9.13507)
(-44.0622 18.2963 12.8716)
(-50.0901 22.416 18.5892)
(-53.6129 22.6629 10.1658)
(-52.5576 25.9402 22.5733)
(-47.86 14.8087 1.37575)
(-52.8366 21.4929 0.914696)
(-25.0167 9.51155 18.1771)
(-44.6516 16.2507 3.67805)
(-47.2972 17.6989 1.38092)
(-44.6232 15.6279 3.20017)
(-40.7317 7.184 6.99871)
(-35.3581 7.45322 3.71665)
(-43.1179 13.7076 9.5535)
(-21.0323 8.237 11.2609)
(-28.898 13.0975 18.5898)
(-53.2329 25.2474 23.3487)
(-46.3808 18.0973 9.38941)
(-32.6046 10.5322 14.9777)
(-52.6459 19.4589 17.4752)
(-35.6334 20.2008 18.5862)
(7.30499 13.2343 20.2638)
(4.56254 14.6761 21.3401)
(4.36745 7.44603 19.0535)
(2.72168 17.0779 17.4379)
(6.54909 15.637 20.9192)
(5.94189 13.961 19.6374)
(4.13709 12.1506 16.4722)
(3.11125 11.331 17.5394)
(0.246163 10.8397 22.3474)
(-0.156514 15.7281 30.8208)
(-0.383575 9.42641 28.5128)
(-3.05972 15.4942 25.2162)
(-1.5119 12.6245 22.8681)
(-0.647603 11.4103 26.5137)
(-0.634097 13.709 21.7294)
(-0.823137 12.7175 27.3691)
(3.96784 5.09426 19.7319)
(3.55163 6.19892 25.4408)
(3.18954 2.63583 19.1989)
(3.35029 8.30319 18.5482)
(3.75661 6.58266 19.2193)
(3.4161 7.07884 21.9151)
(4.01603 6.14148 18.212)
(3.51499 7.22236 22.3621)
(-0.702174 20.5021 14.0654)
(-1.09949 18.5524 21.9075)
(4.15716 17.3177 17.5692)
(-5.37831 23.7932 12.7511)
(-0.752689 20.0819 14.2393)
(2.48148 17.3218 12.7724)
(-1.48766 16.575 10.7089)
(3.24349 15.3338 16.6421)
(1.67035 14.7044 20.3023)
(2.65636 9.53426 18.8112)
(3.37998 19.7059 18.8404)
(1.22411 15.3978 19.1767)
(4.23469 15.7141 19.4728)
(3.81567 16.895 18.8778)
(2.60948 16.069 19.0836)
(3.80448 16.6984 16.8437)
(1.21309 12.3854 21.3983)
(2.52787 12.5932 20.0478)
(1.11105 8.67907 24.3137)
(4.02327 9.73018 17.3368)
(2.68056 13.2602 20.2335)
(1.07707 10.2379 19.4134)
(3.96004 10.5347 21.7406)
(1.75811 10.5326 21.2138)
(2.16297 8.62717 18.2974)
(2.45132 15.9867 14.9654)
(2.82697 17.8874 18.5141)
(2.98518 12.8822 18.039)
(2.56882 9.08517 20.424)
(1.11187 8.7517 13.5979)
(2.03627 11.874 17.9554)
(5.14426 17.9104 12.2094)
(3.40833 9.0554 17.7668)
(1.94549 12.5554 20.8926)
(0.195422 14.3055 22.714)
(1.17189 9.88447 24.9163)
(4.24787 11.3774 16.4299)
(1.93477 11.7022 17.5538)
(2.41283 11.9522 21.0358)
(0.650622 13.0006 23.4117)
(-117.976 13.557 33.2266)
(-94.304 12.4045 35.5686)
(-99.2298 1.19066 39.9943)
(-104.349 22.5911 60.7492)
(-110.404 16.0537 38.6043)
(-106.046 11.5927 37.1074)
(-119.007 23.2928 57.4321)
(-113.678 17.1865 44.0709)
(-82.6153 8.52259 36.828)
(-74.5348 3.70869 40.7993)
(-79.5935 3.67446 44.5569)
(-77.5589 14.7923 53.2798)
(-77.9347 8.18254 36.6332)
(-78.4327 3.39876 38.5585)
(-90.7127 5.83616 42.7544)
(-92.1614 -0.772776 47.174)
(-63.9416 -2.18453 28.1184)
(-62.5842 3.27313 30.7069)
(-5.71959 3.28748 -20.3772)
(-68.6134 15.2745 41.4205)
(-62.3295 0.437244 28.2929)
(-62.4418 2.69548 28.0087)
(-62.0226 2.21969 27.9215)
(-49.1209 6.06646 18.5064)
(-79.3747 37.1749 48.3399)
(-69.6694 35.1641 48.5865)
(-72.8302 28.7764 52.3031)
(-56.8393 36.8791 48.1912)
(-73.779 38.5848 49.5801)
(-68.4822 31.1179 45.5424)
(-64.7454 35.6793 52.6265)
(-66.2321 34.7062 45.9946)
(-90.1712 12.4812 35.8874)
(-95.9295 1.78239 42.1199)
(-98.6141 25.0483 60.77)
(-89.2877 20.7632 57.1154)
(-106.784 13.0146 44.2657)
(-108.192 12.7922 43.9368)
(-87.9939 18.3873 56.9112)
(-92.6692 17.1467 61.6165)
(-89.6148 8.1682 40.9128)
(-75.0456 10.0098 57.6047)
(-84.0498 4.28911 44.0725)
(-94.9942 3.44371 41.535)
(-102.788 6.83517 43.3133)
(-98.2496 4.84526 44.4193)
(-90.7293 1.66018 43.9067)
(-84.5086 2.89465 43.9073)
(-101.97 6.90104 42.6906)
(-98.3485 38.3535 52.3173)
(-90.1732 28.0999 52.2766)
(-90.1488 21.5042 53.4055)
(-85.9687 20.4255 45.5067)
(-93.5767 31.8564 52.0575)
(-85.0238 23.7452 49.0402)
(-88.4363 29.2145 52.7041)
(-95.6322 6.44485 41.8464)
(-83.8414 19.278 55.3432)
(-81.1818 26.3242 51.0976)
(-83.9734 6.77303 41.96)
(-89.682 5.93433 41.2128)
(-81.1665 13.0381 45.7346)
(-87.6108 6.41045 41.4551)
(-73.2849 21.1162 45.9837)
(-4.86171 31.4271 35.4148)
(-2.28538 31.4279 37.6532)
(-4.90349 30.6002 43.7119)
(-9.71828 21.7331 37.7815)
(-4.9063 30.1068 32.9776)
(-2.43128 31.3116 36.4612)
(-8.43904 28.9125 36.8393)
(-6.72083 28.8648 38.3491)
(-1.98419 29.8494 40.6999)
(-1.97003 27.5553 43.5132)
(-2.8347 28.1765 47.1997)
(-11.06 21.2418 40.2891)
(-2.37888 28.3226 38.2986)
(-1.19498 29.1873 42.1659)
(-7.68798 25.0287 39.3079)
(-6.38092 25.0309 42.7173)
(-5.08549 28.5637 46.8342)
(-3.56916 29.6947 47.849)
(-12.826 27.653 55.7825)
(-12.027 22.2815 47.7684)
(-5.49677 27.8039 45.5537)
(0.377309 30.3325 47.5858)
(-8.82012 24.8199 52.7405)
(-8.58239 28.1972 50.4817)
(-22.3972 24.6819 43.7972)
(-20.0557 25.3427 44.5534)
(-16.7892 22.606 42.1561)
(-28.3217 23.6854 38.1102)
(-23.3742 25.4072 40.9768)
(-21.7985 25.8747 44.635)
(-23.1623 21.6546 35.704)
(-20.002 20.0437 41.6772)
(-2.20799 30.3496 35.7563)
(-4.56065 29.1963 41.5252)
(-10.3292 21.2978 34.9548)
(-10.8545 21.2888 37.7383)
(-8.04501 25.7449 38.5353)
(-6.14923 28.795 37.6968)
(-8.98966 20.7237 38.5213)
(-9.3199 21.829 39.4125)
(-1.48926 30.9337 39.539)
(-9.2655 20.8346 37.9951)
(-0.282155 30.2714 46.4299)
(-2.30638 30.0502 45.8895)
(-6.05791 27.7851 39.645)
(-6.52384 25.6479 38.5996)
(-3.49711 30.4266 45.7046)
(-4.86174 28.6172 43.5746)
(-7.73444 26.4417 40.1939)
(-14.9555 21.3528 40.4412)
(-16.4791 19.4579 41.5481)
(-12.4784 20.5515 44.8671)
(-6.98565 21.0892 41.4686)
(-13.5563 20.1436 41.5141)
(-12.5572 20.1032 42.3183)
(-17.0616 21.0265 43.1828)
(-4.89644 28.8662 44.0121)
(-12.8123 21.9448 44.3146)
(-16.7253 20.4454 44.9644)
(-6.14429 26.1099 49.265)
(-4.24208 28.6443 45.9472)
(-8.95523 19.7336 41.758)
(-8.05035 25.3451 43.691)
(-15.5404 20.5947 43.1336)
(-0.762698 17.6353 32.2994)
(-4.25523 9.47601 27.5957)
(-1.40974 10.0979 29.364)
(-6.83111 15.4334 23.1192)
(-0.351576 17.9377 34.3508)
(-1.27659 10.7486 31.0083)
(-4.74258 16.3057 25.7945)
(-0.946963 10.8323 30.219)
(-7.12075 11.4546 21.9988)
(-7.98234 19.0502 16.2264)
(-3.68876 10.7069 20.1453)
(-14.9069 21.0358 22.306)
(-9.66785 13.4399 23.6195)
(1.50936 10.7883 16.4565)
(-12.939 18.6778 23.1981)
(-4.08162 12.7635 16.8424)
(3.10447 6.09199 24.867)
(-0.83275 2.89742 19.4673)
(2.56817 3.14792 18.925)
(1.92991 8.99373 19.9728)
(0.690576 7.46205 22.6192)
(0.693349 1.53729 19.7777)
(3.21837 8.61295 22.4575)
(2.28623 2.8006 19.2761)
(-8.49559 18.9858 18.9782)
(-7.97404 20.5032 11.7653)
(-6.42764 24.0536 20.3928)
(-13.4486 31.6154 13.8196)
(-8.22634 22.5107 15.7015)
(-6.23362 21.5122 19.0469)
(-10.9098 24.6487 17.5609)
(-8.93886 21.4759 17.8489)
(-4.1224 12.1818 28.7806)
(-3.02529 8.38482 24.1644)
(-7.44942 14.675 22.0195)
(-3.08813 16.0952 16.6175)
(-2.8357 12.4118 23.6808)
(-3.01924 9.65146 22.2814)
(-3.52152 12.4737 17.1083)
(-1.47554 11.0973 20.6506)
(-4.93343 7.44493 26.2475)
(-5.10709 17.6776 26.1739)
(-1.30251 5.05423 23.0337)
(1.51901 5.37415 26.833)
(-1.84701 10.5997 21.8804)
(-7.9076 14.5603 26.1207)
(2.02095 6.67419 26.6824)
(-4.42188 11.9889 28.5526)
(-2.21415 13.4528 24.6325)
(-8.09198 17.735 17.5357)
(-5.478 13.4726 13.2608)
(-4.3382 22.0156 19.1898)
(-1.15216 14.8188 23.6383)
(-3.28588 14.2434 19.9571)
(-1.01323 16.7711 24.0018)
(-6.00663 16.9644 19.1567)
(1.3194 7.97861 24.1829)
(0.400518 10.2307 20.8388)
(-4.21366 10.928 15.2575)
(0.505414 7.11571 20.6383)
(-0.138294 8.41702 21.2471)
(1.15237 10.3511 23.0339)
(-5.21931 9.20561 21.9694)
(-7.09148 11.9374 19.4449)
(-75.7092 93.4614 5.6633)
(-44.9652 59.5725 3.85825)
(-42.9725 56.7835 10.8313)
(-49.9854 64.3084 4.68118)
(-63.9865 77.864 8.0525)
(-49.2924 68.2503 10.7216)
(-53.3241 61.4804 7.62975)
(-48.1714 64.2854 9.08257)
(-21.1309 32.9592 11.4219)
(-21.5751 29.0625 20.997)
(-19.7071 24.7656 18.9576)
(-5.21516 15.9222 14.8529)
(-25.3216 34.5246 17.3969)
(-24.6933 31.8808 18.9608)
(-17.7291 24.8979 15.6427)
(-21.2303 27.7233 18.1477)
(-13.2308 34.662 14.2097)
(-5.76825 15.2952 15.8718)
(-4.62459 29.8088 23.0627)
(-7.55551 30.6121 13.3925)
(-14.5098 33.7118 13.3003)
(-10.2574 30.0073 14.2683)
(-9.29238 33.0281 21.3272)
(-10.1302 31.6887 18.2947)
(-29.7411 42.2112 6.56041)
(-16.6278 31.8791 13.4176)
(-17.4722 32.1456 12.1957)
(-25.2979 40.3321 14.3847)
(-25.2283 37.743 10.1057)
(-20.9885 35.4096 9.10469)
(-19.9833 37.7017 14.1126)
(-18.1603 34.4219 11.6342)
(-26.1671 39.5743 5.10886)
(-35.4556 49.1008 9.65373)
(-39.2732 51.19 8.71212)
(-10.938 21.4128 6.28963)
(-23.492 33.0289 3.63738)
(-30.3256 45.2967 9.10876)
(-17.9104 34.8118 6.37274)
(-32.9434 48.4039 7.47455)
(-14.4729 30.5401 13.5371)
(-5.08205 15.9242 9.32114)
(-8.07644 13.4787 13.3467)
(-13.2152 35.2504 13.4085)
(-16.159 31.2908 8.13325)
(-8.09696 17.2284 10.3261)
(-17.2387 29.3762 9.20896)
(-7.81828 17.51 10.8187)
(-31.5694 44.8544 10.2923)
(-30.5678 40.9365 8.13144)
(-15.0655 25.7578 9.6569)
(-12.8289 31.8559 13.9015)
(-22.1296 42.2068 8.63976)
(-29.2592 41.9628 9.23158)
(-18.5032 35.0163 13.4657)
(-21.0328 33.4144 10.0484)
(-20.0701 40.7145 11.7486)
(-12.6579 31.8641 14.8436)
(-8.73291 18.7496 10.1519)
(-6.85737 13.858 11.9125)
(-15.7965 35.2495 13.7331)
(-14.7248 32.8824 12.6052)
(-8.31714 16.3826 11.8072)
(-8.56781 16.4574 11.0477)
(-48.2273 30.8303 11.0509)
(-49.5535 35.8269 25.6316)
(-48.3093 32.1482 20.1302)
(-57.0583 36.5382 16.4771)
(-57.6341 37.0271 15.3893)
(-49.2332 32.6084 18.7802)
(-55.3137 32.7486 16.3716)
(-46.4748 29.9445 19.679)
(-36.6204 27.8058 33.2493)
(-33.919 17.4008 43.1643)
(-24.8128 23.0886 33.753)
(-32.7462 23.3632 29.9003)
(-34.643 26.0165 33.4212)
(-30.4984 24.0897 35.412)
(-28.3117 25.1616 30.7295)
(-29.3167 24.0531 34.6659)
(-48.3486 31.8894 26.4023)
(-30.9556 27.3901 30.8029)
(-46.8861 30.6756 30.0871)
(-48.177 32.1203 26.2387)
(-41.1127 30.8715 24.8117)
(-40.7255 32.2264 30.2899)
(-50.4111 32.5912 25.9857)
(-46.1757 31.5214 29.1299)
(-49.925 32.8848 15.8064)
(-39.6221 27.397 23.5943)
(-48.5443 32.2735 21.1077)
(-43.7999 30.0422 13.0159)
(-46.1491 30.1774 13.5735)
(-40.6842 28.9523 16.7416)
(-49.3815 31.5148 15.4654)
(-43.5304 27.5307 17.1309)
(-45.1031 33.5565 24.0583)
(-43.7345 30.8703 20.4596)
(-49.7484 34.3645 15.41)
(-37.02 29.9487 22.788)
(-40.2554 30.9912 22.5495)
(-43.1872 30.4078 22.3702)
(-42.845 31.6226 21.5147)
(-44.824 32.1733 17.9668)
(-37.2859 32.4813 27.2269)
(-30.9562 26.1605 26.5835)
(-27.9825 28.3899 33.8888)
(-41.2799 30.7238 27.0559)
(-36.7781 29.3868 26.1322)
(-31.0782 27.7718 26.6824)
(-34.4942 31.4077 29.5491)
(-31.2238 28.0283 27.5028)
(-50.3389 31.1813 20.3873)
(-52.575 33.2592 16.346)
(-36.8109 29.2936 22.3902)
(-49.5395 32.1075 21.4479)
(-48.3212 31.002 22.4465)
(-48.0856 30.7311 20.0878)
(-41.2712 29.4767 19.9175)
(-40.3226 29.8497 17.9244)
(-47.5737 32.6216 23.9222)
(-46.3345 29.8798 24.6093)
(-33.6627 25.413 27.0887)
(-29.9125 27.4699 31.5922)
(-42.0782 31.7966 25.9216)
(-39.554 29.8339 23.1728)
(-34.9457 28.5183 27.2625)
(-30.4229 25.3903 26.4852)
(-3.9314 24.5549 -2.2436)
(-3.12707 30.836 -3.32858)
(-0.888423 23.9257 -3.0006)
(-7.03477 20.467 2.3796)
(-3.45889 25.3406 -1.78035)
(-2.6793 27.8984 -3.00993)
(-6.14731 17.5182 -1.84476)
(-2.14585 22.8536 -3.20798)
(-4.31177 37.973 -8.04607)
(-2.9012 46.8838 -13.7363)
(-1.35663 36.3213 -12.3605)
(-7.2195 31.1152 -3.10923)
(-4.58474 38.4978 -8.27208)
(-2.54534 41.4724 -10.075)
(-11.041 32.103 -9.67538)
(-3.31524 35.2822 -10.1356)
(-1.76355 19.3911 -5.84183)
(-0.568394 28.1489 -10.6411)
(-2.41572 19.0849 -6.61744)
(-4.87844 15.1753 -1.61057)
(-1.32299 20.2168 -6.13694)
(0.0835245 24.0788 -6.09229)
(-5.49916 13.7375 -6.47413)
(-2.81719 18.4887 -6.31024)
(-4.80724 17.8759 10.8809)
(-10.4611 22.3375 4.82913)
(-4.37034 11.5666 9.74991)
(-2.69549 11.764 9.99937)
(-4.85652 19.4516 9.49825)
(-5.12554 20.8146 9.24805)
(-3.78074 11.3759 8.68492)
(-1.61693 14.1728 7.24137)
(-3.88679 31.1751 -4.22428)
(-0.55729 24.1787 -3.86146)
(-5.91619 22.0988 1.84572)
(-5.02384 27.1171 -1.58263)
(-8.52254 26.7418 -5.41981)
(-5.58296 21.5439 -1.37185)
(-9.1583 27.0891 -0.956003)
(-6.22303 24.2504 -0.801756)
(-1.38646 33.6957 -5.38277)
(-3.09732 30.7751 -1.90661)
(-0.333147 32.0525 -7.04799)
(4.28658 28.459 -4.35649)
(-2.67969 28.7723 -6.03096)
(-7.7326 32.3328 -6.57593)
(-0.15762 28.4751 -6.1966)
(-0.707806 30.0288 -6.64535)
(-12.361 14.5462 -4.06527)
(-6.61544 13.0405 2.35354)
(-11.5907 21.5349 0.703293)
(-8.17885 10.5124 5.75956)
(-7.65688 15.5802 1.79778)
(-4.79845 18.6125 -0.107004)
(-1.41701 18.794 1.56666)
(-4.62164 18.3997 0.0203978)
(-0.995207 20.5073 -4.49864)
(-3.26099 15.5938 -1.25402)
(-3.32335 23.7828 0.336914)
(-1.64796 27.1988 -9.5024)
(-4.49907 21.5697 -5.09703)
(-1.06067 24.2155 0.0459924)
(-4.09733 25.8558 -8.92564)
(-4.43241 24.0871 -5.17092)
(-78.4819 125.893 -1.21743)
(-67.083 130.307 2.19071)
(-74.1236 110.978 1.63872)
(-44.3724 83.0351 9.07666)
(-75.5928 134.536 1.6926)
(-71.7186 127.206 1.29788)
(-75.7632 127.988 3.60204)
(-72.5135 125.306 3.6245)
(-56.2019 116.654 2.17499)
(-48.651 103.398 2.88282)
(-55.6394 104.179 5.05078)
(-35.3656 61.6379 6.27889)
(-54.8352 118.371 4.31857)
(-50.6481 109.131 2.2033)
(-60.1452 116.818 7.39647)
(-57.3322 113.033 7.50315)
(-72.1406 95.3119 0.310471)
(-60.455 95.481 2.99007)
(-74.916 98.7488 3.98705)
(-35.9103 60.5981 3.48968)
(-68.4829 102.417 3.12403)
(-65.5113 89.4933 -0.244774)
(-74.4487 103.276 4.05374)
(-69.4348 96.7841 3.39036)
(-27.7633 50.1729 13.4395)
(-22.9967 33.292 15.813)
(-22.0409 38.024 10.3623)
(-16.2023 27.3202 18.3935)
(-23.8912 36.4393 15.0106)
(-31.1218 45.8855 9.75919)
(-19.5788 32.971 15.2797)
(-24.2343 37.1673 12.9766)
(-63.7806 127.52 2.32203)
(-71.5378 113.266 1.90651)
(-35.0309 76.4 7.97184)
(-30.3389 60.7639 8.40282)
(-67.0317 121.692 5.74437)
(-71.6554 123.648 3.68863)
(-43.1738 81.1192 9.4799)
(-45.2796 79.8317 6.05793)
(-62.5601 126.079 3.32736)
(-42.4649 78.4129 10.3886)
(-56.4377 102.137 3.26604)
(-66.9591 109.658 2.04326)
(-63.1475 120.705 6.56406)
(-64.2182 120.285 7.83806)
(-61.3715 101.118 -1.13424)
(-63.177 110.286 4.21188)
(-74.7097 113.126 3.11375)
(-32.678 64.44 7.44082)
(-25.7764 56.8808 7.54274)
(-36.5916 59.8258 7.60321)
(-38.4651 69.1642 5.83697)
(-36.1188 67.352 8.80594)
(-36.9358 62.4215 7.3682)
(-37.4789 67.2323 8.25419)
(-71.5156 110.26 3.32019)
(-33.8209 60.1835 4.66759)
(-30.8256 61.3006 10.3844)
(-60.6992 105.467 5.13696)
(-69.7742 108.599 3.06662)
(-34.2834 68.9801 3.97396)
(-64.0397 107.764 4.76306)
(-35.0412 66.6593 8.69848)
(-59.0481 34.2039 4.01393)
(-67.6458 39.7974 7.30428)
(-54.8511 40.2618 17.0571)
(-69.4713 43.8188 13.4581)
(-70.1425 41.369 13.5639)
(-65.876 42.2349 12.8682)
(-67.3207 44.0895 14.7114)
(-60.3258 41.3934 14.6488)
(-75.9167 49.5943 7.38873)
(-102.686 66.9949 9.15746)
(-64.8836 45.8551 19.7182)
(-65.2508 41.8796 7.59546)
(-75.0717 50.1673 5.56852)
(-95.4237 61.8281 9.95861)
(-56.4417 42.1057 9.71114)
(-73.7252 48.7244 12.6709)
(-43.5023 30.0094 26.9434)
(-44.647 29.1243 30.339)
(-36.912 19.0635 42.6468)
(-35.7778 24.387 29.0732)
(-38.9697 27.8166 22.5284)
(-40.6975 27.6104 31.998)
(-34.1262 24.7333 31.418)
(-38.7463 23.8921 38.2376)
(-54.7236 35.0519 11.0925)
(-52.6792 34.1259 7.28333)
(-41.2807 30.2222 21.8536)
(-49.25 28.9455 7.099)
(-55.6258 37.8548 12.3177)
(-49.5538 36.0738 15.89)
(-45.5887 29.6928 10.3894)
(-43.5455 32.5918 12.7628)
(-76.4331 46.1301 11.2672)
(-54.6906 40.0687 15.9455)
(-57.9186 39.5154 12.5923)
(-66.621 45.8051 9.86182)
(-64.659 41.9583 10.6758)
(-58.1147 39.9311 13.9559)
(-66.161 42.8109 10.8698)
(-59.833 39.7083 14.8174)
(-71.878 47.9363 13.0995)
(-63.0599 44.0826 12.4374)
(-54.8292 41.8962 21.8965)
(-54.6181 36.9862 20.6994)
(-63.8108 44.8679 14.6701)
(-59.2249 42.8831 10.6844)
(-57.6473 39.5071 15.464)
(-49.8457 38.096 12.4196)
(-42.9912 34.0235 22.8891)
(-49.7766 34.6688 12.0588)
(-51.9372 33.6451 8.29839)
(-34.6511 29.5125 25.0099)
(-43.7704 33.1552 18.6992)
(-50.5681 36.5455 14.6276)
(-41.9169 33.3632 15.7726)
(-47.2345 35.2067 15.1773)
(-46.5832 32.302 25.1047)
(-39.9696 28.158 24.6972)
(-53.2843 38.0439 13.6729)
(-50.2019 34.5093 25.2721)
(-43.8821 31.0611 19.4971)
(-47.5465 31.715 21.8555)
(-44.8302 29.9759 17.2663)
(-49.6132 34.0126 16.8948)
(-141.153 16.2964 5.39012)
(-109.338 25.5707 16.6411)
(-147.75 22.2563 5.62838)
(-105.803 25.4989 19.5045)
(-118.918 20.2887 6.62065)
(-136.625 21.9402 10.9677)
(-115.709 22.154 13.3145)
(-136.914 22.6922 15.2982)
(-79.5746 33.23 23.8206)
(-40.5592 22.3452 12.7176)
(-68.0102 29.3967 8.50279)
(-57.3007 28.3418 27.001)
(-71.0962 30.6957 20.9285)
(-63.5847 25.5597 15.0208)
(-69.3667 32.4963 19.3908)
(-62.4222 26.2567 15.7115)
(-138.288 33.5764 2.04283)
(-55.3708 14.6502 0.105976)
(-86.9044 34.9189 1.00682)
(-66.3023 25.6242 12.1322)
(-110.425 29.8153 7.49314)
(-82.5798 25.1993 -0.652895)
(-87.3668 23.2758 1.89312)
(-73.2382 24.4174 -6.5511)
(-71.2629 26.3309 28.8441)
(-52.4489 28.0611 29.1402)
(-60.8982 29.5001 27.1044)
(-47.5952 29.7567 45.4036)
(-60.5878 29.2241 36.32)
(-57.5096 28.6622 26.9235)
(-58.8767 29.6322 35.6302)
(-56.5778 27.9297 29.6162)
(-94.0882 24.5836 16.8127)
(-127.807 22.6818 11.5174)
(-89.9031 26.4939 22.6429)
(-62.5444 27.0727 21.2962)
(-87.469 26.6365 16.2458)
(-111.209 27.2491 20.2492)
(-70.0277 26.6723 18.1862)
(-86.9705 25.4786 18.8106)
(-100.763 25.7607 15.3735)
(-70.2431 31.5172 22.5901)
(-70.112 21.3904 3.88783)
(-129.586 26.2345 5.10826)
(-94.8024 27.7524 16.5127)
(-83.2464 33.8569 19.8959)
(-107.61 18.988 6.03519)
(-89.0185 24.2135 12.2494)
(-119.632 24.3111 12.442)
(-83.5638 26.5806 27.7087)
(-59.6397 25.4887 19.5613)
(-79.5231 26.6923 16.0274)
(-106.441 24.5751 13.0203)
(-86.8956 25.8359 22.6375)
(-84.3038 27.1293 18.9146)
(-66.6653 28.3241 22.7851)
(-129.808 28.5972 8.60166)
(-75.5384 25.4523 10.3641)
(-67.4687 29.991 22.6212)
(-65.8116 23.2681 -0.316213)
(-93.3597 21.7123 8.8032)
(-76.8043 24.521 9.39688)
(-75.9992 22.3385 4.43537)
(-67.5659 27.3732 16.2269)
(-54.0931 42.12 7.64112)
(-26.4995 23.7521 7.06542)
(-48.9189 32.3678 1.37085)
(-58.2734 38.0812 20.5975)
(-56.5708 34.505 6.76671)
(-51.8187 34.4775 8.25621)
(-60.9651 39.0137 7.83296)
(-63.0878 38.3155 7.78359)
(-37.1757 27.3243 5.48362)
(-53.2403 32.9801 3.98875)
(-27.0271 16.3085 -1.28132)
(-51.2942 36.9181 18.1314)
(-39.6733 28.2048 8.16519)
(-38.236 26.515 5.47026)
(-48.4808 30.2584 11.4989)
(-50.4948 31.4662 8.8147)
(-54.3137 38.5074 -3.70091)
(-34.1641 22.9952 -1.8444)
(-51.0842 17.7351 -8.37715)
(-72.3785 38.085 12.6683)
(-80.5942 48.4187 7.68274)
(-63.9544 44.0249 2.57259)
(-81.0304 47.4584 7.48518)
(-83.5975 49.9784 5.33997)
(-48.5929 25.6778 34.2157)
(-43.8215 32.1099 31.179)
(-49.7588 24.7235 26.6413)
(-35.7844 13.1723 38.0972)
(-45.3151 29.0331 31.4222)
(-50.5551 30.2314 28.4578)
(-41.542 21.5335 35.3355)
(-45.2506 20.6036 30.1111)
(-34.6391 24.5172 8.39372)
(-69.7732 42.4794 7.39246)
(-58.5672 37.3302 21.4219)
(-47.7586 36.3808 20.97)
(-40.5788 30.4567 13.6565)
(-70.5756 44.628 13.6181)
(-45.6579 34.6494 20.1685)
(-61.317 40.5582 18.2402)
(-29.0974 19.3357 3.39106)
(-51.0794 36.8318 16.1524)
(-29.3757 17.7481 3.72231)
(-47.6215 35.3434 3.83059)
(-42.3754 28.8684 8.03405)
(-55.3151 38.6431 14.5023)
(-23.6341 16.2328 -0.247815)
(-51.3354 32.7122 7.03219)
(-75.1839 45.1863 9.01724)
(-58.5117 31.5418 24.8879)
(-47.4398 37.802 27.1976)
(-59.7553 37.0312 16.5055)
(-65.6264 40.1253 13.4023)
(-58.8874 38.7813 19.2613)
(-63.2571 41.3277 16.5916)
(-57.227 38.3038 25.9025)
(-76.3476 46.0875 8.06348)
(-61.1468 37.6842 19.5025)
(-52.3026 36.3726 20.8682)
(-58.7032 37.0616 8.04007)
(-79.0069 48.2112 14.9471)
(-66.3217 42.4436 16.9839)
(-62.8902 43.8461 11.7618)
(-51.3902 41.3355 19.6473)
(-40.8421 33.4183 44.3644)
(-36.5734 22.6776 25.6142)
(-57.7839 26.4772 24.2617)
(-40.2163 23.8608 39.386)
(-40.3616 29.5291 36.4607)
(-46.9502 26.06 30.1042)
(-43.7434 30.0199 36.1285)
(-51.8905 28.3862 31.3955)
(-31.1702 11.0942 17.5313)
(-71.1706 20.0811 15.7167)
(-62.6852 20.4442 13.9371)
(-53.0934 13.132 23.8011)
(-44.8298 8.98556 18.5634)
(-57.1986 12.9125 9.58615)
(-53.0308 11.1575 15.2529)
(-57.5639 17.6944 9.0647)
(-40.2277 20.6743 6.71108)
(-54.7539 20.5638 3.30546)
(-68.5296 29.9563 4.63814)
(-33.9374 12.1342 9.36889)
(-39.3927 16.8094 5.6065)
(-50.6918 16.752 3.51959)
(-47.6673 18.1616 5.29696)
(-58.1707 19.8502 3.38019)
(-27.7258 19.7835 33.1842)
(-26.8 9.95106 23.8083)
(-27.2044 8.61533 20.7027)
(-23.4197 12.3704 34.7537)
(-25.5148 15.1115 26.9514)
(-28.133 13.3302 20.9642)
(-28.0912 11.1746 26.5045)
(-27.4129 10.4756 22.0636)
(-23.1153 18.0443 20.9867)
(-42.3726 21.5693 20.4729)
(-38.3551 24.7738 36.2666)
(-27.0775 7.57894 20.4384)
(-20.4458 10.2511 14.2689)
(-42.8489 22.266 28.3419)
(-16.413 13.9396 19.9804)
(-38.8214 22.7336 31.0035)
(-23.6834 10.8398 15.1609)
(-38.5119 12.1574 15.0507)
(-48.611 14.8554 3.92282)
(-39.1967 13.2529 12.1736)
(-23.4072 10.138 9.72258)
(-32.2422 8.70472 10.9609)
(-27.179 13.4397 10.0248)
(-30.168 8.80426 10.1586)
(-36.3845 13.2265 13.7263)
(-32.8269 18.5222 33.9738)
(-32.6165 10.2266 16.3454)
(-36.9157 12.9462 13.0582)
(-30.5835 15.4066 17.049)
(-30.0219 15.9105 24.242)
(-30.7215 13.0705 14.2395)
(-28.4653 11.6352 17.346)
(-33.7991 12.8032 10.7751)
(-37.9914 13.5459 9.24883)
(-36.5839 12.1623 12.2223)
(-51.6013 17.4225 2.43206)
(-37.3462 12.0025 9.37832)
(-36.8959 12.6042 9.41846)
(-42.9681 13.7839 7.11801)
(-37.2696 12.5776 9.30691)
(-3.52003 -4.61086 2.62988)
(-11.2633 8.09696 25.9941)
(-6.01689 13.3799 29.0562)
(-3.66594 -0.321301 1.79633)
(-2.35564 -2.94028 -0.994557)
(-2.5687 4.56004 13.2651)
(-4.94459 -1.52275 -0.264494)
(-4.08555 6.25528 8.60579)
(-15.8414 18.8889 35.4141)
(-19.3432 23.5744 46.6834)
(-15.3727 23.2776 43.6246)
(-21.0705 19.4012 35.5446)
(-15.7793 19.0301 36.0993)
(-18.3928 24.9902 47.0393)
(-18.8212 21.5042 36.6304)
(-18.0436 23.6713 39.337)
(-18.1885 16.6367 41.2789)
(-20.4537 19.1041 42.2441)
(-32.0095 16.9955 47.0798)
(-26.1841 19.5162 36.2785)
(-20.9264 16.4666 40.6846)
(-19.7897 17.8533 43.7951)
(-22.3408 20.0912 38.8361)
(-20.6832 18.4487 38.0282)
(-12.9712 17.1282 -6.26751)
(-27.9856 15.4754 21.1352)
(-28.2007 24.3093 23.3525)
(-34.0102 21.6721 7.24043)
(-22.9809 15.1297 3.75647)
(-24.1994 18.4196 11.6174)
(-25.2005 19.6269 4.21034)
(-28.8223 20.1096 14.9049)
(-7.40013 5.58493 21.8474)
(-9.80495 15.9483 26.2205)
(-8.98603 3.91428 5.31044)
(-17.7674 14.445 21.5167)
(-10.9927 12.0314 22.99)
(-9.35864 9.52777 10.9944)
(-11.1208 10.3674 22.7063)
(-10.987 9.62358 8.49032)
(-14.6574 20.5194 39.3323)
(-20.4517 17.0569 33.5629)
(-12.3806 22.1698 43.8081)
(-10.5918 18.773 44.3398)
(-15.4655 16.8464 34.0204)
(-18.8415 19.6756 38.1877)
(-12.4827 18.7704 41.6191)
(-13.6419 21.1387 40.0511)
(-12.2081 15.841 28.8545)
(-11.7735 21.8488 1.37844)
(-17.7666 16.2373 23.7554)
(-20.0207 24.2985 24.4238)
(-14.5704 19.2901 22.658)
(-13.7069 20.9132 9.43899)
(-18.1085 19.9243 27.6259)
(-21.6571 16.9829 14.7308)
(-12.9513 18.7421 38.0536)
(-21.329 22.7442 36.0542)
(-23.1516 20.4601 37.5982)
(-15.3946 19.8108 38.5783)
(-16.6446 19.9568 40.4472)
(-19.4435 20.0527 35.3644)
(-16.1617 20.6135 38.8183)
(-19.7006 22.7336 38.3967)
(-45.7064 31.4308 34.5028)
(-32.672 31.9875 36.7736)
(-36.7292 32.2791 38.7802)
(-45.4619 30.4214 27.441)
(-44.2229 33.4208 30.6535)
(-35.8467 30.9925 35.9189)
(-46.4815 33.8011 31.4661)
(-37.8334 31.682 35.9281)
(-22.3076 24.9126 36.3191)
(-33.891 17.2496 45.5129)
(-21.3312 20.4132 41.4946)
(-29.6678 24.5165 34.3326)
(-24.6856 22.7747 35.0233)
(-22.1822 21.5285 39.954)
(-24.6719 23.3954 35.7702)
(-21.6822 21.1922 39.6222)
(-29.984 30.3203 42.8394)
(-14.9374 24.4429 43.3272)
(-19.1465 26.049 44.1406)
(-25.7303 24.7682 37.684)
(-25.443 27.4165 42.5293)
(-21.9912 27.7596 45.4467)
(-23.0767 24.6193 38.4832)
(-20.8937 25.5881 44.7515)
(-46.6753 29.3596 21.2687)
(-32.6398 28.9011 25.8068)
(-34.0603 22.3646 28.3314)
(-42.2186 24.0808 10.0275)
(-39.921 25.6781 17.9462)
(-33.4122 24.7073 23.1626)
(-42.5448 25.3931 17.0443)
(-39.4014 22.7711 24.143)
(-29.5896 29.8766 33.5976)
(-35.0889 30.0568 36.553)
(-42.616 29.8112 24.0212)
(-29.9619 25.0594 28.1979)
(-30.4003 28.4513 32.1049)
(-35.3133 29.5437 35.8845)
(-28.8338 26.6363 29.987)
(-35.6731 29.352 33.0344)
(-23.0926 28.9756 41.0739)
(-22.6816 23.4294 33.4299)
(-20.0331 21.3529 43.6904)
(-27.1632 27.5503 41.3696)
(-24.0749 26.4632 37.8647)
(-20.9943 24.0147 40.129)
(-22.8259 27.6709 38.8373)
(-20.9003 24.8928 38.6898)
(-36.0985 32.8107 38.246)
(-49.7056 32.1799 27.5233)
(-29.8152 29.1463 28.8965)
(-34.6195 23.9078 32.0935)
(-38.2694 31.5824 36.9073)
(-40.3234 31.0095 33.2552)
(-33.238 26.9732 31.5712)
(-33.4759 25.9218 30.7588)
(-30.8402 30.9745 42.1334)
(-26.6167 22.8283 36.5033)
(-24.9774 24.9315 32.977)
(-17.2224 23.56 40.2348)
(-24.9619 27.263 43.1321)
(-25.2238 27.3142 37.7203)
(-17.4604 25.0485 37.1164)
(-21.2664 25.4019 33.5186)
(4.43089 -12.3144 10.0671)
(-9.90977 1.58596 3.94235)
(-8.44073 14.6772 27.1962)
(-4.95111 11.8222 17.3293)
(-1.31538 -7.17745 9.64007)
(-1.73504 -1.13467 8.93684)
(-5.79694 -2.38474 15.8448)
(-4.30176 5.83222 11.0389)
(-21.7812 17.5122 -7.30164)
(-28.6 20.2886 -0.102298)
(-29.2175 29.1596 20.5132)
(-21.6176 26.3188 10.8137)
(-21.0662 21.8259 -5.2629)
(-23.6656 20.4268 0.0356994)
(-17.2507 26.0653 0.0265431)
(-22.7469 24.0459 5.59176)
(-17.3221 14.8741 38.4982)
(-24.3501 16.5835 36.0222)
(-24.9017 12.0936 41.2914)
(-21.2063 8.00406 41.1456)
(-19.5145 16.2989 40.3171)
(-22.6179 16.1944 35.6131)
(-22.6164 8.9037 43.9424)
(-27.2441 13.8486 39.5246)
(-10.3854 12.9584 31.1448)
(-17.8801 21.0294 28.0374)
(-23.9614 11.0899 40.2213)
(-22.7034 9.18224 42.2584)
(-11.9503 16.752 33.4208)
(-15.0076 19.7699 26.9479)
(-21.5237 12.4108 40.0411)
(-24.7824 17.0299 33.0597)
(-10.924 9.9199 3.18634)
(-9.99598 15.8348 22.1585)
(-2.32665 8.95823 11.6966)
(-9.48652 21.4488 12.0252)
(-10.4972 14.9381 12.5599)
(-5.67034 8.94905 11.4284)
(-10.6348 14.2967 11.7734)
(-6.50129 12.2795 13.7129)
(-22.0102 20.1404 5.03025)
(-15.0441 23.1352 10.7039)
(-25.8167 26.1541 21.6381)
(-12.5672 20.5063 23.2988)
(-16.0789 20.5645 6.31963)
(-11.5445 23.1391 6.27719)
(-12.2623 21.6663 17.3562)
(-15.6787 26.9473 19.7494)
(-13.4087 16.9106 36.2415)
(-5.64567 9.3806 27.5481)
(-12.0561 20.3261 20.4384)
(-21.8003 7.68206 44.2165)
(-10.8509 12.4027 34.7687)
(-7.58067 11.5159 22.8323)
(-13.0347 14.6056 36.4965)
(-8.60638 17.5911 23.903)
(-17.1071 19.0588 32.5182)
(-26.7679 12.1682 37.0504)
(-21.4609 23.6827 19.5925)
(-29.4755 24.1069 31.0894)
(-18.5188 20.4858 34.9433)
(-15.308 16.266 30.837)
(-22.3668 21.9458 31.8385)