/*--------------------------------*- C++ -*----------------------------------*\
| =========                 |                                                 |
| \\      /  F ield         | OpenFOAM: The Open Source CFD Toolbox           |
|  \\    /   O peration     | Version:  2506                                  |
|   \\  /    A nd           | Website:  www.openfoam.com                      |
|    \\/     M anipulation  |                                                 |
\*---------------------------------------------------------------------------*/
FoamFile
{
    version     2.0;
    format      ascii;
    arch        "LSB;label=32;scalar=64";
    class       volScalarField;
    location    "300";
    object      p;
}
// * * * * * * * * * * * * * * * * * * * * * * * * * * * * * * * * * * * * * //

dimensions      [0 2 -2 0 0 0 0];

internalField   nonuniform List<scalar> 
71680
(
-0.0474878
-0.0436028
-0.0614509
-0.0458013
-0.045861
-0.0488179
-0.0513052
-0.0537864
-0.0394092
-0.0365332
-0.0551493
-0.0443851
-0.0335139
-0.0416848
-0.0463663
-0.0432807
-0.0821488
-0.0837529
-0.11882
-0.0903603
-0.081707
-0.0963222
-0.0958024
-0.0970257
-0.0483149
-0.0521498
-0.0699397
-0.048286
-0.0508229
-0.0571709
-0.0568277
-0.0646104
-0.040215
-0.0653899
-0.0465461
-0.0462537
-0.0496246
-0.0526359
-0.0445596
-0.0525159
-0.0447185
-0.0531461
-0.0687531
-0.0669629
-0.0508319
-0.0523502
-0.0614244
-0.0567815
-0.0743914
-0.0525301
-0.0554505
-0.0784463
-0.0662668
-0.0579189
-0.0632723
-0.0592252
-0.0755249
-0.0885428
-0.0601333
-0.0716568
-0.0756762
-0.0746193
-0.0701462
-0.0643163
0.0020042
-0.00302336
-0.00467646
-0.00358406
-0.00108992
-0.0022598
-0.00316055
-0.00440364
-0.00773191
-0.0113112
-0.0146591
-0.0126499
-0.0106116
-0.011392
-0.0121002
-0.0140307
-0.0143625
-0.018003
-0.023181
-0.019006
-0.0173058
-0.0181997
-0.01874
-0.021441
-0.00844746
-0.0128434
-0.0160257
-0.0132959
-0.0113799
-0.0124371
-0.0122403
-0.0151387
-0.00624704
-0.00877892
-0.00654397
-0.0115931
-0.00798667
-0.0069416
-0.00854996
-0.00804908
-0.00743298
-0.0124176
-0.0146563
-0.0099774
-0.00965702
-0.0116384
-0.0103492
-0.0138989
-0.0105927
-0.00783542
-0.0121858
-0.0151087
-0.0107654
-0.0101489
-0.014276
-0.0116516
-0.0131917
-0.0177751
-0.0144186
-0.0173407
-0.0140828
-0.0150348
-0.0147873
-0.0150887
-0.111434
-0.116669
-0.0878439
-0.106574
-0.105212
-0.106988
-0.105615
-0.10375
-0.126853
-0.124944
-0.0865281
-0.103125
-0.129872
-0.121985
-0.103058
-0.109414
-0.0593431
-0.058999
-0.0383553
-0.0497786
-0.0535174
-0.0492418
-0.0461071
-0.0438318
-0.0730629
-0.0732884
-0.0558039
-0.0551164
-0.0712045
-0.0736151
-0.0631213
-0.0644771
-0.112589
-0.0851375
-0.0986689
-0.0946825
-0.106323
-0.0989279
-0.107725
-0.0949947
-0.114275
-0.0948814
-0.0820846
-0.0822841
-0.101537
-0.0996481
-0.0906572
-0.0898906
-0.075386
-0.0817407
-0.0811852
-0.0585921
-0.069976
-0.0828464
-0.0679291
-0.0759604
-0.0742291
-0.0606854
-0.0823822
-0.0753447
-0.0684768
-0.0668929
-0.0764744
-0.0712668
-0.00453563
-0.00527159
-0.00320932
-0.00579328
-0.00484279
-0.00462543
-0.00487849
-0.0045736
-0.00751245
-0.0105329
-0.00659674
-0.0117552
-0.00866485
-0.00851176
-0.00888542
-0.00848288
-0.00122498
-0.00234218
0.00174806
-0.00278737
-0.00160124
-0.00116246
-0.00143186
-0.000842828
-0.00796031
-0.0118563
-0.0071951
-0.0120966
-0.00945301
-0.00928355
-0.00958326
-0.0094167
-0.00600662
-0.00357285
-0.00662515
-0.00930772
-0.00615706
-0.005239
-0.0080395
-0.00647147
-0.0059079
-0.00927301
-0.00484379
-0.00320871
-0.00578526
-0.0075114
-0.0040703
-0.00503992
-0.00354402
-0.00668555
-0.00943188
-0.00549132
-0.00428128
-0.00645311
-0.0056538
-0.00802971
-0.00312129
-0.00530112
-0.00940834
-0.0047056
-0.00395913
-0.00541963
-0.005136
-0.00713637
-0.00538759
-0.00724697
-0.00607533
-0.00677255
-0.00584066
-0.00630411
-0.00600565
-0.00670541
-0.00964812
-0.0121788
-0.0116239
-0.0127414
-0.0108724
-0.0111513
-0.0112167
-0.0122508
-0.00799068
-0.0113196
-0.0109051
-0.0119972
-0.00992813
-0.0107374
-0.0107858
-0.0120272
-0.00929177
-0.0132596
-0.0123885
-0.0132824
-0.0108957
-0.0113812
-0.0111988
-0.0128306
-0.00826435
-0.00749635
-0.00785166
-0.0109293
-0.00861555
-0.00789534
-0.00977254
-0.00854646
-0.00862225
-0.0115447
-0.0109153
-0.00819664
-0.00952232
-0.0107348
-0.0089305
-0.0104597
-0.0081961
-0.00804618
-0.0114348
-0.0112217
-0.00848237
-0.00933803
-0.0104773
-0.0109244
-0.00882578
-0.0125092
-0.0127765
-0.0119742
-0.0106496
-0.0111847
-0.011151
-0.0122417
-0.111226
-0.0870926
-0.0862324
-0.0820551
-0.101166
-0.092253
-0.0940351
-0.085622
-0.0688784
-0.0463616
-0.0476971
-0.0492002
-0.0623414
-0.0519676
-0.0579868
-0.0495649
-0.0718744
-0.0481874
-0.0493789
-0.0509122
-0.0597924
-0.0546408
-0.0582944
-0.0489082
-0.0560446
-0.0383155
-0.0450893
-0.0327201
-0.0458972
-0.0450889
-0.0402853
-0.0388793
-0.0805849
-0.080502
-0.0723891
-0.0554668
-0.0715425
-0.0793108
-0.057726
-0.0660819
-0.0732936
-0.05257
-0.0533136
-0.0745682
-0.0673165
-0.0610525
-0.0669175
-0.0595166
-0.0781898
-0.0647588
-0.0506061
-0.0543909
-0.063649
-0.0601162
-0.0557096
-0.0538223
-0.0650896
-0.0476019
-0.0492019
-0.0498435
-0.0600276
-0.0535692
-0.0557163
-0.0492077
-0.127964
-0.139806
-0.0919191
-0.103257
-0.110523
-0.0968503
-0.0977727
-0.0912987
-0.180553
-0.176327
-0.101888
-0.0977377
-0.166706
-0.157733
-0.12464
-0.11736
-0.0679848
-0.06794
-0.0523998
-0.0509305
-0.0619249
-0.0620169
-0.0534614
-0.0513084
-0.0726165
-0.0674338
-0.0548232
-0.0523838
-0.0666656
-0.0677048
-0.0558532
-0.0517059
-0.134825
-0.0871444
-0.0906105
-0.105908
-0.10735
-0.0946151
-0.106336
-0.0908659
-0.106735
-0.109714
-0.086896
-0.0861937
-0.102578
-0.112858
-0.10695
-0.0891393
-0.0771519
-0.0793131
-0.0857064
-0.0552739
-0.0754128
-0.0713936
-0.0614053
-0.0682669
-0.0740436
-0.0517167
-0.0733945
-0.0718942
-0.0672967
-0.0613973
-0.0787529
-0.0686525
-0.00416443
-0.0026299
-0.00372212
-0.00488715
-0.00421519
-0.00363807
-0.00487218
-0.0040056
-0.000495282
0.00184535
-0.00041639
-0.00193331
-0.000417855
0.000384275
-0.00129146
-6.92979e-05
-0.00297688
-0.00161423
-0.00198921
-0.00325814
-0.00228248
-0.00202991
-0.00247357
-0.0018048
-0.00656583
-0.00552533
-0.00633124
-0.00983528
-0.0071715
-0.00593785
-0.00841419
-0.0069605
-0.00265906
-0.00363116
-0.0052403
-0.00401649
-0.00352023
-0.00377038
-0.00337224
-0.00425981
-0.00196171
-0.00279538
-0.00131782
-0.00321904
-0.00240738
-0.00191111
-0.00215525
-0.00172165
-0.00384322
-0.00601002
-0.00463796
-0.00429714
-0.00428583
-0.00481287
-0.00418559
-0.00479068
-0.00318996
-0.0035185
-0.00344404
-0.00129836
-0.00242299
-0.00358824
-0.00200502
-0.00313027
-0.107139
-0.0893995
-0.140902
-0.0972411
-0.111908
-0.101606
-0.123972
-0.108322
-0.0677144
-0.0516306
-0.0753998
-0.0586348
-0.0555523
-0.0499471
-0.0636259
-0.0587992
-0.17493
-0.112556
-0.18788
-0.107547
-0.123839
-0.109998
-0.145699
-0.126468
-0.069052
-0.0640356
-0.0779459
-0.0538932
-0.0753796
-0.0724223
-0.0771654
-0.0717277
-0.0822789
-0.128828
-0.101599
-0.0632255
-0.0886865
-0.097837
-0.0716196
-0.0961316
-0.0773678
-0.0565381
-0.0704225
-0.115632
-0.0845347
-0.0640751
-0.109232
-0.082367
-0.137151
-0.102062
-0.0706433
-0.0941634
-0.111717
-0.0885947
-0.0915373
-0.0807419
-0.119709
-0.0864753
-0.0633812
-0.084811
-0.0907602
-0.0852486
-0.0981743
-0.0814566
-0.0124604
-0.0127117
-0.015206
-0.0133271
-0.0133533
-0.0133992
-0.0141531
-0.0143029
-0.0127232
-0.013209
-0.0150304
-0.0137097
-0.0130699
-0.013458
-0.0137609
-0.0144217
-0.0159732
-0.0162601
-0.0164577
-0.0172194
-0.0162883
-0.0161241
-0.0168168
-0.0165237
-0.0139245
-0.0145379
-0.0169913
-0.0148836
-0.0151294
-0.0151856
-0.0156905
-0.0165042
-0.0128118
-0.0152276
-0.0139683
-0.0138682
-0.0133542
-0.0142006
-0.0136896
-0.0138311
-0.0130516
-0.0142479
-0.0150301
-0.0150742
-0.0140694
-0.0141328
-0.0147376
-0.0147159
-0.0159797
-0.0144223
-0.014576
-0.0170943
-0.015613
-0.0149205
-0.0161786
-0.0154673
-0.0156847
-0.0169851
-0.0152567
-0.0158646
-0.016018
-0.0159912
-0.0154621
-0.0160792
-0.131462
-0.0580448
-0.0789362
-0.0749849
-0.0910319
-0.08238
-0.0889622
-0.0796919
-0.0270823
-0.00799851
-0.0244061
-0.021371
-0.0234009
-0.0219159
-0.0259393
-0.0219647
-0.0555621
-0.0355636
-0.040202
-0.0388712
-0.0460214
-0.0427661
-0.0435755
-0.0390024
-0.0579323
-0.0349942
-0.0412002
-0.0439451
-0.0471691
-0.0476917
-0.0470135
-0.0388678
-0.0460307
-0.067243
-0.0638375
-0.0375541
-0.0477069
-0.0562506
-0.0436614
-0.0591988
-0.040286
-0.0373857
-0.0365321
-0.0593041
-0.0396201
-0.032049
-0.0455108
-0.0373894
-0.0624657
-0.063175
-0.0388045
-0.0480091
-0.0549778
-0.0530485
-0.0491642
-0.0402997
-0.0568534
-0.0394058
-0.0334442
-0.03456
-0.0397706
-0.0443644
-0.0385733
-0.0331785
-0.0987619
-0.0843298
-0.0761915
-0.0733208
-0.100663
-0.0923445
-0.0860356
-0.0846982
-0.0680119
-0.0500238
-0.050931
-0.0497184
-0.0622115
-0.057384
-0.0585554
-0.0516246
-0.0516801
-0.0439439
-0.0307732
-0.0287
-0.0430264
-0.0423278
-0.0344522
-0.035696
-0.0463084
-0.0411268
-0.0284859
-0.0265332
-0.0391445
-0.0417156
-0.0361916
-0.0340319
-0.0765191
-0.0686886
-0.0701994
-0.0545963
-0.0702683
-0.0691767
-0.0598352
-0.0643308
-0.0744204
-0.0536237
-0.0539598
-0.0665859
-0.0653931
-0.0568888
-0.0617759
-0.0559737
-0.0606326
-0.0616123
-0.0506563
-0.033786
-0.0501961
-0.0586435
-0.04278
-0.0458389
-0.0574214
-0.0347751
-0.0460903
-0.0473014
-0.0464342
-0.0420139
-0.0493146
-0.0432201
-0.023961
-0.0198655
-0.0204965
-0.0215022
-0.0212252
-0.020612
-0.0207444
-0.0201921
-0.0167469
-0.0138327
-0.0159222
-0.0144551
-0.0147302
-0.0151565
-0.0147921
-0.014947
-0.0180686
-0.0165595
-0.0165803
-0.0177607
-0.0169649
-0.0170158
-0.0170812
-0.0166588
-0.0192928
-0.0151257
-0.0179415
-0.0165917
-0.0166071
-0.0163336
-0.0171643
-0.0165992
-0.0173279
-0.0187459
-0.0187482
-0.0153186
-0.0173755
-0.019256
-0.0174482
-0.0181946
-0.0170859
-0.0151507
-0.0164007
-0.0186702
-0.0169026
-0.0164303
-0.017922
-0.0162353
-0.0188219
-0.018829
-0.0156798
-0.0177874
-0.0190523
-0.0182644
-0.0174217
-0.0174981
-0.018364
-0.0172791
-0.0152808
-0.0160371
-0.017833
-0.0171851
-0.0165341
-0.0165069
-0.17617
-0.11952
-0.126965
-0.116799
-0.0831923
-0.138529
-0.0926078
-0.106757
-0.133235
-0.116097
-0.0986717
-0.117581
-0.140799
-0.136393
-0.103515
-0.129998
-0.145641
-0.0839352
-0.126134
-0.130269
-0.165871
-0.134411
-0.142251
-0.1638
-0.0691063
-0.0836044
-0.0761575
-0.057442
-0.0793824
-0.083081
-0.0715176
-0.077995
-0.132295
-0.112781
-0.112145
-0.110216
-0.108637
-0.108802
-0.119532
-0.112099
-0.132785
-0.123542
-0.121823
-0.159198
-0.119233
-0.121503
-0.120637
-0.137258
-0.111197
-0.0988527
-0.102817
-0.0810831
-0.131994
-0.119788
-0.119126
-0.112145
-0.138405
-0.102501
-0.101651
-0.16569
-0.13897
-0.141314
-0.126334
-0.138525
-0.100413
-0.0998882
-0.0910728
-0.0774025
-0.0931375
-0.11151
-0.0819891
-0.0838468
-0.102623
-0.129369
-0.116589
-0.0816909
-0.100191
-0.13422
-0.0872769
-0.100357
-0.0974895
-0.103155
-0.102663
-0.0812793
-0.0988544
-0.1129
-0.0918951
-0.0875666
-0.0631526
-0.0553536
-0.0581269
-0.0408053
-0.0557994
-0.0561506
-0.0393494
-0.048418
-0.0946844
-0.0891092
-0.0673896
-0.0554329
-0.0835663
-0.0929429
-0.0827756
-0.0870586
-0.119726
-0.0740583
-0.12586
-0.116753
-0.0850028
-0.0942071
-0.0969202
-0.0925916
-0.0829913
-0.0516452
-0.0448085
-0.0538159
-0.0810168
-0.0551544
-0.0574432
-0.0475256
-0.0853756
-0.0610224
-0.0565636
-0.0822792
-0.100802
-0.0791538
-0.0853978
-0.0804812
0.00938145
0.000421787
-0.00259965
0.00579733
0.00703417
0.0027753
0.00536
-0.000561742
-0.0069874
-0.013801
-0.0165804
-0.0141882
-0.0107297
-0.0125702
-0.0135799
-0.0152805
-0.0148412
-0.0195025
-0.0233317
-0.0236711
-0.0192788
-0.0203249
-0.0227064
-0.022659
-0.00169405
-0.014525
-0.0214233
-0.0159371
-0.00935389
-0.0131904
-0.0151952
-0.0187934
-0.00305655
-0.00707928
0.00135037
-0.0100227
-0.0057978
-0.00389109
-0.00565614
-0.00362408
-0.0056436
-0.0124988
-0.0158955
-0.00973348
-0.00896352
-0.0118942
-0.0108955
-0.0149134
-0.00958026
-0.00191834
-0.0134477
-0.0203225
-0.0102377
-0.00746122
-0.0155528
-0.0120633
-0.0133415
-0.0216602
-0.0161644
-0.0183272
-0.0162822
-0.0176151
-0.0172412
-0.0178217
-0.0470921
-0.0440769
-0.0602155
-0.0505647
-0.0516031
-0.0523357
-0.0522784
-0.0565877
-0.0440678
-0.0435334
-0.0528116
-0.0466476
-0.0502306
-0.0578249
-0.0495706
-0.0515191
-0.0835174
-0.0818387
-0.141346
-0.0877029
-0.102022
-0.0960046
-0.107887
-0.115772
-0.0549852
-0.0502595
-0.0623041
-0.0565328
-0.0551589
-0.0556312
-0.0543765
-0.0567192
-0.0507897
-0.0744867
-0.0531986
-0.0524153
-0.048183
-0.051988
-0.048742
-0.0507999
-0.0553105
-0.0540693
-0.0804012
-0.074368
-0.0588807
-0.0518021
-0.0582957
-0.0731005
-0.0706414
-0.0537925
-0.0557676
-0.0780196
-0.0613211
-0.0629053
-0.0732224
-0.0557465
-0.0880429
-0.0953122
-0.0488607
-0.0806174
-0.0775634
-0.0760539
-0.0725765
-0.0638614
-0.119182
-0.0821919
-0.0839627
-0.0816583
-0.0914924
-0.0901347
-0.0908689
-0.0888664
-0.0455176
-0.0243353
-0.0377229
-0.0220254
-0.028583
-0.0321466
-0.0316379
-0.0290609
-0.0607563
-0.0433208
-0.047471
-0.0470673
-0.0530491
-0.0449368
-0.0498598
-0.0440573
-0.051675
-0.0253798
-0.0414411
-0.0277625
-0.030795
-0.0322976
-0.0332595
-0.0309626
-0.0561672
-0.0670348
-0.0573443
-0.0361566
-0.0581648
-0.0752095
-0.0517446
-0.0565183
-0.0576541
-0.0326531
-0.0378402
-0.0578557
-0.0545222
-0.0437784
-0.0559398
-0.0425308
-0.0634086
-0.0608191
-0.0348672
-0.0444293
-0.0618207
-0.0568291
-0.0466657
-0.0486834
-0.0580971
-0.0398285
-0.0299412
-0.0370865
-0.050739
-0.0396274
-0.0399018
-0.0368139
0.00351057
-0.00312459
0.00482568
-0.00220668
0.00105663
0.00133248
0.00101575
0.00143039
-0.0129782
-0.0224883
-0.013042
-0.0184742
-0.0164112
-0.0177129
-0.0162792
-0.0175514
0.00701161
-0.00127127
0.0091321
0.00112674
0.00422601
0.00474168
0.0048136
0.00516579
-0.00724754
-0.0153694
-0.00593974
-0.0124375
-0.00962889
-0.0102708
-0.00902942
-0.00965988
-0.00649282
0.00230366
-0.00448963
-0.0126638
-0.00618478
-0.0020159
-0.0100121
-0.00489373
-0.00717076
-0.0133865
-0.00696186
0.00258483
-0.0068233
-0.0115147
-0.00228407
-0.00617328
0.00240727
-0.00388368
-0.0123002
-0.00286546
-0.000772032
-0.00422043
-0.00361514
-0.00769682
0.00281796
-0.00317538
-0.0131288
-0.00665758
-0.00130513
-0.00398389
-0.00584319
-0.00937103
-0.0812801
-0.0382746
-0.0771619
-0.0632925
-0.0501962
-0.0727043
-0.0282495
-0.0395048
-0.0277592
-0.0330255
-0.046219
-0.0362073
-0.0426486
-0.0413148
-0.0498999
-0.0456211
-0.0893924
-0.0726185
-0.0995037
-0.0869444
-0.071
-0.0685493
-0.0727231
-0.0691265
-0.0485912
-0.0255428
-0.0515647
-0.032898
-0.0364114
-0.0386093
-0.0391258
-0.0390592
-0.0487141
-0.0674063
-0.0521188
-0.031928
-0.0486218
-0.0683934
-0.0342981
-0.0623951
-0.0456553
-0.0404623
-0.0344167
-0.068365
-0.0424593
-0.055247
-0.0455958
-0.0503724
-0.0610965
-0.0485404
-0.0315571
-0.0547421
-0.0805701
-0.0560299
-0.0544823
-0.0330551
-0.0639714
-0.0563461
-0.0408217
-0.0441673
-0.0726257
-0.0565782
-0.0539794
-0.0527956
-0.0127503
-0.0145338
-0.0152252
-0.0154371
-0.0140293
-0.0144769
-0.014917
-0.0151573
-0.0178797
-0.0214101
-0.0217073
-0.0206933
-0.0172345
-0.0209941
-0.018925
-0.0230976
-0.0182491
-0.0222239
-0.0221037
-0.0209085
-0.0193007
-0.020248
-0.0203256
-0.0212924
-0.0173556
-0.0193814
-0.0202004
-0.0191281
-0.0183955
-0.0179044
-0.0185098
-0.0186911
-0.0130831
-0.0165647
-0.016664
-0.0169049
-0.0144977
-0.0157056
-0.0155249
-0.0154352
-0.0151583
-0.0177479
-0.0199955
-0.0167404
-0.0162684
-0.0176824
-0.0177171
-0.0182902
-0.0169745
-0.0163726
-0.0178181
-0.019279
-0.0176271
-0.0160135
-0.0190476
-0.0185872
-0.0171083
-0.0192508
-0.0196526
-0.0217405
-0.0188839
-0.0181582
-0.0192246
-0.0204282
-0.129237
-0.111344
-0.144487
-0.118405
-0.119585
-0.119921
-0.12868
-0.128617
-0.083634
-0.071411
-0.0930548
-0.0773789
-0.0885609
-0.0829704
-0.0865766
-0.0892058
-0.171962
-0.105243
-0.159957
-0.125144
-0.158611
-0.166491
-0.158162
-0.163279
-0.0764531
-0.0603233
-0.0766236
-0.0269248
-0.0593013
-0.080317
-0.0451967
-0.0612134
-0.115051
-0.141716
-0.100878
-0.081812
-0.108175
-0.12122
-0.0864003
-0.108469
-0.106417
-0.0817979
-0.0945218
-0.148553
-0.103244
-0.0989334
-0.104393
-0.10304
-0.143566
-0.101574
-0.0802796
-0.0958461
-0.118424
-0.104523
-0.105176
-0.090372
-0.151957
-0.110818
-0.0792566
-0.0987196
-0.139285
-0.118654
-0.11046
-0.0866314
-0.0751141
-0.133133
-0.040469
-0.0685491
-0.0752545
-0.126819
-0.0996174
-0.0786414
-0.146188
-0.108758
-0.0689923
-0.0911968
-0.112101
-0.0915541
-0.100711
-0.0844013
-0.0356681
-0.047664
-0.0354893
-0.0367855
-0.0323381
-0.0420385
-0.0377328
-0.0391157
-0.0375422
-0.0554197
-0.03202
-0.0276078
-0.0383554
-0.0458992
-0.0304787
-0.0344149
-0.0924589
-0.0391524
-0.0548528
-0.0625764
-0.0979136
-0.0683601
-0.0758736
-0.0750905
-0.0836143
-0.0810597
-0.0624022
-0.0547938
-0.0845349
-0.080051
-0.0565807
-0.052469
-0.0492615
-0.0474663
-0.0633547
-0.0411313
-0.0302603
-0.0485702
-0.0365061
-0.0442174
-0.0515771
-0.0424471
-0.0592728
-0.0576901
-0.0526012
-0.0444207
-0.0590409
-0.0484959
-0.0335012
-0.0539144
-0.0547553
-0.0574708
-0.0499757
-0.0547058
-0.0556145
-0.0580868
-0.0588303
-0.0559861
-0.0739461
-0.0599671
-0.0605499
-0.0641865
-0.0648125
-0.0677429
-0.0897539
-0.104354
-0.129395
-0.113868
-0.103851
-0.110069
-0.115443
-0.116592
-0.0739036
-0.0646125
-0.0906293
-0.0734521
-0.0745406
-0.0753603
-0.0797907
-0.0820747
-0.0617851
-0.0805129
-0.0715834
-0.0653306
-0.0678228
-0.0677141
-0.0663113
-0.0744815
-0.0653066
-0.0664404
-0.084377
-0.08431
-0.0694901
-0.0671794
-0.0739169
-0.0812266
-0.0869732
-0.0770479
-0.068424
-0.0981092
-0.0791109
-0.0795254
-0.0896176
-0.0743397
-0.0885324
-0.101743
-0.0697354
-0.0870611
-0.0915473
-0.0926391
-0.088372
-0.0820337
-0.112377
-0.0989801
-0.0895195
-0.0904839
-0.112322
-0.105695
-0.0976053
-0.0928992
-0.0735266
-0.0546835
-0.0570278
-0.0529994
-0.0659952
-0.0619462
-0.0607181
-0.0555126
-0.0517757
-0.0488942
-0.0274561
-0.0271998
-0.0505002
-0.0492632
-0.0327314
-0.0329975
-0.052044
-0.0437242
-0.0256378
-0.027053
-0.0470692
-0.0446335
-0.034476
-0.0331939
-0.0871045
-0.0867912
-0.0860551
-0.0619839
-0.0780594
-0.0864719
-0.0679464
-0.0771812
-0.0803985
-0.0585897
-0.0617088
-0.0807301
-0.0700879
-0.0654466
-0.0713273
-0.0636272
-0.0645474
-0.0595834
-0.0528157
-0.0344924
-0.0483648
-0.0543144
-0.048738
-0.0475379
-0.0613406
-0.0334397
-0.0494906
-0.0522721
-0.0514372
-0.0459353
-0.0547387
-0.0448912
-0.0132449
-0.0377296
-0.0365094
-0.0304286
-0.0280453
-0.0344592
-0.031267
-0.0375557
-0.0821376
-0.148578
-0.0834047
-0.0813045
-0.106984
-0.0926282
-0.0825135
-0.0824452
-0.0483614
-0.0600495
-0.0477161
-0.0482951
-0.0572852
-0.0564311
-0.0514121
-0.0517808
-0.042069
-0.0633293
-0.0481493
-0.0477446
-0.0504771
-0.0549259
-0.0490959
-0.0524217
-0.0510443
-0.0493967
-0.0408133
-0.0727873
-0.0502704
-0.0445594
-0.0541867
-0.0448523
-0.0624205
-0.0759491
-0.0727598
-0.0466372
-0.0687849
-0.0779319
-0.0635511
-0.0781785
-0.0447244
-0.0408358
-0.0655753
-0.0498564
-0.0462239
-0.0505092
-0.0531303
-0.0550773
-0.0528568
-0.0519954
-0.0698704
-0.0692655
-0.0584747
-0.0564511
-0.0672405
-0.0639901
-0.0133078
-0.0396378
-0.0400449
-0.0296393
-0.0210571
-0.0336129
-0.0268414
-0.038223
-0.0511498
-0.0522429
-0.06446
-0.0541704
-0.0476724
-0.0511331
-0.0552614
-0.0519999
-0.0864421
-0.0891933
-0.12905
-0.0971399
-0.0792529
-0.0912886
-0.0978305
-0.10192
-0.0470236
-0.0581559
-0.0757893
-0.0616833
-0.0501223
-0.0581568
-0.0594685
-0.0621115
-0.0420261
-0.0475266
-0.037197
-0.051788
-0.0508586
-0.049626
-0.0488209
-0.0496049
-0.0520028
-0.0558833
-0.0655768
-0.062704
-0.0571579
-0.0586976
-0.0728605
-0.0638881
-0.0555891
-0.044559
-0.059234
-0.0755025
-0.0606536
-0.0554724
-0.0619907
-0.0597731
-0.0704402
-0.0752855
-0.0575204
-0.0694081
-0.0682183
-0.0684986
-0.0710547
-0.068073
0.0116407
-0.000281944
0.00852279
0.0101935
0.00859304
0.00517885
0.00983085
0.00658612
-0.0131787
-0.0228631
-0.0125314
-0.0216708
-0.0178882
-0.0178995
-0.0167952
-0.0171659
0.00649463
-0.00250881
0.00424987
0.00525087
0.00420908
0.0018949
0.0052239
0.00299752
0.00213748
-0.0190739
0.000731091
-0.0120151
-0.00716102
-0.00848446
-0.00503148
-0.00699819
-0.00505254
0.00602329
0.00358126
-0.0143188
-0.00345234
0.00351818
-0.00753561
0.000493088
-0.00677019
-0.0143457
-0.00697825
0.0031672
-0.0055438
-0.0100299
-0.0013213
-0.00532465
0.00700684
0.00559355
-0.0127925
0.00406643
0.00740325
0.0021003
0.00218612
-0.00352316
0.00453189
0.000850966
-0.013366
-0.00590981
0.00190361
-0.000564058
-0.00398619
-0.00751628
-0.0853591
-0.0712345
-0.0635527
-0.0758385
-0.0782179
-0.0746767
-0.0773954
-0.0709182
-0.056996
-0.0504169
-0.0400547
-0.0434812
-0.0590998
-0.0555926
-0.0487907
-0.0462656
-0.0432021
-0.0328193
-0.0278997
-0.0330827
-0.0349539
-0.0325042
-0.0331369
-0.0306003
-0.0571014
-0.0435624
-0.0383852
-0.0417911
-0.0589407
-0.0480921
-0.0476401
-0.0431429
-0.0772854
-0.0598792
-0.0766948
-0.0568939
-0.0600788
-0.0672391
-0.0583693
-0.0622323
-0.0628025
-0.0470024
-0.0410946
-0.0540878
-0.0571248
-0.048487
-0.0475663
-0.0428499
-0.054524
-0.0589621
-0.045584
-0.0395187
-0.0483094
-0.0578933
-0.0438798
-0.0484866
-0.0490424
-0.0364989
-0.0410951
-0.0372426
-0.040478
-0.0407783
-0.0399435
-0.0381693
-0.0269399
-0.0279793
-0.0400999
-0.0323023
-0.0278081
-0.0316847
-0.0320897
-0.0341686
-0.0293953
-0.0360062
-0.0537558
-0.0392392
-0.0289869
-0.0353684
-0.0398716
-0.0409766
-0.0631658
-0.0740345
-0.0922164
-0.0778819
-0.0656569
-0.0789186
-0.080473
-0.0843599
-0.0376238
-0.0443682
-0.0575939
-0.0420077
-0.0404349
-0.0473079
-0.0474273
-0.0556324
-0.0289941
-0.041226
-0.0339855
-0.0380546
-0.0353661
-0.0368551
-0.0366617
-0.0391948
-0.0335529
-0.0436764
-0.0567141
-0.0490699
-0.039082
-0.0416266
-0.0455577
-0.047624
-0.0516524
-0.0391667
-0.0451748
-0.0636782
-0.0463716
-0.0445677
-0.0508819
-0.0463011
-0.0583582
-0.0723586
-0.0501976
-0.0605357
-0.0601497
-0.0582433
-0.0575018
-0.0534602
-0.129452
-0.125052
-0.112632
-0.0818831
-0.101257
-0.0990485
-0.106045
-0.090661
-0.135486
-0.156698
-0.126796
-0.0866332
-0.112064
-0.122729
-0.104333
-0.104339
-0.113845
-0.113511
-0.113531
-0.0745882
-0.0923418
-0.0921488
-0.0890167
-0.0862901
-0.0597731
-0.0651385
-0.0624162
-0.0443063
-0.0551612
-0.0689234
-0.0405025
-0.0525869
-0.108576
-0.0928748
-0.0626336
-0.0617792
-0.101858
-0.0898387
-0.08505
-0.0819031
-0.108255
-0.0838117
-0.0999626
-0.0933926
-0.100814
-0.0914713
-0.11727
-0.0976283
-0.0958557
-0.0557223
-0.060837
-0.055397
-0.0824427
-0.0622177
-0.0589379
-0.0592185
-0.0895635
-0.0577569
-0.0583615
-0.0948014
-0.0860765
-0.079844
-0.0971156
-0.0830004
-0.110871
-0.0671135
-0.0732429
-0.0671704
-0.0976667
-0.0697248
-0.0917576
-0.088602
-0.0462389
-0.0345851
-0.0337589
-0.0363307
-0.0453131
-0.0279108
-0.0435188
-0.039076
-0.054626
-0.034603
-0.0332753
-0.0382446
-0.0438642
-0.0261104
-0.0379703
-0.0385261
-0.0501068
-0.0362131
-0.0432451
-0.0409123
-0.0519094
-0.0463078
-0.0487886
-0.0469165
-0.0611848
-0.0729249
-0.0651785
-0.0467685
-0.056729
-0.0613785
-0.0473036
-0.0639975
-0.0393895
-0.0414826
-0.0269904
-0.0426955
-0.0560486
-0.0377445
-0.0480977
-0.0440492
-0.0576425
-0.0585204
-0.0394393
-0.0442502
-0.0452988
-0.0607037
-0.054124
-0.0459163
-0.0723224
-0.045607
-0.040127
-0.0399146
-0.042711
-0.0442208
-0.0420232
-0.0387178
-0.045401
-0.0445459
-0.037927
-0.0451105
-0.045691
-0.042943
-0.0437852
-0.0415228
-0.0439281
-0.0459644
-0.0386599
-0.0465534
-0.0444173
-0.0421601
-0.0435022
-0.0412521
-0.032247
-0.0324027
-0.0273998
-0.0284966
-0.0331037
-0.030899
-0.0298204
-0.0300087
-0.0395527
-0.038185
-0.0287912
-0.02768
-0.0345811
-0.034487
-0.0315377
-0.029403
-0.0446235
-0.0386593
-0.0452094
-0.0457654
-0.0428223
-0.0406048
-0.0465482
-0.0435189
-0.0420444
-0.0427921
-0.0361873
-0.0364299
-0.0396996
-0.041804
-0.0368645
-0.038325
-0.0374188
-0.041563
-0.0415902
-0.0321861
-0.0374596
-0.040082
-0.0364209
-0.0395249
-0.0359908
-0.0307915
-0.0376413
-0.0353037
-0.0346535
-0.0353672
-0.0364422
-0.036345
-0.132355
-0.0772653
-0.0717659
-0.0847071
-0.090183
-0.0840992
-0.0878465
-0.0738787
-0.0555946
-0.0423957
-0.0370717
-0.0403998
-0.0475449
-0.0467602
-0.0440006
-0.0389925
-0.0371956
-0.0260221
-0.0134434
-0.027725
-0.0282706
-0.0263011
-0.0250326
-0.0193494
-0.0530823
-0.0381911
-0.037106
-0.0354731
-0.0424168
-0.041265
-0.0383094
-0.034163
-0.0669559
-0.0563216
-0.0636463
-0.0437138
-0.0627319
-0.0699605
-0.0597586
-0.0595057
-0.0617821
-0.0420424
-0.0404965
-0.0541206
-0.0499313
-0.0484127
-0.0541011
-0.0392769
-0.0504711
-0.0573705
-0.0427492
-0.0369236
-0.0491207
-0.0483215
-0.0377446
-0.0482984
-0.0392173
-0.0310136
-0.0376839
-0.0318507
-0.042659
-0.0364124
-0.0385658
-0.035495
-0.0921382
-0.0711024
-0.058361
-0.0679305
-0.0815875
-0.0780695
-0.0775081
-0.0672586
-0.0462887
-0.0271554
-0.0241486
-0.0275364
-0.0180441
-0.0246654
-0.0273235
-0.0204353
-0.0343564
-0.0249441
-0.0243712
-0.0245342
-0.031129
-0.0274301
-0.028812
-0.024225
-0.0405592
-0.0304544
-0.0236549
-0.0226447
-0.0175311
-0.0243891
-0.0261564
-0.0197786
-0.0442381
-0.0464555
-0.0406251
-0.0198907
-0.0463686
-0.0595829
-0.0427622
-0.0479672
-0.0476772
-0.0258661
-0.027491
-0.0407763
-0.0345904
-0.0399372
-0.0360173
-0.0320747
-0.0426108
-0.0447669
-0.0311588
-0.0289212
-0.038607
-0.0376871
-0.0308568
-0.0393548
-0.0314216
-0.0225206
-0.0212391
-0.023069
-0.0375319
-0.026759
-0.028478
-0.0234014
-0.0258722
-0.0317488
-0.0408023
-0.0275649
-0.0263726
-0.0320741
-0.0313543
-0.0348493
-0.0393551
-0.0469864
-0.0583401
-0.0448785
-0.041
-0.0512404
-0.0470663
-0.0539906
-0.0645802
-0.0763883
-0.0921182
-0.0732867
-0.0671825
-0.0784918
-0.079239
-0.086071
-0.0295216
-0.0379236
-0.0487183
-0.0349078
-0.0277273
-0.0373071
-0.0331601
-0.0327447
-0.0345451
-0.0397522
-0.026677
-0.0354796
-0.0383061
-0.0378073
-0.034721
-0.0349354
-0.0400199
-0.0450251
-0.06426
-0.0514429
-0.0418194
-0.0473897
-0.0478407
-0.0480649
-0.0472026
-0.0345743
-0.0420101
-0.0506944
-0.0502439
-0.0382718
-0.0496937
-0.0428666
-0.0571132
-0.0560766
-0.0461693
-0.0789594
-0.0628567
-0.0563821
-0.0579997
-0.0528595
-0.13064
-0.148202
-0.119317
-0.117036
-0.143564
-0.13814
-0.129485
-0.132455
-0.145246
-0.14378
-0.111859
-0.115384
-0.133159
-0.154459
-0.124112
-0.127939
-0.078853
-0.0818304
-0.0406012
-0.0732818
-0.0779649
-0.0695495
-0.0632832
-0.0592842
-0.0989346
-0.104631
-0.0814414
-0.0752299
-0.0921626
-0.0930118
-0.0808598
-0.0843494
-0.136599
-0.116206
-0.109939
-0.108386
-0.119502
-0.122553
-0.112689
-0.107778
-0.137883
-0.106303
-0.10438
-0.1103
-0.1225
-0.119204
-0.121254
-0.11311
-0.0970738
-0.0976172
-0.0953711
-0.0808666
-0.0954197
-0.0974381
-0.0938378
-0.0967151
-0.0929737
-0.0812157
-0.0992438
-0.0916379
-0.0886996
-0.0873636
-0.0928698
-0.103768
-0.103574
-0.0989175
-0.0889749
-0.0961407
-0.113347
-0.10245
-0.0958411
-0.0953906
-0.107945
-0.118332
-0.0870993
-0.10242
-0.11873
-0.113467
-0.101682
-0.10423
-0.0612807
-0.0568092
-0.036711
-0.0497726
-0.05746
-0.0508515
-0.0469266
-0.045362
-0.0764388
-0.0755633
-0.0572712
-0.0550344
-0.065738
-0.0692745
-0.0613542
-0.0638623
-0.108088
-0.0793359
-0.0896968
-0.094972
-0.0958932
-0.0906799
-0.100313
-0.0906951
-0.100218
-0.0898905
-0.0830312
-0.0774126
-0.0956469
-0.095581
-0.0878504
-0.08758
-0.0741726
-0.0796642
-0.080542
-0.0571038
-0.068817
-0.0787625
-0.0646308
-0.0736637
-0.0725319
-0.0587929
-0.0823371
-0.0762926
-0.0676588
-0.0631647
-0.0756659
-0.0696799
-0.0124387
-0.0237654
-0.0364651
-0.0254198
-0.0177492
-0.0217283
-0.0298031
-0.0284278
-0.0331445
-0.0409986
-0.060733
-0.0606243
-0.0430579
-0.0474121
-0.0646057
-0.0466781
-0.0711602
-0.0904042
-0.125617
-0.0898096
-0.091032
-0.0964684
-0.101477
-0.0727546
-0.0374717
-0.0441269
-0.0538488
-0.0359781
-0.0387091
-0.0425282
-0.042698
-0.0464933
-0.0295414
-0.0435412
-0.0311886
-0.0501037
-0.0447453
-0.0418503
-0.0351699
-0.0356813
-0.0327649
-0.057593
-0.0717532
-0.0504869
-0.0401424
-0.0615467
-0.0514291
-0.0665021
-0.0553621
-0.0413644
-0.0596894
-0.0629583
-0.0492618
-0.0428963
-0.0581397
-0.0513411
-0.0585127
-0.0764584
-0.0638647
-0.057355
-0.0788744
-0.0629508
-0.084669
-0.0655513
0.0913674
0.0629175
0.0787945
0.0419282
0.0715298
0.0751792
0.0635863
0.0607396
0.0325249
-0.00495396
-0.0263652
0.00369929
0.00656881
-0.00327769
-0.00142921
-0.0134779
0.0253451
-0.0408727
-0.0787216
-0.00496246
-0.0310606
-0.0315647
-0.0441038
-0.0376614
0.017514
0.00106709
-0.00146784
0.000447405
0.00464992
0.00435712
0.000337416
0.00123772
0.0338974
0.0336931
0.0262493
0.00476094
0.0265638
0.0244858
0.0190423
0.0281901
0.034571
0.00619057
-0.0266237
0.0222968
0.0215998
0.00609889
0.0315069
-0.00498988
0.0176787
0.0214089
0.00139656
-0.0036036
0.0234915
0.0236102
0.00122073
-0.00100138
0.00714864
-0.00271091
0.00368556
-0.0393773
-0.01396
0.00055306
-0.016815
-0.00516894
-0.00381506
-0.00834646
-0.00873732
-0.00848758
-0.00611268
-0.0076755
-0.00752879
-0.0086939
-0.0137197
-0.0184695
-0.0165107
-0.0168359
-0.015755
-0.0169556
-0.0161803
-0.0169953
-0.012707
-0.0156581
-0.0152807
-0.0150296
-0.0142328
-0.0148956
-0.014381
-0.015113
-0.0136216
-0.0169958
-0.0158471
-0.0181517
-0.0156294
-0.0156894
-0.0160747
-0.0164525
-0.011023
-0.0110656
-0.0110196
-0.0152771
-0.0121336
-0.0107558
-0.0130298
-0.0118135
-0.0124484
-0.0155445
-0.0156712
-0.0118304
-0.0131386
-0.014686
-0.0127994
-0.0146689
-0.0118261
-0.0122106
-0.0156993
-0.0148385
-0.012625
-0.0130077
-0.0145642
-0.0144235
-0.0126588
-0.0153268
-0.0160247
-0.015575
-0.0141718
-0.0148164
-0.0150119
-0.015528
-0.0347557
-0.029082
-0.0317434
-0.0350538
-0.0362697
-0.0337557
-0.0387462
-0.0343903
-0.0244593
-0.0201493
-0.0217899
-0.022236
-0.0232643
-0.0227775
-0.0226185
-0.0225009
-0.0287092
-0.0230027
-0.023643
-0.0279732
-0.0280034
-0.0242999
-0.0280436
-0.0252586
-0.0332154
-0.0269283
-0.0319134
-0.0333476
-0.0337234
-0.0308733
-0.0336684
-0.0325337
-0.0292124
-0.032088
-0.0367154
-0.0271866
-0.0288442
-0.0312548
-0.0279806
-0.0318034
-0.0279053
-0.0253378
-0.0238292
-0.029105
-0.0276596
-0.0241268
-0.0258152
-0.0252511
-0.0337359
-0.0379808
-0.0277677
-0.0321287